<?xml version="1.0" encoding="ISO-8859-1"?>
<modeling>
 <generator>
  <i name="program" type="string">vasp </i>
  <i name="version" type="string">6.0.8  </i>
  <i name="subversion" type="string">29Jun18 (build Jun 13 2019 12:54:44) complex                          parallel </i>
  <i name="platform" type="string">IFC18_CrayMPICH </i>
  <i name="date" type="string">2021 12 05 </i>
  <i name="time" type="string">14:21:48 </i>
 </generator>
 <incar>
  <i type="int" name="KPAR">     4</i>
  <i type="int" name="NPAR">     4</i>
  <i type="int" name="ISTART">     0</i>
  <i type="string" name="PREC"> ACC</i>
  <i type="string" name="ALGO"> Normal</i>
  <i type="logical" name="ADDGRID"> T  </i>
  <i type="int" name="ISPIN">     1</i>
  <i type="int" name="NELMIN">     5</i>
  <i type="int" name="IBRION">    -1</i>
  <i name="EDIFF">      0.00000010</i>
  <i type="int" name="NSW">     0</i>
  <i type="int" name="ISIF">     3</i>
  <i name="ENCUT">    700.00000000</i>
  <i type="logical" name="LREAL"> F  </i>
  <i type="int" name="ISMEAR">     0</i>
  <i name="SIGMA">      0.01000000</i>
  <i type="logical" name="LWAVE"> F  </i>
  <i type="logical" name="LCHARG"> F  </i>
  <i type="logical" name="LVTOT"> F  </i>
  <i type="string" name="ALGO"> Normal</i>
  <i type="string" name="GGA"> PS</i>
  <i name="EDIFF">      0.00000010</i>
  <i type="int" name="ISPIN">     1</i>
 </incar>
 <structure name="primitive_cell" >
  <crystal>
   <varray name="basis" >
    <v>       0.00000000       3.61912319       3.61912319 </v>
    <v>       3.61912319       0.00000000       3.61912319 </v>
    <v>       3.61912319       3.61912319       0.00000000 </v>
   </varray>
   <i name="volume">     94.80693191 </i>
   <varray name="rec_basis" >
    <v>      -0.13815501       0.13815501       0.13815501 </v>
    <v>       0.13815501      -0.13815501       0.13815501 </v>
    <v>       0.13815501       0.13815501      -0.13815501 </v>
   </varray>
  </crystal>
  <varray name="positions" >
   <v>       0.25000000       0.25000000       0.25000000 </v>
   <v>       0.75000000       0.75000000       0.75000000 </v>
   <v>       0.00000000       0.00000000       0.00000000 </v>
  </varray>
 </structure>
 <varray name="primitive_index" >
  <v type="int" >        1 </v>
  <v type="int" >        2 </v>
  <v type="int" >        3 </v>
 </varray>
 <kpoints>
  <generation param="Gamma">
   <v type="int" name="divisions">      13       13       13 </v>
   <v name="usershift">      0.00000000       0.00000000       0.00000000 </v>
   <v name="genvec1">      0.07692308       0.00000000      -0.00000000 </v>
   <v name="genvec2">      0.00000000       0.07692308       0.00000000 </v>
   <v name="genvec3">     -0.00000000      -0.00000000       0.07692308 </v>
   <v name="shift">      0.00000000       0.00000000       0.00000000 </v>
  </generation>
  <varray name="kpointlist" >
   <v>       0.00000000       0.00000000       0.00000000 </v>
   <v>       0.07692308      -0.00000000       0.00000000 </v>
   <v>       0.15384615      -0.00000000       0.00000000 </v>
   <v>       0.23076923       0.00000000      -0.00000000 </v>
   <v>       0.30769231      -0.00000000       0.00000000 </v>
   <v>       0.38461538       0.00000000      -0.00000000 </v>
   <v>       0.46153846      -0.00000000       0.00000000 </v>
   <v>       0.07692308       0.07692308       0.00000000 </v>
   <v>       0.15384615       0.07692308       0.00000000 </v>
   <v>       0.23076923       0.07692308       0.00000000 </v>
   <v>       0.30769231       0.07692308      -0.00000000 </v>
   <v>       0.38461538       0.07692308       0.00000000 </v>
   <v>       0.46153846       0.07692308      -0.00000000 </v>
   <v>      -0.46153846       0.07692308       0.00000000 </v>
   <v>      -0.38461538       0.07692308       0.00000000 </v>
   <v>      -0.30769231       0.07692308      -0.00000000 </v>
   <v>      -0.23076923       0.07692308       0.00000000 </v>
   <v>      -0.15384615       0.07692308       0.00000000 </v>
   <v>      -0.07692308       0.07692308      -0.00000000 </v>
   <v>       0.15384615       0.15384615       0.00000000 </v>
   <v>       0.23076923       0.15384615       0.00000000 </v>
   <v>       0.30769231       0.15384615       0.00000000 </v>
   <v>       0.38461538       0.15384615      -0.00000000 </v>
   <v>       0.46153846       0.15384615       0.00000000 </v>
   <v>      -0.46153846       0.15384615      -0.00000000 </v>
   <v>      -0.38461538       0.15384615       0.00000000 </v>
   <v>      -0.30769231       0.15384615      -0.00000000 </v>
   <v>      -0.23076923       0.15384615      -0.00000000 </v>
   <v>      -0.15384615       0.15384615      -0.00000000 </v>
   <v>       0.23076923       0.23076923       0.00000000 </v>
   <v>       0.30769231       0.23076923       0.00000000 </v>
   <v>       0.38461538       0.23076923       0.00000000 </v>
   <v>       0.46153846       0.23076923      -0.00000000 </v>
   <v>      -0.46153846       0.23076923       0.00000000 </v>
   <v>      -0.38461538       0.23076923       0.00000000 </v>
   <v>      -0.30769231       0.23076923       0.00000000 </v>
   <v>      -0.23076923       0.23076923       0.00000000 </v>
   <v>       0.30769231       0.30769231       0.00000000 </v>
   <v>       0.38461538       0.30769231       0.00000000 </v>
   <v>       0.46153846       0.30769231       0.00000000 </v>
   <v>      -0.46153846       0.30769231      -0.00000000 </v>
   <v>      -0.38461538       0.30769231       0.00000000 </v>
   <v>      -0.30769231       0.30769231      -0.00000000 </v>
   <v>       0.38461538       0.38461538       0.00000000 </v>
   <v>       0.46153846       0.38461538      -0.00000000 </v>
   <v>      -0.46153846       0.38461538       0.00000000 </v>
   <v>      -0.38461538       0.38461538       0.00000000 </v>
   <v>       0.46153846       0.46153846       0.00000000 </v>
   <v>      -0.46153846       0.46153846      -0.00000000 </v>
   <v>       0.23076923       0.15384615       0.07692308 </v>
   <v>       0.30769231       0.15384615       0.07692308 </v>
   <v>       0.38461538       0.15384615       0.07692308 </v>
   <v>       0.46153846       0.15384615       0.07692308 </v>
   <v>      -0.46153846       0.15384615       0.07692308 </v>
   <v>       0.30769231       0.23076923       0.07692308 </v>
   <v>       0.38461538       0.23076923       0.07692308 </v>
   <v>       0.46153846       0.23076923       0.07692308 </v>
   <v>      -0.46153846       0.23076923       0.07692308 </v>
   <v>      -0.38461538       0.23076923       0.07692308 </v>
   <v>      -0.30769231       0.23076923       0.07692308 </v>
   <v>      -0.23076923       0.23076923       0.07692308 </v>
   <v>      -0.15384615       0.23076923       0.07692308 </v>
   <v>       0.38461538       0.30769231       0.07692308 </v>
   <v>       0.46153846       0.30769231       0.07692308 </v>
   <v>      -0.46153846       0.30769231       0.07692308 </v>
   <v>      -0.38461538       0.30769231       0.07692308 </v>
   <v>      -0.30769231       0.30769231       0.07692308 </v>
   <v>      -0.23076923       0.30769231       0.07692308 </v>
   <v>       0.46153846       0.38461538       0.07692308 </v>
   <v>      -0.46153846       0.38461538       0.07692308 </v>
   <v>      -0.38461538       0.38461538       0.07692308 </v>
   <v>      -0.30769231       0.38461538       0.07692308 </v>
   <v>      -0.46153846       0.46153846       0.07692308 </v>
   <v>      -0.38461538       0.46153846       0.07692308 </v>
   <v>       0.46153846       0.30769231       0.15384615 </v>
   <v>      -0.46153846       0.30769231       0.15384615 </v>
   <v>      -0.38461538       0.30769231       0.15384615 </v>
   <v>      -0.46153846       0.38461538       0.15384615 </v>
   <v>      -0.38461538       0.38461538       0.15384615 </v>
   <v>      -0.30769231       0.38461538       0.15384615 </v>
   <v>      -0.23076923       0.38461538       0.15384615 </v>
   <v>      -0.38461538       0.46153846       0.15384615 </v>
   <v>      -0.30769231       0.46153846       0.15384615 </v>
   <v>      -0.30769231       0.46153846       0.23076923 </v>
  </varray>
  <varray name="weights" >
   <v>       0.00045517 </v>
   <v>       0.00364133 </v>
   <v>       0.00364133 </v>
   <v>       0.00364133 </v>
   <v>       0.00364133 </v>
   <v>       0.00364133 </v>
   <v>       0.00364133 </v>
   <v>       0.00273100 </v>
   <v>       0.01092399 </v>
   <v>       0.01092399 </v>
   <v>       0.01092399 </v>
   <v>       0.01092399 </v>
   <v>       0.01092399 </v>
   <v>       0.01092399 </v>
   <v>       0.01092399 </v>
   <v>       0.01092399 </v>
   <v>       0.01092399 </v>
   <v>       0.01092399 </v>
   <v>       0.00546199 </v>
   <v>       0.00273100 </v>
   <v>       0.01092399 </v>
   <v>       0.01092399 </v>
   <v>       0.01092399 </v>
   <v>       0.01092399 </v>
   <v>       0.01092399 </v>
   <v>       0.01092399 </v>
   <v>       0.01092399 </v>
   <v>       0.01092399 </v>
   <v>       0.00546199 </v>
   <v>       0.00273100 </v>
   <v>       0.01092399 </v>
   <v>       0.01092399 </v>
   <v>       0.01092399 </v>
   <v>       0.01092399 </v>
   <v>       0.01092399 </v>
   <v>       0.01092399 </v>
   <v>       0.00546199 </v>
   <v>       0.00273100 </v>
   <v>       0.01092399 </v>
   <v>       0.01092399 </v>
   <v>       0.01092399 </v>
   <v>       0.01092399 </v>
   <v>       0.00546199 </v>
   <v>       0.00273100 </v>
   <v>       0.01092399 </v>
   <v>       0.01092399 </v>
   <v>       0.00546199 </v>
   <v>       0.00273100 </v>
   <v>       0.00546199 </v>
   <v>       0.01092399 </v>
   <v>       0.02184797 </v>
   <v>       0.02184797 </v>
   <v>       0.02184797 </v>
   <v>       0.02184797 </v>
   <v>       0.01092399 </v>
   <v>       0.02184797 </v>
   <v>       0.02184797 </v>
   <v>       0.02184797 </v>
   <v>       0.02184797 </v>
   <v>       0.02184797 </v>
   <v>       0.02184797 </v>
   <v>       0.01092399 </v>
   <v>       0.01092399 </v>
   <v>       0.02184797 </v>
   <v>       0.02184797 </v>
   <v>       0.02184797 </v>
   <v>       0.02184797 </v>
   <v>       0.01092399 </v>
   <v>       0.01092399 </v>
   <v>       0.02184797 </v>
   <v>       0.02184797 </v>
   <v>       0.01092399 </v>
   <v>       0.01092399 </v>
   <v>       0.01092399 </v>
   <v>       0.01092399 </v>
   <v>       0.02184797 </v>
   <v>       0.02184797 </v>
   <v>       0.01092399 </v>
   <v>       0.02184797 </v>
   <v>       0.02184797 </v>
   <v>       0.01092399 </v>
   <v>       0.01092399 </v>
   <v>       0.01092399 </v>
   <v>       0.01092399 </v>
  </varray>
 </kpoints>
 <parameters>
  <separator name="general" >
   <i type="string" name="SYSTEM">unknown system</i>
   <i type="logical" name="LCOMPAT"> F  </i>
  </separator>
  <separator name="electronic" >
   <i type="string" name="PREC">acc</i>
   <i name="ENMAX">    700.00000000</i>
   <i name="ENAUG">    535.43100000</i>
   <i name="EDIFF">      0.00000010</i>
   <i type="int" name="IALGO">    38</i>
   <i type="int" name="IWAVPR">    10</i>
   <i type="int" name="NBANDS">    24</i>
   <i type="int" name="NBANDSLOW">    -1</i>
   <i type="int" name="NBANDSHIGH">    -1</i>
   <i name="NELECT">     37.00000000</i>
   <i type="int" name="TURBO">     0</i>
   <i type="int" name="IRESTART">     0</i>
   <i type="int" name="NREBOOT">     0</i>
   <i type="int" name="NMIN">     0</i>
   <i name="EREF">      0.00000000</i>
   <separator name="electronic smearing" >
    <i type="int" name="ISMEAR">     0</i>
    <i name="SIGMA">      0.01000000</i>
    <i name="KSPACING">      0.50000000</i>
    <i type="logical" name="KGAMMA"> T  </i>
    <i type="logical" name="KBLOWUP"> T  </i>
   </separator>
   <separator name="electronic projectors" >
    <i type="logical" name="LREAL"> F  </i>
    <v name="ROPT">      0.00000000      0.00000000      0.00000000</v>
    <i type="int" name="LMAXPAW">  -100</i>
    <i type="int" name="LMAXMIX">     2</i>
    <i type="logical" name="NLSPLINE"> F  </i>
   </separator>
   <separator name="electronic startup" >
    <i type="int" name="ISTART">     0</i>
    <i type="int" name="ICHARG">     2</i>
    <i type="int" name="INIWAV">     1</i>
   </separator>
   <separator name="electronic spin" >
    <i type="int" name="ISPIN">     1</i>
    <i type="logical" name="LNONCOLLINEAR"> F  </i>
    <v name="MAGMOM">      1.00000000      1.00000000      1.00000000</v>
    <i name="NUPDOWN">     -1.00000000</i>
    <i type="logical" name="LSORBIT"> F  </i>
    <v name="SAXIS">      0.00000000      0.00000000      1.00000000</v>
    <i type="logical" name="LSPIRAL"> F  </i>
    <v name="QSPIRAL">      0.00000000      0.00000000      0.00000000</v>
    <i type="logical" name="LZEROZ"> F  </i>
   </separator>
   <separator name="electronic exchange-correlation" >
    <i type="logical" name="LASPH"> F  </i>
    <i type="logical" name="LMETAGGA"> F  </i>
   </separator>
   <separator name="electronic convergence" >
    <i type="int" name="NELM">    60</i>
    <i type="int" name="NELMDL">    -5</i>
    <i type="int" name="NELMIN">     5</i>
    <i name="ENINI">    700.00000000</i>
    <separator name="electronic convergence detail" >
     <i type="logical" name="LDIAG"> T  </i>
     <i type="logical" name="LSUBROT"> F  </i>
     <i name="WEIMIN">      0.00000000</i>
     <i name="EBREAK">      0.00000000</i>
     <i name="DEPER">      0.30000000</i>
     <i type="int" name="NRMM">     4</i>
     <i name="TIME">      0.40000000</i>
    </separator>
   </separator>
   <separator name="electronic mixer" >
    <i name="AMIX">      0.40000000</i>
    <i name="BMIX">      1.00000000</i>
    <i name="AMIN">      0.10000000</i>
    <i name="AMIX_MAG">      1.60000000</i>
    <i name="BMIX_MAG">      1.00000000</i>
    <separator name="electronic mixer details" >
     <i type="int" name="IMIX">     4</i>
     <i type="logical" name="MIXFIRST"> F  </i>
     <i type="int" name="MAXMIX">   -45</i>
     <i name="WC">    100.00000000</i>
     <i type="int" name="INIMIX">     1</i>
     <i type="int" name="MIXPRE">     1</i>
     <i type="int" name="MREMOVE">     5</i>
    </separator>
   </separator>
   <separator name="electronic dipolcorrection" >
    <i type="logical" name="LDIPOL"> F  </i>
    <i type="logical" name="LMONO"> F  </i>
    <i type="int" name="IDIPOL">     0</i>
    <i name="EPSILON">      1.00000000</i>
    <v name="DIPOL">   -100.00000000   -100.00000000   -100.00000000</v>
    <i name="EFIELD">      0.00000000</i>
   </separator>
  </separator>
  <separator name="grids" >
   <i type="int" name="NGX">    48</i>
   <i type="int" name="NGY">    48</i>
   <i type="int" name="NGZ">    48</i>
   <i type="int" name="NGXF">    96</i>
   <i type="int" name="NGYF">    96</i>
   <i type="int" name="NGZF">    96</i>
   <i type="logical" name="ADDGRID"> T  </i>
  </separator>
  <separator name="ionic" >
   <i type="int" name="NSW">     0</i>
   <i type="int" name="IBRION">    -1</i>
   <i type="int" name="MDALGO">     0</i>
   <i type="int" name="ISIF">     3</i>
   <i name="PSTRESS">      0.00000000</i>
   <i name="EDIFFG">      0.00000100</i>
   <i type="int" name="NFREE">     0</i>
   <i name="POTIM">      0.50000000</i>
   <i name="SMASS">     -3.00000000</i>
   <i name="SCALEE">      1.00000000</i>
  </separator>
  <separator name="ionic md" >
   <i name="TEBEG">      0.00010000</i>
   <i name="TEEND">      0.00010000</i>
   <i type="int" name="NBLOCK">     1</i>
   <i type="int" name="KBLOCK">     1</i>
   <i type="int" name="NPACO">   256</i>
   <i name="APACO">     16.00000000</i>
  </separator>
  <separator name="symmetry" >
   <i type="int" name="ISYM">     2</i>
   <i name="SYMPREC">      0.00001000</i>
  </separator>
  <separator name="dos" >
   <i type="int" name="LORBIT">     0</i>
   <v name="RWIGS">     -1.00000000     -1.00000000     -1.00000000</v>
   <i type="int" name="NEDOS">   301</i>
   <i name="EMIN">     10.00000000</i>
   <i name="EMAX">    -10.00000000</i>
   <i name="EFERMI">      0.00000000</i>
  </separator>
  <separator name="writing" >
   <i type="int" name="NWRITE">     2</i>
   <i type="logical" name="LWAVE"> F  </i>
   <i type="logical" name="LDOWNSAMPLE"> F  </i>
   <i type="logical" name="LCHARG"> F  </i>
   <i type="logical" name="LPARD"> F  </i>
   <i type="logical" name="LVTOT"> F  </i>
   <i type="logical" name="LVHAR"> F  </i>
   <i type="logical" name="LELF"> F  </i>
   <i type="logical" name="LOPTICS"> F  </i>
   <v name="STM">      0.00000000      0.00000000      0.00000000      0.00000000      0.00000000      0.00000000      0.00000000</v>
  </separator>
  <separator name="performance" >
   <i type="int" name="NPAR">     4</i>
   <i type="int" name="NSIM">     4</i>
   <i type="int" name="NBLK">    -1</i>
   <i type="logical" name="LPLANE"> T  </i>
   <i type="logical" name="LSCALAPACK"> T  </i>
   <i type="logical" name="LSCAAWARE"> F  </i>
   <i type="logical" name="LSCALU"> F  </i>
   <i type="logical" name="LASYNC"> F  </i>
   <i type="logical" name="LORBITALREAL"> F  </i>
  </separator>
  <separator name="miscellaneous" >
   <i type="int" name="IDIOT">     3</i>
   <i type="int" name="PHON_NSTRUCT">    -1</i>
   <i type="logical" name="LMUSIC"> F  </i>
   <v name="POMASS">    232.03900000    208.98000000    195.08000000</v>
   <v name="DARWINR">      0.00000000      0.00000000      0.00000000</v>
   <v name="DARWINV">      1.00000000      1.00000000      1.00000000</v>
   <i type="logical" name="LCORR"> T  </i>
  </separator>
  <i type="logical" name="GGA_COMPAT"> T  </i>
  <i type="logical" name="LBERRY"> F  </i>
  <i type="int" name="ICORELEVEL">     0</i>
  <i type="logical" name="LDAU"> F  </i>
  <i type="int" name="I_CONSTRAINED_M">     0</i>
  <separator name="electronic exchange-correlation" >
   <i type="string" name="GGA">PS</i>
   <i type="int" name="VOSKOWN">     0</i>
   <i type="logical" name="LHFCALC"> F  </i>
   <i type="string" name="PRECFOCK"></i>
   <i type="logical" name="LSYMGRAD"> F  </i>
   <i type="logical" name="LHFONE"> F  </i>
   <i type="logical" name="LRHFCALC"> F  </i>
   <i type="logical" name="LTHOMAS"> F  </i>
   <i type="logical" name="LMODELHF"> F  </i>
   <i type="logical" name="LFOCKACE"> F  </i>
   <i name="ENCUT4O">     -1.00000000</i>
   <i type="int" name="EXXOEP">     0</i>
   <i type="int" name="FOURORBIT">     0</i>
   <i name="AEXX">      0.00000000</i>
   <i name="HFALPHA">      0.00000000</i>
   <i name="MCALPHA">      0.00000000</i>
   <i name="ALDAX">      1.00000000</i>
   <i name="AGGAX">      1.00000000</i>
   <i name="ALDAC">      1.00000000</i>
   <i name="AGGAC">      1.00000000</i>
   <i type="int" name="NKREDX">     1</i>
   <i type="int" name="NKREDY">     1</i>
   <i type="int" name="NKREDZ">     1</i>
   <i type="logical" name="SHIFTRED"> F  </i>
   <i type="logical" name="ODDONLY"> F  </i>
   <i type="logical" name="EVENONLY"> F  </i>
   <i type="int" name="LMAXFOCK">     0</i>
   <i type="int" name="NMAXFOCKAE">     0</i>
   <i type="logical" name="LFOCKAEDFT"> F  </i>
   <i name="HFSCREEN">      0.00000000</i>
   <i name="HFSCREENC">      0.00000000</i>
   <i type="int" name="NBANDSGWLOW">     0</i>
  </separator>
  <separator name="vdW DFT" >
   <i type="logical" name="LUSE_VDW"> F  </i>
   <i name="Zab_VDW">     -0.84910000</i>
   <i name="PARAM1">      0.12340000</i>
   <i name="PARAM2">      1.00000000</i>
   <i name="PARAM3">      0.00000000</i>
  </separator>
  <separator name="model GW" >
   <i type="int" name="MODEL_GW">     0</i>
   <i name="MODEL_EPS0">     18.96138638</i>
   <i name="MODEL_ALPHA">      1.00000000</i>
  </separator>
  <separator name="linear response parameters" >
   <i type="logical" name="LEPSILON"> F  </i>
   <i type="logical" name="LRPA"> F  </i>
   <i type="logical" name="LNABLA"> F  </i>
   <i type="logical" name="LVEL"> F  </i>
   <i type="int" name="KINTER">     0</i>
   <i name="CSHIFT">      0.10000000</i>
   <i name="OMEGAMAX">     -1.00000000</i>
   <i name="DEG_THRESHOLD">      0.00200000</i>
   <i name="RTIME">     -0.10000000</i>
   <i name="WPLASMAI">      0.00000000</i>
   <v name="DFIELD">      0.00000000      0.00000000      0.00000000</v>
   <v name="WPLASMA">      0.00000000      0.00000000      0.00000000      0.00000000      0.00000000      0.00000000      0.00000000      0.00000000      0.00000000</v>
  </separator>
  <separator name="orbital magnetization" >
   <i type="logical" name="NUCIND"> F  </i>
   <v name="MAGPOS">      0.00000000      0.00000000      0.00000000</v>
   <i type="logical" name="LNICSALL"> T  </i>
   <i type="logical" name="ORBITALMAG"> F  </i>
   <i type="logical" name="LMAGBLOCH"> F  </i>
   <i type="logical" name="LCHIMAG"> F  </i>
   <i type="logical" name="LGAUGE"> T  </i>
   <i type="int" name="MAGATOM">     0</i>
   <v name="MAGDIPOL">      0.00000000      0.00000000      0.00000000</v>
   <v name="AVECCONST">      0.00000000      0.00000000      0.00000000</v>
  </separator>
  <separator name="response functions" >
   <i type="logical" name="LFINITE_TEMPERATURE"> F  </i>
   <i type="logical" name="LADDER"> F  </i>
   <i type="logical" name="LRPAFORCE"> F  </i>
   <i type="logical" name="LFXC"> F  </i>
   <i type="logical" name="LHARTREE"> T  </i>
   <i type="int" name="IBSE">     0</i>
   <v type="int" name="KPOINT">    -1     0     0     0</v>
   <i type="logical" name="LTCTC"> F  </i>
   <i type="logical" name="LTCTE"> F  </i>
   <i type="logical" name="LTETE"> F  </i>
   <i type="logical" name="LTRIPLET"> F  </i>
   <i type="logical" name="LFXCEPS"> F  </i>
   <i type="logical" name="LFXHEG"> F  </i>
   <i type="int" name="NATURALO">     2</i>
   <i type="logical" name="L2ORDER"> F  </i>
   <i type="logical" name="LDMP1"> F  </i>
   <i type="logical" name="LMP2LT"> F  </i>
   <i type="logical" name="LSMP2LT"> F  </i>
   <i type="logical" name="LUSEW"> F  </i>
   <i name="ENCUTGW">     -2.00000000</i>
   <i name="ENCUTGWSOFT">     -2.00000000</i>
   <i name="ENCUTLF">     -1.00000000</i>
   <i type="int" name="LMAXMP2">    -1</i>
   <i name="SCISSOR">      0.00000000</i>
   <i type="int" name="NOMEGA">     0</i>
   <i type="int" name="NOMEGAR">     0</i>
   <i type="int" name="NBANDSGW">    -1</i>
   <i type="int" name="NBANDSO">    -1</i>
   <i type="int" name="NBANDSV">    -1</i>
   <i type="int" name="NELM">     1</i>
   <i type="int" name="NELMHF">     1</i>
   <i type="int" name="DIM">     3</i>
   <i type="int" name="IESPILON">     4</i>
   <i type="int" name="ANTIRES">     0</i>
   <i name="OMEGAMAX">    -30.00000000</i>
   <i name="OMEGAMIN">    -30.00000000</i>
   <i name="OMEGATL">   -200.00000000</i>
   <i type="int" name="OMEGAGRID">   145</i>
   <i name="CSHIFT">     -0.10000000</i>
   <i type="logical" name="LSELFENERGY"> F  </i>
   <i type="logical" name="LSPECTRAL"> F  </i>
   <i type="logical" name="LSPECTRALGW"> F  </i>
   <i type="logical" name="LSINGLES"> F  </i>
   <i type="logical" name="LFERMIGW"> F  </i>
   <i type="logical" name="ODDONLYGW"> F  </i>
   <i type="logical" name="EVENONLYGW"> F  </i>
   <i type="int" name="NKREDLFX">     1</i>
   <i type="int" name="NKREDLFY">     1</i>
   <i type="int" name="NKREDLFZ">     1</i>
   <i type="int" name="MAXMEM">  2800</i>
   <i type="int" name="TELESCOPE">     0</i>
   <i type="int" name="NTAUPAR">     1</i>
   <i type="int" name="NOMEGAPAR">    -1</i>
   <i name="LAMBDA">      1.00000000</i>
  </separator>
  <separator name="External order field" >
   <i name="OFIELD_KAPPA">      0.00000000</i>
   <v name="OFIELD_K">      0.00000000      0.00000000      0.00000000</v>
   <i name="OFIELD_Q6_NEAR">      0.00000000</i>
   <i name="OFIELD_Q6_FAR">      0.00000000</i>
   <i name="OFIELD_A">      0.00000000</i>
  </separator>
 </parameters>
 <atominfo>
  <atoms>       3 </atoms>
  <types>       3 </types>
  <array name="atoms" >
   <dimension dim="1">ion</dimension>
   <field type="string">element</field>
   <field type="int">atomtype</field>
   <set>
    <rc><c>Th</c><c>   1</c></rc>
    <rc><c>Bi</c><c>   2</c></rc>
    <rc><c>Pt</c><c>   3</c></rc>
   </set>
  </array>
  <array name="atomtypes" >
   <dimension dim="1">type</dimension>
   <field type="int">atomspertype</field>
   <field type="string">element</field>
   <field>mass</field>
   <field>valence</field>
   <field type="string">pseudopotential</field>
   <set>
    <rc><c>   1</c><c>Th</c><c>    232.03900000</c><c>     12.00000000</c><c>  PAW_PBE Th 07Sep2000                  </c></rc>
    <rc><c>   1</c><c>Bi</c><c>    208.98000000</c><c>     15.00000000</c><c>  PAW_PBE Bi_d 06Sep2000                </c></rc>
    <rc><c>   1</c><c>Pt</c><c>    195.08000000</c><c>     10.00000000</c><c>  PAW_PBE Pt 04Feb2005                  </c></rc>
   </set>
  </array>
 </atominfo>
 <structure name="initialpos" >
  <crystal>
   <varray name="basis" >
    <v>       0.00000000       3.61912319       3.61912319 </v>
    <v>       3.61912319       0.00000000       3.61912319 </v>
    <v>       3.61912319       3.61912319       0.00000000 </v>
   </varray>
   <i name="volume">     94.80693191 </i>
   <varray name="rec_basis" >
    <v>      -0.13815501       0.13815501       0.13815501 </v>
    <v>       0.13815501      -0.13815501       0.13815501 </v>
    <v>       0.13815501       0.13815501      -0.13815501 </v>
   </varray>
  </crystal>
  <varray name="positions" >
   <v>       0.25000000       0.25000000       0.25000000 </v>
   <v>       0.75000000       0.75000000       0.75000000 </v>
   <v>       0.00000000       0.00000000       0.00000000 </v>
  </varray>
 </structure>
 <calculation>
  <scstep>
   <time name="dav">    1.71    1.72</time>
   <time name="total">    1.90    2.01</time>
   <energy>
    <i name="alphaZ">    181.22686425 </i>
    <i name="ewald">  -2959.88276170 </i>
    <i name="hartreedc">   -832.06871588 </i>
    <i name="XCdc">     66.67587829 </i>
    <i name="pawpsdc">   3147.30828992 </i>
    <i name="pawaedc">  -3070.62761383 </i>
    <i name="eentropy">     -0.00024119 </i>
    <i name="bandstr">    226.45592923 </i>
    <i name="atom">   3674.67342263 </i>
    <i name="e_fr_energy">    433.76105173 </i>
    <i name="e_wo_entrp">    433.76129292 </i>
    <i name="e_0_energy">    433.76117232 </i>
   </energy>
  </scstep>
  <scstep>
   <time name="dav">    1.81    1.84</time>
   <time name="total">    1.81    1.84</time>
   <energy>
    <i name="e_fr_energy">     43.14463985 </i>
    <i name="e_wo_entrp">     43.14483175 </i>
    <i name="e_0_energy">     43.14473580 </i>
   </energy>
  </scstep>
  <scstep>
   <time name="dav">    2.11    2.14</time>
   <time name="total">    2.11    2.14</time>
   <energy>
    <i name="e_fr_energy">    -18.18563684 </i>
    <i name="e_wo_entrp">    -18.18545281 </i>
    <i name="e_0_energy">    -18.18554482 </i>
   </energy>
  </scstep>
  <scstep>
   <time name="dav">    2.71    2.73</time>
   <time name="total">    2.71    2.74</time>
   <energy>
    <i name="e_fr_energy">    -22.40616866 </i>
    <i name="e_wo_entrp">    -22.40597849 </i>
    <i name="e_0_energy">    -22.40607357 </i>
   </energy>
  </scstep>
  <scstep>
   <time name="dav">    2.13    2.16</time>
   <time name="total">    2.59    2.62</time>
   <energy>
    <i name="e_fr_energy">    -22.53357973 </i>
    <i name="e_wo_entrp">    -22.53339011 </i>
    <i name="e_0_energy">    -22.53348492 </i>
   </energy>
  </scstep>
  <scstep>
   <time name="dav">    2.02    2.02</time>
   <time name="total">    2.60    2.63</time>
   <energy>
    <i name="e_fr_energy">    -21.40266144 </i>
    <i name="e_wo_entrp">    -21.40225289 </i>
    <i name="e_0_energy">    -21.40245716 </i>
   </energy>
  </scstep>
  <scstep>
   <time name="dav">    2.32    2.33</time>
   <time name="total">    2.87    2.90</time>
   <energy>
    <i name="e_fr_energy">    -21.29654677 </i>
    <i name="e_wo_entrp">    -21.29631721 </i>
    <i name="e_0_energy">    -21.29643199 </i>
   </energy>
  </scstep>
  <scstep>
   <time name="dav">    2.03    2.03</time>
   <time name="total">    2.57    2.60</time>
   <energy>
    <i name="e_fr_energy">    -21.25083460 </i>
    <i name="e_wo_entrp">    -21.25052568 </i>
    <i name="e_0_energy">    -21.25068014 </i>
   </energy>
  </scstep>
  <scstep>
   <time name="dav">    2.16    2.16</time>
   <time name="total">    2.72    2.77</time>
   <energy>
    <i name="e_fr_energy">    -21.24817781 </i>
    <i name="e_wo_entrp">    -21.24793714 </i>
    <i name="e_0_energy">    -21.24805747 </i>
   </energy>
  </scstep>
  <scstep>
   <time name="dav">    2.20    2.20</time>
   <time name="total">    2.74    2.79</time>
   <energy>
    <i name="e_fr_energy">    -21.22387420 </i>
    <i name="e_wo_entrp">    -21.22346053 </i>
    <i name="e_0_energy">    -21.22366737 </i>
   </energy>
  </scstep>
  <scstep>
   <time name="dav">    2.43    2.43</time>
   <time name="total">    2.97    3.01</time>
   <energy>
    <i name="e_fr_energy">    -21.22135244 </i>
    <i name="e_wo_entrp">    -21.22082557 </i>
    <i name="e_0_energy">    -21.22108901 </i>
   </energy>
  </scstep>
  <scstep>
   <time name="dav">    2.30    2.30</time>
   <time name="total">    2.85    2.89</time>
   <energy>
    <i name="e_fr_energy">    -21.22136652 </i>
    <i name="e_wo_entrp">    -21.22083530 </i>
    <i name="e_0_energy">    -21.22110091 </i>
   </energy>
  </scstep>
  <scstep>
   <time name="dav">    2.08    2.08</time>
   <time name="total">    2.62    2.70</time>
   <energy>
    <i name="e_fr_energy">    -21.22134119 </i>
    <i name="e_wo_entrp">    -21.22081514 </i>
    <i name="e_0_energy">    -21.22107816 </i>
   </energy>
  </scstep>
  <scstep>
   <time name="dav">    2.25    2.25</time>
   <time name="total">    2.80    2.83</time>
   <energy>
    <i name="e_fr_energy">    -21.22132997 </i>
    <i name="e_wo_entrp">    -21.22081080 </i>
    <i name="e_0_energy">    -21.22107038 </i>
   </energy>
  </scstep>
  <scstep>
   <time name="dav">    2.46    2.46</time>
   <time name="total">    3.01    3.05</time>
   <energy>
    <i name="e_fr_energy">    -21.22133058 </i>
    <i name="e_wo_entrp">    -21.22081097 </i>
    <i name="e_0_energy">    -21.22107078 </i>
   </energy>
  </scstep>
  <scstep>
   <time name="dav">    2.22    2.23</time>
   <time name="total">    2.77    2.83</time>
   <energy>
    <i name="e_fr_energy">    -21.22133039 </i>
    <i name="e_wo_entrp">    -21.22081013 </i>
    <i name="e_0_energy">    -21.22107026 </i>
   </energy>
  </scstep>
  <scstep>
   <time name="dav">    1.92    1.92</time>
   <time name="total">    2.09    2.11</time>
   <energy>
    <i name="alphaZ">    181.22686425 </i>
    <i name="ewald">  -2959.88276170 </i>
    <i name="hartreedc">   -806.87286677 </i>
    <i name="XCdc">     65.98200377 </i>
    <i name="pawpsdc">   3586.91235956 </i>
    <i name="pawaedc">  -3517.28201717 </i>
    <i name="eentropy">     -0.00052076 </i>
    <i name="bandstr">   -245.97781423 </i>
    <i name="atom">   3674.67342263 </i>
    <i name="e_fr_energy">    -21.22133041 </i>
    <i name="e_wo_entrp">    -21.22080966 </i>
    <i name="e_0_energy">    -21.22107003 </i>
   </energy>
  </scstep>
  <structure>
   <crystal>
    <varray name="basis" >
     <v>       0.00000000       3.61912319       3.61912319 </v>
     <v>       3.61912319       0.00000000       3.61912319 </v>
     <v>       3.61912319       3.61912319       0.00000000 </v>
    </varray>
    <i name="volume">     94.80693191 </i>
    <varray name="rec_basis" >
     <v>      -0.13815501       0.13815501       0.13815501 </v>
     <v>       0.13815501      -0.13815501       0.13815501 </v>
     <v>       0.13815501       0.13815501      -0.13815501 </v>
    </varray>
   </crystal>
   <varray name="positions" >
    <v>       0.25000000       0.25000000       0.25000000 </v>
    <v>       0.75000000       0.75000000       0.75000000 </v>
    <v>       0.00000000       0.00000000       0.00000000 </v>
   </varray>
  </structure>
  <varray name="forces" >
   <v>       0.00000000       0.00000000       0.00000000 </v>
   <v>      -0.00000000      -0.00000000      -0.00000000 </v>
   <v>       0.00000000       0.00000000       0.00000000 </v>
  </varray>
  <varray name="stress" >
   <v>    -119.30844567       0.00000000      -0.00000000 </v>
   <v>       0.00000000    -119.30844567       0.00000000 </v>
   <v>       0.00000000      -0.00000000    -119.30844567 </v>
  </varray>
  <energy>
   <i name="e_fr_energy">    -21.22133041 </i>
   <i name="e_wo_entrp">    -21.22107003 </i>
   <i name="e_0_energy">     -0.00052076 </i>
  </energy>
  <time name="totalsc">   48.46   49.82</time>
  <eigenvalues>
   <array>
    <dimension dim="1">band</dimension>
    <dimension dim="2">kpoint</dimension>
    <dimension dim="3">spin</dimension>
    <field>eigene</field>
    <field>occ</field>
    <set>
     <set comment="spin 1">
      <set comment="kpoint 1">
       <r>  -33.9293    1.0000 </r>
       <r>  -16.0987    1.0000 </r>
       <r>  -16.0987    1.0000 </r>
       <r>  -16.0755    1.0000 </r>
       <r>  -16.0755    1.0000 </r>
       <r>  -16.0755    1.0000 </r>
       <r>  -11.7211    1.0000 </r>
       <r>  -11.7211    1.0000 </r>
       <r>  -11.7211    1.0000 </r>
       <r>   -4.8070    1.0000 </r>
       <r>    2.9754    1.0000 </r>
       <r>    2.9754    1.0000 </r>
       <r>    2.9754    1.0000 </r>
       <r>    3.2867    1.0000 </r>
       <r>    3.2867    1.0000 </r>
       <r>    4.2574    1.0000 </r>
       <r>    5.8069    1.0000 </r>
       <r>    5.8069    1.0000 </r>
       <r>    5.8069    1.0000 </r>
       <r>    6.9200    0.0000 </r>
       <r>    6.9200    0.0000 </r>
       <r>    6.9200    0.0000 </r>
       <r>    7.5379    0.0000 </r>
       <r>    8.1731    0.0000 </r>
      </set>
      <set comment="kpoint 2">
       <r>  -33.9292    1.0000 </r>
       <r>  -16.0990    1.0000 </r>
       <r>  -16.0990    1.0000 </r>
       <r>  -16.0755    1.0000 </r>
       <r>  -16.0754    1.0000 </r>
       <r>  -16.0754    1.0000 </r>
       <r>  -11.7277    1.0000 </r>
       <r>  -11.7204    1.0000 </r>
       <r>  -11.7204    1.0000 </r>
       <r>   -4.7710    1.0000 </r>
       <r>    2.8209    1.0000 </r>
       <r>    2.9137    1.0000 </r>
       <r>    2.9137    1.0000 </r>
       <r>    3.3451    1.0000 </r>
       <r>    3.3451    1.0000 </r>
       <r>    4.2298    1.0000 </r>
       <r>    5.7312    1.0000 </r>
       <r>    5.7312    1.0000 </r>
       <r>    5.8047    1.0000 </r>
       <r>    6.9848    0.0000 </r>
       <r>    6.9994    0.0000 </r>
       <r>    6.9994    0.0000 </r>
       <r>    7.6906    0.0000 </r>
       <r>    8.1831    0.0000 </r>
      </set>
      <set comment="kpoint 3">
       <r>  -33.9289    1.0000 </r>
       <r>  -16.0998    1.0000 </r>
       <r>  -16.0998    1.0000 </r>
       <r>  -16.0757    1.0000 </r>
       <r>  -16.0752    1.0000 </r>
       <r>  -16.0752    1.0000 </r>
       <r>  -11.7458    1.0000 </r>
       <r>  -11.7186    1.0000 </r>
       <r>  -11.7186    1.0000 </r>
       <r>   -4.6707    1.0000 </r>
       <r>    2.4746    1.0000 </r>
       <r>    2.8081    1.0000 </r>
       <r>    2.8081    1.0000 </r>
       <r>    3.4344    1.0000 </r>
       <r>    3.4344    1.0000 </r>
       <r>    4.0841    1.0000 </r>
       <r>    5.5692    1.0000 </r>
       <r>    5.5692    1.0000 </r>
       <r>    5.8308    1.0000 </r>
       <r>    7.1846    0.0000 </r>
       <r>    7.1846    0.0000 </r>
       <r>    7.2632    0.0000 </r>
       <r>    7.9454    0.0000 </r>
       <r>    8.2054    0.0000 </r>
      </set>
      <set comment="kpoint 4">
       <r>  -33.9285    1.0000 </r>
       <r>  -16.1010    1.0000 </r>
       <r>  -16.1010    1.0000 </r>
       <r>  -16.0759    1.0000 </r>
       <r>  -16.0749    1.0000 </r>
       <r>  -16.0749    1.0000 </r>
       <r>  -11.7707    1.0000 </r>
       <r>  -11.7161    1.0000 </r>
       <r>  -11.7161    1.0000 </r>
       <r>   -4.5277    1.0000 </r>
       <r>    2.0923    1.0000 </r>
       <r>    2.7210    1.0000 </r>
       <r>    2.7210    1.0000 </r>
       <r>    3.4789    1.0000 </r>
       <r>    3.4789    1.0000 </r>
       <r>    3.8488    1.0000 </r>
       <r>    5.4148    1.0000 </r>
       <r>    5.4148    1.0000 </r>
       <r>    5.9074    1.0000 </r>
       <r>    7.4019    0.0000 </r>
       <r>    7.4019    0.0000 </r>
       <r>    7.6848    0.0000 </r>
       <r>    8.1243    0.0000 </r>
       <r>    8.2161    0.0000 </r>
      </set>
      <set comment="kpoint 5">
       <r>  -33.9281    1.0000 </r>
       <r>  -16.1022    1.0000 </r>
       <r>  -16.1022    1.0000 </r>
       <r>  -16.0761    1.0000 </r>
       <r>  -16.0746    1.0000 </r>
       <r>  -16.0746    1.0000 </r>
       <r>  -11.7961    1.0000 </r>
       <r>  -11.7135    1.0000 </r>
       <r>  -11.7135    1.0000 </r>
       <r>   -4.3736    1.0000 </r>
       <r>    1.7567    1.0000 </r>
       <r>    2.6686    1.0000 </r>
       <r>    2.6686    1.0000 </r>
       <r>    3.4607    1.0000 </r>
       <r>    3.4607    1.0000 </r>
       <r>    3.6266    1.0000 </r>
       <r>    5.3133    1.0000 </r>
       <r>    5.3133    1.0000 </r>
       <r>    6.0262    1.0000 </r>
       <r>    7.6007    0.0000 </r>
       <r>    7.6007    0.0000 </r>
       <r>    8.0511    0.0000 </r>
       <r>    8.1824    0.0000 </r>
       <r>    8.1834    0.0000 </r>
      </set>
      <set comment="kpoint 6">
       <r>  -33.9277    1.0000 </r>
       <r>  -16.1032    1.0000 </r>
       <r>  -16.1032    1.0000 </r>
       <r>  -16.0763    1.0000 </r>
       <r>  -16.0743    1.0000 </r>
       <r>  -16.0743    1.0000 </r>
       <r>  -11.8166    1.0000 </r>
       <r>  -11.7113    1.0000 </r>
       <r>  -11.7113    1.0000 </r>
       <r>   -4.2440    1.0000 </r>
       <r>    1.5117    1.0000 </r>
       <r>    2.6490    1.0000 </r>
       <r>    2.6490    1.0000 </r>
       <r>    3.4037    1.0000 </r>
       <r>    3.4037    1.0000 </r>
       <r>    3.4723    1.0000 </r>
       <r>    5.2648    1.0000 </r>
       <r>    5.2648    1.0000 </r>
       <r>    6.1707    1.0000 </r>
       <r>    7.7433    0.0000 </r>
       <r>    7.7433    0.0000 </r>
       <r>    8.1472    0.0000 </r>
       <r>    8.1472    0.0000 </r>
       <r>    8.1877    0.0000 </r>
      </set>
      <set comment="kpoint 7">
       <r>  -33.9275    1.0000 </r>
       <r>  -16.1038    1.0000 </r>
       <r>  -16.1038    1.0000 </r>
       <r>  -16.0765    1.0000 </r>
       <r>  -16.0742    1.0000 </r>
       <r>  -16.0742    1.0000 </r>
       <r>  -11.8279    1.0000 </r>
       <r>  -11.7100    1.0000 </r>
       <r>  -11.7100    1.0000 </r>
       <r>   -4.1701    1.0000 </r>
       <r>    1.3829    1.0000 </r>
       <r>    2.6476    1.0000 </r>
       <r>    2.6476    1.0000 </r>
       <r>    3.3557    1.0000 </r>
       <r>    3.3557    1.0000 </r>
       <r>    3.3968    1.0000 </r>
       <r>    5.2485    1.0000 </r>
       <r>    5.2485    1.0000 </r>
       <r>    6.2877    1.0000 </r>
       <r>    7.8153    0.0000 </r>
       <r>    7.8153    0.0000 </r>
       <r>    8.1251    0.0000 </r>
       <r>    8.1252    0.0000 </r>
       <r>    8.1545    0.0000 </r>
      </set>
      <set comment="kpoint 8">
       <r>  -33.9292    1.0000 </r>
       <r>  -16.0995    1.0000 </r>
       <r>  -16.0986    1.0000 </r>
       <r>  -16.0756    1.0000 </r>
       <r>  -16.0754    1.0000 </r>
       <r>  -16.0754    1.0000 </r>
       <r>  -11.7260    1.0000 </r>
       <r>  -11.7222    1.0000 </r>
       <r>  -11.7222    1.0000 </r>
       <r>   -4.7599    1.0000 </r>
       <r>    2.6571    1.0000 </r>
       <r>    2.9894    1.0000 </r>
       <r>    2.9894    1.0000 </r>
       <r>    3.3014    1.0000 </r>
       <r>    3.3571    1.0000 </r>
       <r>    4.2375    1.0000 </r>
       <r>    5.6310    1.0000 </r>
       <r>    5.6310    1.0000 </r>
       <r>    5.9855    1.0000 </r>
       <r>    6.7638    0.0000 </r>
       <r>    7.1282    0.0000 </r>
       <r>    7.1282    0.0000 </r>
       <r>    7.7175    0.0000 </r>
       <r>    8.1779    0.0000 </r>
      </set>
      <set comment="kpoint 9">
       <r>  -33.9289    1.0000 </r>
       <r>  -16.1004    1.0000 </r>
       <r>  -16.0988    1.0000 </r>
       <r>  -16.0758    1.0000 </r>
       <r>  -16.0752    1.0000 </r>
       <r>  -16.0752    1.0000 </r>
       <r>  -11.7395    1.0000 </r>
       <r>  -11.7226    1.0000 </r>
       <r>  -11.7200    1.0000 </r>
       <r>   -4.6839    1.0000 </r>
       <r>    2.3872    1.0000 </r>
       <r>    2.9013    1.0000 </r>
       <r>    2.9490    1.0000 </r>
       <r>    3.3586    1.0000 </r>
       <r>    3.4204    1.0000 </r>
       <r>    4.1585    1.0000 </r>
       <r>    5.4481    1.0000 </r>
       <r>    5.4759    1.0000 </r>
       <r>    6.1259    1.0000 </r>
       <r>    6.7764    0.0000 </r>
       <r>    7.3155    0.0000 </r>
       <r>    7.3461    0.0000 </r>
       <r>    7.9086    0.0000 </r>
       <r>    8.1729    0.0000 </r>
      </set>
      <set comment="kpoint 10">
       <r>  -33.9286    1.0000 </r>
       <r>  -16.1016    1.0000 </r>
       <r>  -16.0995    1.0000 </r>
       <r>  -16.0759    1.0000 </r>
       <r>  -16.0750    1.0000 </r>
       <r>  -16.0749    1.0000 </r>
       <r>  -11.7619    1.0000 </r>
       <r>  -11.7215    1.0000 </r>
       <r>  -11.7169    1.0000 </r>
       <r>   -4.5595    1.0000 </r>
       <r>    2.0915    1.0000 </r>
       <r>    2.7498    1.0000 </r>
       <r>    2.8716    1.0000 </r>
       <r>    3.4163    1.0000 </r>
       <r>    3.4914    1.0000 </r>
       <r>    3.9613    1.0000 </r>
       <r>    5.2684    1.0000 </r>
       <r>    5.3407    1.0000 </r>
       <r>    6.1908    1.0000 </r>
       <r>    7.0430    0.0000 </r>
       <r>    7.5024    0.0000 </r>
       <r>    7.6386    0.0000 </r>
       <r>    8.0898    0.0000 </r>
       <r>    8.1720    0.0000 </r>
      </set>
      <set comment="kpoint 11">
       <r>  -33.9281    1.0000 </r>
       <r>  -16.1026    1.0000 </r>
       <r>  -16.1007    1.0000 </r>
       <r>  -16.0761    1.0000 </r>
       <r>  -16.0747    1.0000 </r>
       <r>  -16.0746    1.0000 </r>
       <r>  -11.7868    1.0000 </r>
       <r>  -11.7191    1.0000 </r>
       <r>  -11.7144    1.0000 </r>
       <r>   -4.4147    1.0000 </r>
       <r>    1.8114    1.0000 </r>
       <r>    2.6438    1.0000 </r>
       <r>    2.8051    1.0000 </r>
       <r>    3.4180    1.0000 </r>
       <r>    3.5075    1.0000 </r>
       <r>    3.7299    1.0000 </r>
       <r>    5.1614    1.0000 </r>
       <r>    5.2593    1.0000 </r>
       <r>    6.2153    1.0000 </r>
       <r>    7.3925    0.0000 </r>
       <r>    7.6618    0.0000 </r>
       <r>    7.9472    0.0000 </r>
       <r>    8.1670    0.0000 </r>
       <r>    8.1812    0.0000 </r>
      </set>
      <set comment="kpoint 12">
       <r>  -33.9278    1.0000 </r>
       <r>  -16.1033    1.0000 </r>
       <r>  -16.1020    1.0000 </r>
       <r>  -16.0762    1.0000 </r>
       <r>  -16.0745    1.0000 </r>
       <r>  -16.0743    1.0000 </r>
       <r>  -11.8085    1.0000 </r>
       <r>  -11.7161    1.0000 </r>
       <r>  -11.7132    1.0000 </r>
       <r>   -4.2826    1.0000 </r>
       <r>    1.5884    1.0000 </r>
       <r>    2.6006    1.0000 </r>
       <r>    2.7522    1.0000 </r>
       <r>    3.3815    1.0000 </r>
       <r>    3.4647    1.0000 </r>
       <r>    3.5470    1.0000 </r>
       <r>    5.1148    1.0000 </r>
       <r>    5.2257    1.0000 </r>
       <r>    6.2799    1.0000 </r>
       <r>    7.6445    0.0000 </r>
       <r>    7.7755    0.0000 </r>
       <r>    8.1045    0.0000 </r>
       <r>    8.1480    0.0000 </r>
       <r>    8.2088    0.0000 </r>
      </set>
      <set comment="kpoint 13">
       <r>  -33.9275    1.0000 </r>
       <r>  -16.1036    1.0000 </r>
       <r>  -16.1031    1.0000 </r>
       <r>  -16.0764    1.0000 </r>
       <r>  -16.0743    1.0000 </r>
       <r>  -16.0741    1.0000 </r>
       <r>  -11.8226    1.0000 </r>
       <r>  -11.7135    1.0000 </r>
       <r>  -11.7130    1.0000 </r>
       <r>   -4.1939    1.0000 </r>
       <r>    1.4511    1.0000 </r>
       <r>    2.6122    1.0000 </r>
       <r>    2.6995    1.0000 </r>
       <r>    3.3582    1.0000 </r>
       <r>    3.4013    1.0000 </r>
       <r>    3.4365    1.0000 </r>
       <r>    5.1003    1.0000 </r>
       <r>    5.2171    1.0000 </r>
       <r>    6.3737    1.0000 </r>
       <r>    7.7612    0.0000 </r>
       <r>    7.8362    0.0000 </r>
       <r>    8.1020    0.0000 </r>
       <r>    8.1233    0.0000 </r>
       <r>    8.1992    0.0000 </r>
      </set>
      <set comment="kpoint 14">
       <r>  -33.9274    1.0000 </r>
       <r>  -16.1037    1.0000 </r>
       <r>  -16.1033    1.0000 </r>
       <r>  -16.0764    1.0000 </r>
       <r>  -16.0742    1.0000 </r>
       <r>  -16.0741    1.0000 </r>
       <r>  -11.8262    1.0000 </r>
       <r>  -11.7151    1.0000 </r>
       <r>  -11.7107    1.0000 </r>
       <r>   -4.1697    1.0000 </r>
       <r>    1.4151    1.0000 </r>
       <r>    2.6405    1.0000 </r>
       <r>    2.6597    1.0000 </r>
       <r>    3.3569    1.0000 </r>
       <r>    3.3831    1.0000 </r>
       <r>    3.4029    1.0000 </r>
       <r>    5.0909    1.0000 </r>
       <r>    5.2201    1.0000 </r>
       <r>    6.4159    1.0000 </r>
       <r>    7.7886    0.0000 </r>
       <r>    7.8361    0.0000 </r>
       <r>    8.1073    0.0000 </r>
       <r>    8.1107    0.0000 </r>
       <r>    8.1803    0.0000 </r>
      </set>
      <set comment="kpoint 15">
       <r>  -33.9276    1.0000 </r>
       <r>  -16.1038    1.0000 </r>
       <r>  -16.1026    1.0000 </r>
       <r>  -16.0763    1.0000 </r>
       <r>  -16.0743    1.0000 </r>
       <r>  -16.0742    1.0000 </r>
       <r>  -11.8188    1.0000 </r>
       <r>  -11.7177    1.0000 </r>
       <r>  -11.7096    1.0000 </r>
       <r>   -4.2157    1.0000 </r>
       <r>    1.4854    1.0000 </r>
       <r>    2.5901    1.0000 </r>
       <r>    2.7222    1.0000 </r>
       <r>    3.3462    1.0000 </r>
       <r>    3.4483    1.0000 </r>
       <r>    3.4582    1.0000 </r>
       <r>    5.0715    1.0000 </r>
       <r>    5.2395    1.0000 </r>
       <r>    6.3593    1.0000 </r>
       <r>    7.7611    0.0000 </r>
       <r>    7.7893    0.0000 </r>
       <r>    8.1172    0.0000 </r>
       <r>    8.1201    0.0000 </r>
       <r>    8.2102    0.0000 </r>
      </set>
      <set comment="kpoint 16">
       <r>  -33.9279    1.0000 </r>
       <r>  -16.1033    1.0000 </r>
       <r>  -16.1015    1.0000 </r>
       <r>  -16.0761    1.0000 </r>
       <r>  -16.0745    1.0000 </r>
       <r>  -16.0745    1.0000 </r>
       <r>  -11.8018    1.0000 </r>
       <r>  -11.7206    1.0000 </r>
       <r>  -11.7100    1.0000 </r>
       <r>   -4.3210    1.0000 </r>
       <r>    1.6579    1.0000 </r>
       <r>    2.5703    1.0000 </r>
       <r>    2.7901    1.0000 </r>
       <r>    3.3741    1.0000 </r>
       <r>    3.5166    1.0000 </r>
       <r>    3.5928    1.0000 </r>
       <r>    5.0475    1.0000 </r>
       <r>    5.2942    1.0000 </r>
       <r>    6.2735    1.0000 </r>
       <r>    7.6070    0.0000 </r>
       <r>    7.7118    0.0000 </r>
       <r>    8.0923    0.0000 </r>
       <r>    8.1418    0.0000 </r>
       <r>    8.2144    0.0000 </r>
      </set>
      <set comment="kpoint 17">
       <r>  -33.9283    1.0000 </r>
       <r>  -16.1023    1.0000 </r>
       <r>  -16.1004    1.0000 </r>
       <r>  -16.0760    1.0000 </r>
       <r>  -16.0748    1.0000 </r>
       <r>  -16.0747    1.0000 </r>
       <r>  -11.7787    1.0000 </r>
       <r>  -11.7231    1.0000 </r>
       <r>  -11.7117    1.0000 </r>
       <r>   -4.4610    1.0000 </r>
       <r>    1.9178    1.0000 </r>
       <r>    2.5955    1.0000 </r>
       <r>    2.8686    1.0000 </r>
       <r>    3.3967    1.0000 </r>
       <r>    3.5475    1.0000 </r>
       <r>    3.7980    1.0000 </r>
       <r>    5.0553    1.0000 </r>
       <r>    5.4028    1.0000 </r>
       <r>    6.2134    1.0000 </r>
       <r>    7.3928    0.0000 </r>
       <r>    7.4993    0.0000 </r>
       <r>    7.8714    0.0000 </r>
       <r>    8.1657    0.0000 </r>
       <r>    8.1746    0.0000 </r>
      </set>
      <set comment="kpoint 18">
       <r>  -33.9287    1.0000 </r>
       <r>  -16.1011    1.0000 </r>
       <r>  -16.0995    1.0000 </r>
       <r>  -16.0758    1.0000 </r>
       <r>  -16.0751    1.0000 </r>
       <r>  -16.0750    1.0000 </r>
       <r>  -11.7546    1.0000 </r>
       <r>  -11.7244    1.0000 </r>
       <r>  -11.7145    1.0000 </r>
       <r>   -4.6029    1.0000 </r>
       <r>    2.2373    1.0000 </r>
       <r>    2.6694    1.0000 </r>
       <r>    2.9568    1.0000 </r>
       <r>    3.3705    1.0000 </r>
       <r>    3.5196    1.0000 </r>
       <r>    4.0235    1.0000 </r>
       <r>    5.1624    1.0000 </r>
       <r>    5.5573    1.0000 </r>
       <r>    6.1502    1.0000 </r>
       <r>    7.1628    0.0000 </r>
       <r>    7.1705    0.0000 </r>
       <r>    7.6120    0.0000 </r>
       <r>    8.0396    0.0000 </r>
       <r>    8.1725    0.0000 </r>
      </set>
      <set comment="kpoint 19">
       <r>  -33.9290    1.0000 </r>
       <r>  -16.0999    1.0000 </r>
       <r>  -16.0990    1.0000 </r>
       <r>  -16.0756    1.0000 </r>
       <r>  -16.0753    1.0000 </r>
       <r>  -16.0753    1.0000 </r>
       <r>  -11.7359    1.0000 </r>
       <r>  -11.7235    1.0000 </r>
       <r>  -11.7177    1.0000 </r>
       <r>   -4.7145    1.0000 </r>
       <r>    2.5684    1.0000 </r>
       <r>    2.7840    1.0000 </r>
       <r>    3.0014    1.0000 </r>
       <r>    3.3262    1.0000 </r>
       <r>    3.4410    1.0000 </r>
       <r>    4.1762    1.0000 </r>
       <r>    5.4209    1.0000 </r>
       <r>    5.6987    1.0000 </r>
       <r>    5.9898    1.0000 </r>
       <r>    6.9590    0.0000 </r>
       <r>    7.0134    0.0000 </r>
       <r>    7.3284    0.0000 </r>
       <r>    7.8470    0.0000 </r>
       <r>    8.1894    0.0000 </r>
      </set>
      <set comment="kpoint 20">
       <r>  -33.9288    1.0000 </r>
       <r>  -16.1012    1.0000 </r>
       <r>  -16.0983    1.0000 </r>
       <r>  -16.0760    1.0000 </r>
       <r>  -16.0750    1.0000 </r>
       <r>  -16.0750    1.0000 </r>
       <r>  -11.7396    1.0000 </r>
       <r>  -11.7254    1.0000 </r>
       <r>  -11.7254    1.0000 </r>
       <r>   -4.6396    1.0000 </r>
       <r>    2.1513    1.0000 </r>
       <r>    3.0225    1.0000 </r>
       <r>    3.0225    1.0000 </r>
       <r>    3.3426    1.0000 </r>
       <r>    3.3520    1.0000 </r>
       <r>    4.1776    1.0000 </r>
       <r>    5.3417    1.0000 </r>
       <r>    5.3417    1.0000 </r>
       <r>    6.2679    1.0000 </r>
       <r>    6.6198    0.9688 </r>
       <r>    7.4813    0.0000 </r>
       <r>    7.4813    0.0000 </r>
       <r>    7.9773    0.0000 </r>
       <r>    8.1630    0.0000 </r>
      </set>
      <set comment="kpoint 21">
       <r>  -33.9285    1.0000 </r>
       <r>  -16.1020    1.0000 </r>
       <r>  -16.0984    1.0000 </r>
       <r>  -16.0762    1.0000 </r>
       <r>  -16.0748    1.0000 </r>
       <r>  -16.0747    1.0000 </r>
       <r>  -11.7556    1.0000 </r>
       <r>  -11.7264    1.0000 </r>
       <r>  -11.7240    1.0000 </r>
       <r>   -4.5490    1.0000 </r>
       <r>    1.9340    1.0000 </r>
       <r>    2.9292    1.0000 </r>
       <r>    3.0001    1.0000 </r>
       <r>    3.3848    1.0000 </r>
       <r>    3.3946    1.0000 </r>
       <r>    4.0766    1.0000 </r>
       <r>    5.1451    1.0000 </r>
       <r>    5.2295    1.0000 </r>
       <r>    6.4650    1.0000 </r>
       <r>    6.6689    0.0000 </r>
       <r>    7.6286    0.0000 </r>
       <r>    7.6693    0.0000 </r>
       <r>    8.0969    0.0000 </r>
       <r>    8.1571    0.0000 </r>
      </set>
      <set comment="kpoint 22">
       <r>  -33.9281    1.0000 </r>
       <r>  -16.1026    1.0000 </r>
       <r>  -16.0992    1.0000 </r>
       <r>  -16.0763    1.0000 </r>
       <r>  -16.0746    1.0000 </r>
       <r>  -16.0744    1.0000 </r>
       <r>  -11.7774    1.0000 </r>
       <r>  -11.7255    1.0000 </r>
       <r>  -11.7219    1.0000 </r>
       <r>   -4.4335    1.0000 </r>
       <r>    1.7654    1.0000 </r>
       <r>    2.7670    1.0000 </r>
       <r>    2.9429    1.0000 </r>
       <r>    3.4039    1.0000 </r>
       <r>    3.4602    1.0000 </r>
       <r>    3.8853    1.0000 </r>
       <r>    4.9483    1.0000 </r>
       <r>    5.1692    1.0000 </r>
       <r>    6.4965    1.0000 </r>
       <r>    7.0735    0.0000 </r>
       <r>    7.7444    0.0000 </r>
       <r>    7.8781    0.0000 </r>
       <r>    8.1491    0.0000 </r>
       <r>    8.1764    0.0000 </r>
      </set>
      <set comment="kpoint 23">
       <r>  -33.9277    1.0000 </r>
       <r>  -16.1028    1.0000 </r>
       <r>  -16.1004    1.0000 </r>
       <r>  -16.0763    1.0000 </r>
       <r>  -16.0745    1.0000 </r>
       <r>  -16.0741    1.0000 </r>
       <r>  -11.7978    1.0000 </r>
       <r>  -11.7228    1.0000 </r>
       <r>  -11.7219    1.0000 </r>
       <r>   -4.3200    1.0000 </r>
       <r>    1.6509    1.0000 </r>
       <r>    2.6495    1.0000 </r>
       <r>    2.8726    1.0000 </r>
       <r>    3.3914    1.0000 </r>
       <r>    3.4720    1.0000 </r>
       <r>    3.6830    1.0000 </r>
       <r>    4.8427    1.0000 </r>
       <r>    5.1507    1.0000 </r>
       <r>    6.4850    1.0000 </r>
       <r>    7.5038    0.0000 </r>
       <r>    7.8281    0.0000 </r>
       <r>    8.0404    0.0000 </r>
       <r>    8.1352    0.0000 </r>
       <r>    8.2130    0.0000 </r>
      </set>
      <set comment="kpoint 24">
       <r>  -33.9275    1.0000 </r>
       <r>  -16.1027    1.0000 </r>
       <r>  -16.1017    1.0000 </r>
       <r>  -16.0763    1.0000 </r>
       <r>  -16.0744    1.0000 </r>
       <r>  -16.0739    1.0000 </r>
       <r>  -11.8122    1.0000 </r>
       <r>  -11.7239    1.0000 </r>
       <r>  -11.7190    1.0000 </r>
       <r>   -4.2337    1.0000 </r>
       <r>    1.5825    1.0000 </r>
       <r>    2.6071    1.0000 </r>
       <r>    2.7825    1.0000 </r>
       <r>    3.3922    1.0000 </r>
       <r>    3.4287    1.0000 </r>
       <r>    3.5417    1.0000 </r>
       <r>    4.8018    1.0000 </r>
       <r>    5.1476    1.0000 </r>
       <r>    6.5315    1.0000 </r>
       <r>    7.6923    0.0000 </r>
       <r>    7.8800    0.0000 </r>
       <r>    8.0745    0.0000 </r>
       <r>    8.1137    0.0000 </r>
       <r>    8.2259    0.0000 </r>
      </set>
      <set comment="kpoint 25">
       <r>  -33.9273    1.0000 </r>
       <r>  -16.1029    1.0000 </r>
       <r>  -16.1022    1.0000 </r>
       <r>  -16.0762    1.0000 </r>
       <r>  -16.0744    1.0000 </r>
       <r>  -16.0739    1.0000 </r>
       <r>  -11.8179    1.0000 </r>
       <r>  -11.7275    1.0000 </r>
       <r>  -11.7148    1.0000 </r>
       <r>   -4.1931    1.0000 </r>
       <r>    1.5515    1.0000 </r>
       <r>    2.6395    1.0000 </r>
       <r>    2.6785    1.0000 </r>
       <r>    3.3738    1.0000 </r>
       <r>    3.4336    1.0000 </r>
       <r>    3.4793    1.0000 </r>
       <r>    4.7787    1.0000 </r>
       <r>    5.1478    1.0000 </r>
       <r>    6.6039    1.0000 </r>
       <r>    7.6979    0.0000 </r>
       <r>    7.8899    0.0000 </r>
       <r>    8.0938    0.0000 </r>
       <r>    8.1024    0.0000 </r>
       <r>    8.2079    0.0000 </r>
      </set>
      <set comment="kpoint 26">
       <r>  -33.9274    1.0000 </r>
       <r>  -16.1036    1.0000 </r>
       <r>  -16.1015    1.0000 </r>
       <r>  -16.0761    1.0000 </r>
       <r>  -16.0745    1.0000 </r>
       <r>  -16.0740    1.0000 </r>
       <r>  -11.8142    1.0000 </r>
       <r>  -11.7314    1.0000 </r>
       <r>  -11.7114    1.0000 </r>
       <r>   -4.2067    1.0000 </r>
       <r>    1.5601    1.0000 </r>
       <r>    2.5853    1.0000 </r>
       <r>    2.7283    1.0000 </r>
       <r>    3.3392    1.0000 </r>
       <r>    3.5033    1.0000 </r>
       <r>    3.5041    1.0000 </r>
       <r>    4.7387    1.0000 </r>
       <r>    5.1611    1.0000 </r>
       <r>    6.6280    0.7569 </r>
       <r>    7.7198    0.0000 </r>
       <r>    7.8306    0.0000 </r>
       <r>    8.0926    0.0000 </r>
       <r>    8.1151    0.0000 </r>
       <r>    8.2156    0.0000 </r>
      </set>
      <set comment="kpoint 27">
       <r>  -33.9276    1.0000 </r>
       <r>  -16.1038    1.0000 </r>
       <r>  -16.1007    1.0000 </r>
       <r>  -16.0760    1.0000 </r>
       <r>  -16.0745    1.0000 </r>
       <r>  -16.0743    1.0000 </r>
       <r>  -11.8021    1.0000 </r>
       <r>  -11.7344    1.0000 </r>
       <r>  -11.7093    1.0000 </r>
       <r>   -4.2725    1.0000 </r>
       <r>    1.6230    1.0000 </r>
       <r>    2.5272    1.0000 </r>
       <r>    2.8476    1.0000 </r>
       <r>    3.3278    1.0000 </r>
       <r>    3.5714    1.0000 </r>
       <r>    3.6179    1.0000 </r>
       <r>    4.6784    1.0000 </r>
       <r>    5.2096    1.0000 </r>
       <r>    6.6123    0.9983 </r>
       <r>    7.6910    0.0000 </r>
       <r>    7.7185    0.0000 </r>
       <r>    8.1024    0.0000 </r>
       <r>    8.1085    0.0000 </r>
       <r>    8.2367    0.0000 </r>
      </set>
      <set comment="kpoint 28">
       <r>  -33.9280    1.0000 </r>
       <r>  -16.1033    1.0000 </r>
       <r>  -16.1000    1.0000 </r>
       <r>  -16.0759    1.0000 </r>
       <r>  -16.0746    1.0000 </r>
       <r>  -16.0746    1.0000 </r>
       <r>  -11.7849    1.0000 </r>
       <r>  -11.7350    1.0000 </r>
       <r>  -11.7092    1.0000 </r>
       <r>   -4.3770    1.0000 </r>
       <r>    1.7573    1.0000 </r>
       <r>    2.5195    1.0000 </r>
       <r>    2.9647    1.0000 </r>
       <r>    3.3296    1.0000 </r>
       <r>    3.6028    1.0000 </r>
       <r>    3.7928    1.0000 </r>
       <r>    4.6526    1.0000 </r>
       <r>    5.3096    1.0000 </r>
       <r>    6.5930    1.0000 </r>
       <r>    7.4933    0.0000 </r>
       <r>    7.5520    0.0000 </r>
       <r>    8.0112    0.0000 </r>
       <r>    8.1304    0.0000 </r>
       <r>    8.2201    0.0000 </r>
      </set>
      <set comment="kpoint 29">
       <r>  -33.9284    1.0000 </r>
       <r>  -16.1024    1.0000 </r>
       <r>  -16.0995    1.0000 </r>
       <r>  -16.0759    1.0000 </r>
       <r>  -16.0749    1.0000 </r>
       <r>  -16.0748    1.0000 </r>
       <r>  -11.7675    1.0000 </r>
       <r>  -11.7315    1.0000 </r>
       <r>  -11.7111    1.0000 </r>
       <r>   -4.4965    1.0000 </r>
       <r>    1.9689    1.0000 </r>
       <r>    2.5681    1.0000 </r>
       <r>    3.0297    1.0000 </r>
       <r>    3.3280    1.0000 </r>
       <r>    3.5829    1.0000 </r>
       <r>    3.9454    1.0000 </r>
       <r>    4.7931    1.0000 </r>
       <r>    5.4459    1.0000 </r>
       <r>    6.4873    1.0000 </r>
       <r>    7.2651    0.0000 </r>
       <r>    7.2940    0.0000 </r>
       <r>    7.8526    0.0000 </r>
       <r>    8.1416    0.0000 </r>
       <r>    8.1529    0.0000 </r>
      </set>
      <set comment="kpoint 30">
       <r>  -33.9282    1.0000 </r>
       <r>  -16.1023    1.0000 </r>
       <r>  -16.0979    1.0000 </r>
       <r>  -16.0765    1.0000 </r>
       <r>  -16.0744    1.0000 </r>
       <r>  -16.0744    1.0000 </r>
       <r>  -11.7589    1.0000 </r>
       <r>  -11.7300    1.0000 </r>
       <r>  -11.7300    1.0000 </r>
       <r>   -4.5003    1.0000 </r>
       <r>    1.7866    1.0000 </r>
       <r>    3.0514    1.0000 </r>
       <r>    3.0514    1.0000 </r>
       <r>    3.2654    1.0000 </r>
       <r>    3.4026    1.0000 </r>
       <r>    4.0775    1.0000 </r>
       <r>    5.1376    1.0000 </r>
       <r>    5.1376    1.0000 </r>
       <r>    6.2990    1.0000 </r>
       <r>    6.7972    0.0000 </r>
       <r>    7.7351    0.0000 </r>
       <r>    7.7351    0.0000 </r>
       <r>    8.1395    0.0000 </r>
       <r>    8.1443    0.0000 </r>
      </set>
      <set comment="kpoint 31">
       <r>  -33.9279    1.0000 </r>
       <r>  -16.1022    1.0000 </r>
       <r>  -16.0980    1.0000 </r>
       <r>  -16.0767    1.0000 </r>
       <r>  -16.0742    1.0000 </r>
       <r>  -16.0741    1.0000 </r>
       <r>  -11.7735    1.0000 </r>
       <r>  -11.7313    1.0000 </r>
       <r>  -11.7307    1.0000 </r>
       <r>   -4.4272    1.0000 </r>
       <r>    1.7052    1.0000 </r>
       <r>    2.9331    1.0000 </r>
       <r>    3.0324    1.0000 </r>
       <r>    3.3151    1.0000 </r>
       <r>    3.4293    1.0000 </r>
       <r>    3.9702    1.0000 </r>
       <r>    4.9633    1.0000 </r>
       <r>    5.0946    1.0000 </r>
       <r>    6.4455    1.0000 </r>
       <r>    6.9595    0.0000 </r>
       <r>    7.8149    0.0000 </r>
       <r>    7.8486    0.0000 </r>
       <r>    8.1312    0.0000 </r>
       <r>    8.1521    0.0000 </r>
      </set>
      <set comment="kpoint 32">
       <r>  -33.9276    1.0000 </r>
       <r>  -16.1019    1.0000 </r>
       <r>  -16.0988    1.0000 </r>
       <r>  -16.0767    1.0000 </r>
       <r>  -16.0741    1.0000 </r>
       <r>  -16.0738    1.0000 </r>
       <r>  -11.7897    1.0000 </r>
       <r>  -11.7322    1.0000 </r>
       <r>  -11.7300    1.0000 </r>
       <r>   -4.3476    1.0000 </r>
       <r>    1.6962    1.0000 </r>
       <r>    2.7680    1.0000 </r>
       <r>    2.9718    1.0000 </r>
       <r>    3.3956    1.0000 </r>
       <r>    3.4357    1.0000 </r>
       <r>    3.8079    1.0000 </r>
       <r>    4.7326    1.0000 </r>
       <r>    5.0878    1.0000 </r>
       <r>    6.5540    1.0000 </r>
       <r>    7.3481    0.0000 </r>
       <r>    7.8748    0.0000 </r>
       <r>    7.9767    0.0000 </r>
       <r>    8.1204    0.0000 </r>
       <r>    8.1601    0.0000 </r>
      </set>
      <set comment="kpoint 33">
       <r>  -33.9273    1.0000 </r>
       <r>  -16.1014    1.0000 </r>
       <r>  -16.1000    1.0000 </r>
       <r>  -16.0766    1.0000 </r>
       <r>  -16.0741    1.0000 </r>
       <r>  -16.0736    1.0000 </r>
       <r>  -11.8015    1.0000 </r>
       <r>  -11.7365    1.0000 </r>
       <r>  -11.7265    1.0000 </r>
       <r>   -4.2787    1.0000 </r>
       <r>    1.7323    1.0000 </r>
       <r>    2.6578    1.0000 </r>
       <r>    2.8737    1.0000 </r>
       <r>    3.4180    1.0000 </r>
       <r>    3.4501    1.0000 </r>
       <r>    3.6588    1.0000 </r>
       <r>    4.5716    1.0000 </r>
       <r>    5.0850    1.0000 </r>
       <r>    6.6054    1.0000 </r>
       <r>    7.6436    0.0000 </r>
       <r>    7.9198    0.0000 </r>
       <r>    8.0423    0.0000 </r>
       <r>    8.1081    0.0000 </r>
       <r>    8.2769    0.0000 </r>
      </set>
      <set comment="kpoint 34">
       <r>  -33.9272    1.0000 </r>
       <r>  -16.1015    1.0000 </r>
       <r>  -16.1008    1.0000 </r>
       <r>  -16.0763    1.0000 </r>
       <r>  -16.0744    1.0000 </r>
       <r>  -16.0736    1.0000 </r>
       <r>  -11.8062    1.0000 </r>
       <r>  -11.7429    1.0000 </r>
       <r>  -11.7215    1.0000 </r>
       <r>   -4.2334    1.0000 </r>
       <r>    1.7592    1.0000 </r>
       <r>    2.6271    1.0000 </r>
       <r>    2.7510    1.0000 </r>
       <r>    3.3747    1.0000 </r>
       <r>    3.4939    1.0000 </r>
       <r>    3.5935    1.0000 </r>
       <r>    4.4802    1.0000 </r>
       <r>    5.0746    1.0000 </r>
       <r>    6.6987    0.0000 </r>
       <r>    7.6480    0.0000 </r>
       <r>    7.9455    0.0000 </r>
       <r>    8.0780    0.0000 </r>
       <r>    8.0877    0.0000 </r>
       <r>    8.2151    0.0000 </r>
      </set>
      <set comment="kpoint 35">
       <r>  -33.9272    1.0000 </r>
       <r>  -16.1027    1.0000 </r>
       <r>  -16.1002    1.0000 </r>
       <r>  -16.0759    1.0000 </r>
       <r>  -16.0746    1.0000 </r>
       <r>  -16.0737    1.0000 </r>
       <r>  -11.8038    1.0000 </r>
       <r>  -11.7491    1.0000 </r>
       <r>  -11.7162    1.0000 </r>
       <r>   -4.2197    1.0000 </r>
       <r>    1.7370    1.0000 </r>
       <r>    2.6320    1.0000 </r>
       <r>    2.6785    1.0000 </r>
       <r>    3.3367    1.0000 </r>
       <r>    3.5561    1.0000 </r>
       <r>    3.6076    1.0000 </r>
       <r>    4.4203    1.0000 </r>
       <r>    5.0729    1.0000 </r>
       <r>    6.8034    0.0000 </r>
       <r>    7.6187    0.0000 </r>
       <r>    7.9215    0.0000 </r>
       <r>    8.0728    0.0000 </r>
       <r>    8.1057    0.0000 </r>
       <r>    8.2066    0.0000 </r>
      </set>
      <set comment="kpoint 36">
       <r>  -33.9274    1.0000 </r>
       <r>  -16.1036    1.0000 </r>
       <r>  -16.0999    1.0000 </r>
       <r>  -16.0757    1.0000 </r>
       <r>  -16.0748    1.0000 </r>
       <r>  -16.0740    1.0000 </r>
       <r>  -11.7970    1.0000 </r>
       <r>  -11.7515    1.0000 </r>
       <r>  -11.7118    1.0000 </r>
       <r>   -4.2417    1.0000 </r>
       <r>    1.6902    1.0000 </r>
       <r>    2.5430    1.0000 </r>
       <r>    2.7878    1.0000 </r>
       <r>    3.3241    1.0000 </r>
       <r>    3.6089    1.0000 </r>
       <r>    3.6906    1.0000 </r>
       <r>    4.3739    1.0000 </r>
       <r>    5.1072    1.0000 </r>
       <r>    6.8477    0.0000 </r>
       <r>    7.6431    0.0000 </r>
       <r>    7.8172    0.0000 </r>
       <r>    8.0827    0.0000 </r>
       <r>    8.1207    0.0000 </r>
       <r>    8.2187    0.0000 </r>
      </set>
      <set comment="kpoint 37">
       <r>  -33.9276    1.0000 </r>
       <r>  -16.1038    1.0000 </r>
       <r>  -16.0998    1.0000 </r>
       <r>  -16.0758    1.0000 </r>
       <r>  -16.0747    1.0000 </r>
       <r>  -16.0743    1.0000 </r>
       <r>  -11.7902    1.0000 </r>
       <r>  -11.7465    1.0000 </r>
       <r>  -11.7093    1.0000 </r>
       <r>   -4.2976    1.0000 </r>
       <r>    1.6819    1.0000 </r>
       <r>    2.5024    1.0000 </r>
       <r>    2.9102    1.0000 </r>
       <r>    3.3190    1.0000 </r>
       <r>    3.6268    1.0000 </r>
       <r>    3.7792    1.0000 </r>
       <r>    4.4115    1.0000 </r>
       <r>    5.1926    1.0000 </r>
       <r>    6.8014    0.0000 </r>
       <r>    7.6173    0.0000 </r>
       <r>    7.6569    0.0000 </r>
       <r>    8.0951    0.0000 </r>
       <r>    8.1039    0.0000 </r>
       <r>    8.2441    0.0000 </r>
      </set>
      <set comment="kpoint 38">
       <r>  -33.9277    1.0000 </r>
       <r>  -16.1015    1.0000 </r>
       <r>  -16.0974    1.0000 </r>
       <r>  -16.0771    1.0000 </r>
       <r>  -16.0738    1.0000 </r>
       <r>  -16.0738    1.0000 </r>
       <r>  -11.7796    1.0000 </r>
       <r>  -11.7350    1.0000 </r>
       <r>  -11.7350    1.0000 </r>
       <r>   -4.4003    1.0000 </r>
       <r>    1.7005    1.0000 </r>
       <r>    3.0552    1.0000 </r>
       <r>    3.0552    1.0000 </r>
       <r>    3.1422    1.0000 </r>
       <r>    3.4691    1.0000 </r>
       <r>    3.9158    1.0000 </r>
       <r>    5.0671    1.0000 </r>
       <r>    5.0671    1.0000 </r>
       <r>    6.3036    1.0000 </r>
       <r>    7.0530    0.0000 </r>
       <r>    7.8679    0.0000 </r>
       <r>    7.8679    0.0000 </r>
       <r>    8.1083    0.0000 </r>
       <r>    8.1257    0.0000 </r>
      </set>
      <set comment="kpoint 39">
       <r>  -33.9274    1.0000 </r>
       <r>  -16.1007    1.0000 </r>
       <r>  -16.0976    1.0000 </r>
       <r>  -16.0772    1.0000 </r>
       <r>  -16.0736    1.0000 </r>
       <r>  -16.0735    1.0000 </r>
       <r>  -11.7902    1.0000 </r>
       <r>  -11.7378    1.0000 </r>
       <r>  -11.7359    1.0000 </r>
       <r>   -4.3613    1.0000 </r>
       <r>    1.7678    1.0000 </r>
       <r>    2.9001    1.0000 </r>
       <r>    3.0264    1.0000 </r>
       <r>    3.2318    1.0000 </r>
       <r>    3.4911    1.0000 </r>
       <r>    3.7896    1.0000 </r>
       <r>    4.9153    1.0000 </r>
       <r>    5.0733    1.0000 </r>
       <r>    6.4377    1.0000 </r>
       <r>    7.2643    0.0000 </r>
       <r>    7.9091    0.0000 </r>
       <r>    7.9319    0.0000 </r>
       <r>    8.0944    0.0000 </r>
       <r>    8.0965    0.0000 </r>
      </set>
      <set comment="kpoint 40">
       <r>  -33.9272    1.0000 </r>
       <r>  -16.0999    1.0000 </r>
       <r>  -16.0985    1.0000 </r>
       <r>  -16.0771    1.0000 </r>
       <r>  -16.0736    1.0000 </r>
       <r>  -16.0733    1.0000 </r>
       <r>  -11.7976    1.0000 </r>
       <r>  -11.7437    1.0000 </r>
       <r>  -11.7338    1.0000 </r>
       <r>   -4.3186    1.0000 </r>
       <r>    1.8832    1.0000 </r>
       <r>    2.7468    1.0000 </r>
       <r>    2.9516    1.0000 </r>
       <r>    3.3314    1.0000 </r>
       <r>    3.5093    1.0000 </r>
       <r>    3.6586    1.0000 </r>
       <r>    4.6306    1.0000 </r>
       <r>    5.0714    1.0000 </r>
       <r>    6.5610    1.0000 </r>
       <r>    7.6188    0.0000 </r>
       <r>    7.9442    0.0000 </r>
       <r>    8.0039    0.0000 </r>
       <r>    8.0972    0.0000 </r>
       <r>    8.1476    0.0000 </r>
      </set>
      <set comment="kpoint 41">
       <r>  -33.9271    1.0000 </r>
       <r>  -16.0998    1.0000 </r>
       <r>  -16.0993    1.0000 </r>
       <r>  -16.0768    1.0000 </r>
       <r>  -16.0739    1.0000 </r>
       <r>  -16.0733    1.0000 </r>
       <r>  -11.7982    1.0000 </r>
       <r>  -11.7535    1.0000 </r>
       <r>  -11.7291    1.0000 </r>
       <r>   -4.2792    1.0000 </r>
       <r>    1.9796    1.0000 </r>
       <r>    2.6530    1.0000 </r>
       <r>    2.8404    1.0000 </r>
       <r>    3.3457    1.0000 </r>
       <r>    3.5437    1.0000 </r>
       <r>    3.6220    1.0000 </r>
       <r>    4.3777    1.0000 </r>
       <r>    5.0461    1.0000 </r>
       <r>    6.6635    0.0000 </r>
       <r>    7.6857    0.0000 </r>
       <r>    7.9739    0.0000 </r>
       <r>    8.0357    0.0000 </r>
       <r>    8.0945    0.0000 </r>
       <r>    8.2083    0.0000 </r>
      </set>
      <set comment="kpoint 42">
       <r>  -33.9271    1.0000 </r>
       <r>  -16.1013    1.0000 </r>
       <r>  -16.0991    1.0000 </r>
       <r>  -16.0762    1.0000 </r>
       <r>  -16.0743    1.0000 </r>
       <r>  -16.0734    1.0000 </r>
       <r>  -11.7927    1.0000 </r>
       <r>  -11.7642    1.0000 </r>
       <r>  -11.7229    1.0000 </r>
       <r>   -4.2490    1.0000 </r>
       <r>    1.9645    1.0000 </r>
       <r>    2.6357    1.0000 </r>
       <r>    2.7179    1.0000 </r>
       <r>    3.3176    1.0000 </r>
       <r>    3.5866    1.0000 </r>
       <r>    3.6800    1.0000 </r>
       <r>    4.2232    1.0000 </r>
       <r>    5.0226    1.0000 </r>
       <r>    6.8011    0.0000 </r>
       <r>    7.6170    0.0000 </r>
       <r>    7.9861    0.0000 </r>
       <r>    8.0573    0.0000 </r>
       <r>    8.0722    0.0000 </r>
       <r>    8.2120    0.0000 </r>
      </set>
      <set comment="kpoint 43">
       <r>  -33.9272    1.0000 </r>
       <r>  -16.1027    1.0000 </r>
       <r>  -16.0993    1.0000 </r>
       <r>  -16.0757    1.0000 </r>
       <r>  -16.0748    1.0000 </r>
       <r>  -16.0737    1.0000 </r>
       <r>  -11.7903    1.0000 </r>
       <r>  -11.7656    1.0000 </r>
       <r>  -11.7167    1.0000 </r>
       <r>   -4.2345    1.0000 </r>
       <r>    1.8329    1.0000 </r>
       <r>    2.6114    1.0000 </r>
       <r>    2.6943    1.0000 </r>
       <r>    3.3189    1.0000 </r>
       <r>    3.6143    1.0000 </r>
       <r>    3.7278    1.0000 </r>
       <r>    4.2074    1.0000 </r>
       <r>    5.0377    1.0000 </r>
       <r>    6.9051    0.0000 </r>
       <r>    7.5924    0.0000 </r>
       <r>    7.9334    0.0000 </r>
       <r>    8.0649    0.0000 </r>
       <r>    8.0922    0.0000 </r>
       <r>    8.2053    0.0000 </r>
      </set>
      <set comment="kpoint 44">
       <r>  -33.9273    1.0000 </r>
       <r>  -16.0995    1.0000 </r>
       <r>  -16.0971    1.0000 </r>
       <r>  -16.0775    1.0000 </r>
       <r>  -16.0732    1.0000 </r>
       <r>  -16.0732    1.0000 </r>
       <r>  -11.7970    1.0000 </r>
       <r>  -11.7393    1.0000 </r>
       <r>  -11.7393    1.0000 </r>
       <r>   -4.3603    1.0000 </r>
       <r>    1.8876    1.0000 </r>
       <r>    3.0325    1.0000 </r>
       <r>    3.0366    1.0000 </r>
       <r>    3.0366    1.0000 </r>
       <r>    3.5265    1.0000 </r>
       <r>    3.6653    1.0000 </r>
       <r>    5.0985    1.0000 </r>
       <r>    5.0985    1.0000 </r>
       <r>    6.3669    1.0000 </r>
       <r>    7.2686    0.0000 </r>
       <r>    7.9353    0.0000 </r>
       <r>    7.9353    0.0000 </r>
       <r>    8.0314    0.0000 </r>
       <r>    8.0606    0.0000 </r>
      </set>
      <set comment="kpoint 45">
       <r>  -33.9271    1.0000 </r>
       <r>  -16.0986    1.0000 </r>
       <r>  -16.0973    1.0000 </r>
       <r>  -16.0776    1.0000 </r>
       <r>  -16.0731    1.0000 </r>
       <r>  -16.0730    1.0000 </r>
       <r>  -11.8021    1.0000 </r>
       <r>  -11.7430    1.0000 </r>
       <r>  -11.7393    1.0000 </r>
       <r>   -4.3458    1.0000 </r>
       <r>    2.0369    1.0000 </r>
       <r>    2.8582    1.0000 </r>
       <r>    3.0029    1.0000 </r>
       <r>    3.1757    1.0000 </r>
       <r>    3.5223    1.0000 </r>
       <r>    3.5457    1.0000 </r>
       <r>    4.9468    1.0000 </r>
       <r>    5.1105    1.0000 </r>
       <r>    6.4687    1.0000 </r>
       <r>    7.5110    0.0000 </r>
       <r>    7.9557    0.0000 </r>
       <r>    7.9579    0.0000 </r>
       <r>    7.9802    0.0000 </r>
       <r>    8.0623    0.0000 </r>
      </set>
      <set comment="kpoint 46">
       <r>  -33.9270    1.0000 </r>
       <r>  -16.0983    1.0000 </r>
       <r>  -16.0981    1.0000 </r>
       <r>  -16.0773    1.0000 </r>
       <r>  -16.0733    1.0000 </r>
       <r>  -16.0730    1.0000 </r>
       <r>  -11.8010    1.0000 </r>
       <r>  -11.7515    1.0000 </r>
       <r>  -11.7360    1.0000 </r>
       <r>   -4.3197    1.0000 </r>
       <r>    2.1515    1.0000 </r>
       <r>    2.7262    1.0000 </r>
       <r>    2.9269    1.0000 </r>
       <r>    3.2797    1.0000 </r>
       <r>    3.4673    1.0000 </r>
       <r>    3.5668    1.0000 </r>
       <r>    4.6110    1.0000 </r>
       <r>    5.0782    1.0000 </r>
       <r>    6.5680    1.0000 </r>
       <r>    7.7650    0.0000 </r>
       <r>    7.9784    0.0000 </r>
       <r>    8.0002    0.0000 </r>
       <r>    8.0890    0.0000 </r>
       <r>    8.1111    0.0000 </r>
      </set>
      <set comment="kpoint 47">
       <r>  -33.9270    1.0000 </r>
       <r>  -16.0997    1.0000 </r>
       <r>  -16.0983    1.0000 </r>
       <r>  -16.0768    1.0000 </r>
       <r>  -16.0738    1.0000 </r>
       <r>  -16.0732    1.0000 </r>
       <r>  -11.7941    1.0000 </r>
       <r>  -11.7627    1.0000 </r>
       <r>  -11.7301    1.0000 </r>
       <r>   -4.2854    1.0000 </r>
       <r>    2.1366    1.0000 </r>
       <r>    2.6457    1.0000 </r>
       <r>    2.8239    1.0000 </r>
       <r>    3.2925    1.0000 </r>
       <r>    3.5867    1.0000 </r>
       <r>    3.5918    1.0000 </r>
       <r>    4.3114    1.0000 </r>
       <r>    5.0318    1.0000 </r>
       <r>    6.6832    0.0000 </r>
       <r>    7.6973    0.0000 </r>
       <r>    7.9935    0.0000 </r>
       <r>    8.0202    0.0000 </r>
       <r>    8.0928    0.0000 </r>
       <r>    8.1976    0.0000 </r>
      </set>
      <set comment="kpoint 48">
       <r>  -33.9270    1.0000 </r>
       <r>  -16.0977    1.0000 </r>
       <r>  -16.0969    1.0000 </r>
       <r>  -16.0778    1.0000 </r>
       <r>  -16.0729    1.0000 </r>
       <r>  -16.0729    1.0000 </r>
       <r>  -11.8070    1.0000 </r>
       <r>  -11.7417    1.0000 </r>
       <r>  -11.7417    1.0000 </r>
       <r>   -4.3557    1.0000 </r>
       <r>    2.1710    1.0000 </r>
       <r>    2.9788    1.0000 </r>
       <r>    3.0182    1.0000 </r>
       <r>    3.0182    1.0000 </r>
       <r>    3.3852    1.0000 </r>
       <r>    3.5600    1.0000 </r>
       <r>    5.1502    1.0000 </r>
       <r>    5.1502    1.0000 </r>
       <r>    6.4402    1.0000 </r>
       <r>    7.3895    0.0000 </r>
       <r>    7.8964    0.0000 </r>
       <r>    7.9672    0.0000 </r>
       <r>    7.9672    0.0000 </r>
       <r>    8.0262    0.0000 </r>
      </set>
      <set comment="kpoint 49">
       <r>  -33.9270    1.0000 </r>
       <r>  -16.0976    1.0000 </r>
       <r>  -16.0972    1.0000 </r>
       <r>  -16.0777    1.0000 </r>
       <r>  -16.0730    1.0000 </r>
       <r>  -16.0729    1.0000 </r>
       <r>  -11.8065    1.0000 </r>
       <r>  -11.7449    1.0000 </r>
       <r>  -11.7405    1.0000 </r>
       <r>   -4.3466    1.0000 </r>
       <r>    2.2239    1.0000 </r>
       <r>    2.8429    1.0000 </r>
       <r>    2.9913    1.0000 </r>
       <r>    3.1634    1.0000 </r>
       <r>    3.3405    1.0000 </r>
       <r>    3.5672    1.0000 </r>
       <r>    4.9715    1.0000 </r>
       <r>    5.1343    1.0000 </r>
       <r>    6.4891    1.0000 </r>
       <r>    7.6389    0.0000 </r>
       <r>    7.8470    0.0000 </r>
       <r>    7.9742    0.0000 </r>
       <r>    7.9819    0.0000 </r>
       <r>    8.0506    0.0000 </r>
      </set>
      <set comment="kpoint 50">
       <r>  -33.9287    1.0000 </r>
       <r>  -16.1015    1.0000 </r>
       <r>  -16.0989    1.0000 </r>
       <r>  -16.0759    1.0000 </r>
       <r>  -16.0750    1.0000 </r>
       <r>  -16.0749    1.0000 </r>
       <r>  -11.7511    1.0000 </r>
       <r>  -11.7270    1.0000 </r>
       <r>  -11.7174    1.0000 </r>
       <r>   -4.5989    1.0000 </r>
       <r>    2.1281    1.0000 </r>
       <r>    2.7833    1.0000 </r>
       <r>    3.0275    1.0000 </r>
       <r>    3.3396    1.0000 </r>
       <r>    3.4823    1.0000 </r>
       <r>    4.0835    1.0000 </r>
       <r>    5.1082    1.0000 </r>
       <r>    5.4490    1.0000 </r>
       <r>    6.3754    1.0000 </r>
       <r>    6.7657    0.0000 </r>
       <r>    7.4035    0.0000 </r>
       <r>    7.6326    0.0000 </r>
       <r>    8.0396    0.0000 </r>
       <r>    8.1649    0.0000 </r>
      </set>
      <set comment="kpoint 51">
       <r>  -33.9283    1.0000 </r>
       <r>  -16.1024    1.0000 </r>
       <r>  -16.0994    1.0000 </r>
       <r>  -16.0760    1.0000 </r>
       <r>  -16.0748    1.0000 </r>
       <r>  -16.0747    1.0000 </r>
       <r>  -11.7707    1.0000 </r>
       <r>  -11.7290    1.0000 </r>
       <r>  -11.7144    1.0000 </r>
       <r>   -4.4795    1.0000 </r>
       <r>    1.8901    1.0000 </r>
       <r>    2.6608    1.0000 </r>
       <r>    2.9859    1.0000 </r>
       <r>    3.3603    1.0000 </r>
       <r>    3.5352    1.0000 </r>
       <r>    3.9219    1.0000 </r>
       <r>    4.8853    1.0000 </r>
       <r>    5.3452    1.0000 </r>
       <r>    6.4794    1.0000 </r>
       <r>    7.0649    0.0000 </r>
       <r>    7.5712    0.0000 </r>
       <r>    7.8460    0.0000 </r>
       <r>    8.1526    0.0000 </r>
       <r>    8.1564    0.0000 </r>
      </set>
      <set comment="kpoint 52">
       <r>  -33.9279    1.0000 </r>
       <r>  -16.1032    1.0000 </r>
       <r>  -16.1003    1.0000 </r>
       <r>  -16.0761    1.0000 </r>
       <r>  -16.0746    1.0000 </r>
       <r>  -16.0744    1.0000 </r>
       <r>  -11.7921    1.0000 </r>
       <r>  -11.7282    1.0000 </r>
       <r>  -11.7127    1.0000 </r>
       <r>   -4.3535    1.0000 </r>
       <r>    1.7017    1.0000 </r>
       <r>    2.5872    1.0000 </r>
       <r>    2.8980    1.0000 </r>
       <r>    3.3614    1.0000 </r>
       <r>    3.5366    1.0000 </r>
       <r>    3.7175    1.0000 </r>
       <r>    4.8244    1.0000 </r>
       <r>    5.2486    1.0000 </r>
       <r>    6.4772    1.0000 </r>
       <r>    7.4496    0.0000 </r>
[...]
       <r>    7.0026    0.0000 </r>
       <r>    7.4723    0.0000 </r>
       <r>    7.9769    0.0000 </r>
       <r>    8.0149    0.0000 </r>
       <r>    8.0872    0.0000 </r>
       <r>    8.2078    0.0000 </r>
      </set>
      <set comment="kpoint 81">
       <r>  -33.9271    1.0000 </r>
       <r>  -16.1019    1.0000 </r>
       <r>  -16.0986    1.0000 </r>
       <r>  -16.0759    1.0000 </r>
       <r>  -16.0749    1.0000 </r>
       <r>  -16.0733    1.0000 </r>
       <r>  -11.7898    1.0000 </r>
       <r>  -11.7622    1.0000 </r>
       <r>  -11.7259    1.0000 </r>
       <r>   -4.2539    1.0000 </r>
       <r>    1.9423    1.0000 </r>
       <r>    2.5411    1.0000 </r>
       <r>    2.8832    1.0000 </r>
       <r>    3.3831    1.0000 </r>
       <r>    3.5406    1.0000 </r>
       <r>    3.6878    1.0000 </r>
       <r>    4.0585    1.0000 </r>
       <r>    5.1368    1.0000 </r>
       <r>    7.0008    0.0000 </r>
       <r>    7.4709    0.0000 </r>
       <r>    7.9590    0.0000 </r>
       <r>    8.0194    0.0000 </r>
       <r>    8.0966    0.0000 </r>
       <r>    8.1952    0.0000 </r>
      </set>
      <set comment="kpoint 82">
       <r>  -33.9270    1.0000 </r>
       <r>  -16.0999    1.0000 </r>
       <r>  -16.0975    1.0000 </r>
       <r>  -16.0769    1.0000 </r>
       <r>  -16.0740    1.0000 </r>
       <r>  -16.0729    1.0000 </r>
       <r>  -11.7952    1.0000 </r>
       <r>  -11.7540    1.0000 </r>
       <r>  -11.7388    1.0000 </r>
       <r>   -4.2976    1.0000 </r>
       <r>    2.1657    1.0000 </r>
       <r>    2.5986    1.0000 </r>
       <r>    2.9952    1.0000 </r>
       <r>    3.3734    1.0000 </r>
       <r>    3.4592    1.0000 </r>
       <r>    3.5739    1.0000 </r>
       <r>    4.1716    1.0000 </r>
       <r>    5.2056    1.0000 </r>
       <r>    6.7891    0.0000 </r>
       <r>    7.6563    0.0000 </r>
       <r>    7.9177    0.0000 </r>
       <r>    7.9666    0.0000 </r>
       <r>    8.0439    0.0000 </r>
       <r>    8.1905    0.0000 </r>
      </set>
      <set comment="kpoint 83">
       <r>  -33.9270    1.0000 </r>
       <r>  -16.1007    1.0000 </r>
       <r>  -16.0975    1.0000 </r>
       <r>  -16.0764    1.0000 </r>
       <r>  -16.0745    1.0000 </r>
       <r>  -16.0729    1.0000 </r>
       <r>  -11.7890    1.0000 </r>
       <r>  -11.7622    1.0000 </r>
       <r>  -11.7368    1.0000 </r>
       <r>   -4.2784    1.0000 </r>
       <r>    2.1892    1.0000 </r>
       <r>    2.5396    1.0000 </r>
       <r>    2.9645    1.0000 </r>
       <r>    3.3754    1.0000 </r>
       <r>    3.5303    1.0000 </r>
       <r>    3.6116    1.0000 </r>
       <r>    3.9319    1.0000 </r>
       <r>    5.2026    1.0000 </r>
       <r>    6.9321    0.0000 </r>
       <r>    7.5674    0.0000 </r>
       <r>    7.9611    0.0000 </r>
       <r>    7.9689    0.0000 </r>
       <r>    8.0675    0.0000 </r>
       <r>    8.2130    0.0000 </r>
      </set>
      <set comment="kpoint 84">
       <r>  -33.9270    1.0000 </r>
       <r>  -16.1012    1.0000 </r>
       <r>  -16.0975    1.0000 </r>
       <r>  -16.0760    1.0000 </r>
       <r>  -16.0750    1.0000 </r>
       <r>  -16.0729    1.0000 </r>
       <r>  -11.7856    1.0000 </r>
       <r>  -11.7645    1.0000 </r>
       <r>  -11.7371    1.0000 </r>
       <r>   -4.2698    1.0000 </r>
       <r>    2.1731    1.0000 </r>
       <r>    2.5113    1.0000 </r>
       <r>    2.9747    1.0000 </r>
       <r>    3.4379    1.0000 </r>
       <r>    3.5453    1.0000 </r>
       <r>    3.6152    1.0000 </r>
       <r>    3.7891    1.0000 </r>
       <r>    5.2203    1.0000 </r>
       <r>    7.0907    0.0000 </r>
       <r>    7.4427    0.0000 </r>
       <r>    7.9469    0.0000 </r>
       <r>    7.9678    0.0000 </r>
       <r>    8.0872    0.0000 </r>
       <r>    8.1896    0.0000 </r>
      </set>
     </set>
    </set>
   </array>
  </eigenvalues>
  <separator name="orbital magnetization" >
   <v name="MAGDIPOLOUT">      0.00000000      0.00000000      0.00000000</v>
  </separator>
  <dos>
   <i name="efermi">      6.63297044 </i>
   <total>
    <array>
     <dimension dim="1">gridpoints</dimension>
     <dimension dim="2">spin</dimension>
     <field>energy</field>
     <field>total</field>
     <field>integrated</field>
     <set>
      <set comment="spin 1">
       <r>   -36.0396     0.0000     0.0000 </r>
       <r>   -35.8848     0.0000     0.0000 </r>
       <r>   -35.7301     0.0000     0.0000 </r>
       <r>   -35.5753     0.0000     0.0000 </r>
       <r>   -35.4206     0.0000     0.0000 </r>
       <r>   -35.2658     0.0000     0.0000 </r>
       <r>   -35.1111     0.0000     0.0000 </r>
       <r>   -34.9563     0.0000     0.0000 </r>
       <r>   -34.8016     0.0000     0.0000 </r>
       <r>   -34.6468     0.0000     0.0000 </r>
       <r>   -34.4920     0.0000     0.0000 </r>
       <r>   -34.3373     0.0000     0.0000 </r>
       <r>   -34.1825     0.0000     0.0000 </r>
       <r>   -34.0278     0.0000     0.0000 </r>
       <r>   -33.8730    12.9236     2.0000 </r>
       <r>   -33.7183     0.0000     2.0000 </r>
       <r>   -33.5635     0.0000     2.0000 </r>
       <r>   -33.4087     0.0000     2.0000 </r>
       <r>   -33.2540     0.0000     2.0000 </r>
       <r>   -33.0992     0.0000     2.0000 </r>
       <r>   -32.9445     0.0000     2.0000 </r>
       <r>   -32.7897     0.0000     2.0000 </r>
       <r>   -32.6350     0.0000     2.0000 </r>
       <r>   -32.4802     0.0000     2.0000 </r>
       <r>   -32.3255     0.0000     2.0000 </r>
       <r>   -32.1707     0.0000     2.0000 </r>
       <r>   -32.0159     0.0000     2.0000 </r>
       <r>   -31.8612     0.0000     2.0000 </r>
       <r>   -31.7064     0.0000     2.0000 </r>
       <r>   -31.5517     0.0000     2.0000 </r>
       <r>   -31.3969     0.0000     2.0000 </r>
       <r>   -31.2422     0.0000     2.0000 </r>
       <r>   -31.0874     0.0000     2.0000 </r>
       <r>   -30.9327     0.0000     2.0000 </r>
       <r>   -30.7779     0.0000     2.0000 </r>
       <r>   -30.6231     0.0000     2.0000 </r>
       <r>   -30.4684     0.0000     2.0000 </r>
       <r>   -30.3136     0.0000     2.0000 </r>
       <r>   -30.1589     0.0000     2.0000 </r>
       <r>   -30.0041     0.0000     2.0000 </r>
       <r>   -29.8494     0.0000     2.0000 </r>
       <r>   -29.6946     0.0000     2.0000 </r>
       <r>   -29.5398     0.0000     2.0000 </r>
       <r>   -29.3851     0.0000     2.0000 </r>
       <r>   -29.2303     0.0000     2.0000 </r>
       <r>   -29.0756     0.0000     2.0000 </r>
       <r>   -28.9208     0.0000     2.0000 </r>
       <r>   -28.7661     0.0000     2.0000 </r>
       <r>   -28.6113     0.0000     2.0000 </r>
       <r>   -28.4566     0.0000     2.0000 </r>
       <r>   -28.3018     0.0000     2.0000 </r>
       <r>   -28.1470     0.0000     2.0000 </r>
       <r>   -27.9923     0.0000     2.0000 </r>
       <r>   -27.8375     0.0000     2.0000 </r>
       <r>   -27.6828     0.0000     2.0000 </r>
       <r>   -27.5280     0.0000     2.0000 </r>
       <r>   -27.3733     0.0000     2.0000 </r>
       <r>   -27.2185     0.0000     2.0000 </r>
       <r>   -27.0638     0.0000     2.0000 </r>
       <r>   -26.9090     0.0000     2.0000 </r>
       <r>   -26.7542     0.0000     2.0000 </r>
       <r>   -26.5995     0.0000     2.0000 </r>
       <r>   -26.4447     0.0000     2.0000 </r>
       <r>   -26.2900     0.0000     2.0000 </r>
       <r>   -26.1352     0.0000     2.0000 </r>
       <r>   -25.9805     0.0000     2.0000 </r>
       <r>   -25.8257     0.0000     2.0000 </r>
       <r>   -25.6709     0.0000     2.0000 </r>
       <r>   -25.5162     0.0000     2.0000 </r>
       <r>   -25.3614     0.0000     2.0000 </r>
       <r>   -25.2067     0.0000     2.0000 </r>
       <r>   -25.0519     0.0000     2.0000 </r>
       <r>   -24.8972     0.0000     2.0000 </r>
       <r>   -24.7424     0.0000     2.0000 </r>
       <r>   -24.5877     0.0000     2.0000 </r>
       <r>   -24.4329     0.0000     2.0000 </r>
       <r>   -24.2781     0.0000     2.0000 </r>
       <r>   -24.1234     0.0000     2.0000 </r>
       <r>   -23.9686     0.0000     2.0000 </r>
       <r>   -23.8139     0.0000     2.0000 </r>
       <r>   -23.6591     0.0000     2.0000 </r>
       <r>   -23.5044     0.0000     2.0000 </r>
       <r>   -23.3496     0.0000     2.0000 </r>
       <r>   -23.1949     0.0000     2.0000 </r>
       <r>   -23.0401     0.0000     2.0000 </r>
       <r>   -22.8853     0.0000     2.0000 </r>
       <r>   -22.7306     0.0000     2.0000 </r>
       <r>   -22.5758     0.0000     2.0000 </r>
       <r>   -22.4211     0.0000     2.0000 </r>
       <r>   -22.2663     0.0000     2.0000 </r>
       <r>   -22.1116     0.0000     2.0000 </r>
       <r>   -21.9568     0.0000     2.0000 </r>
       <r>   -21.8020     0.0000     2.0000 </r>
       <r>   -21.6473     0.0000     2.0000 </r>
       <r>   -21.4925     0.0000     2.0000 </r>
       <r>   -21.3378     0.0000     2.0000 </r>
       <r>   -21.1830     0.0000     2.0000 </r>
       <r>   -21.0283     0.0000     2.0000 </r>
       <r>   -20.8735     0.0000     2.0000 </r>
       <r>   -20.7188     0.0000     2.0000 </r>
       <r>   -20.5640     0.0000     2.0000 </r>
       <r>   -20.4092     0.0000     2.0000 </r>
       <r>   -20.2545     0.0000     2.0000 </r>
       <r>   -20.0997     0.0000     2.0000 </r>
       <r>   -19.9450     0.0000     2.0000 </r>
       <r>   -19.7902     0.0000     2.0000 </r>
       <r>   -19.6355     0.0000     2.0000 </r>
       <r>   -19.4807     0.0000     2.0000 </r>
       <r>   -19.3260     0.0000     2.0000 </r>
       <r>   -19.1712     0.0000     2.0000 </r>
       <r>   -19.0164     0.0000     2.0000 </r>
       <r>   -18.8617     0.0000     2.0000 </r>
       <r>   -18.7069     0.0000     2.0000 </r>
       <r>   -18.5522     0.0000     2.0000 </r>
       <r>   -18.3974     0.0000     2.0000 </r>
       <r>   -18.2427     0.0000     2.0000 </r>
       <r>   -18.0879     0.0000     2.0000 </r>
       <r>   -17.9331     0.0000     2.0000 </r>
       <r>   -17.7784     0.0000     2.0000 </r>
       <r>   -17.6236     0.0000     2.0000 </r>
       <r>   -17.4689     0.0000     2.0000 </r>
       <r>   -17.3141     0.0000     2.0000 </r>
       <r>   -17.1594     0.0000     2.0000 </r>
       <r>   -17.0046     0.0000     2.0000 </r>
       <r>   -16.8499     0.0000     2.0000 </r>
       <r>   -16.6951     0.0000     2.0000 </r>
       <r>   -16.5403     0.0000     2.0000 </r>
       <r>   -16.3856     0.0000     2.0000 </r>
       <r>   -16.2308     0.0000     2.0000 </r>
       <r>   -16.0761    42.5895     8.5910 </r>
       <r>   -15.9213     0.0000    12.0000 </r>
       <r>   -15.7666     0.0000    12.0000 </r>
       <r>   -15.6118     0.0000    12.0000 </r>
       <r>   -15.4571     0.0000    12.0000 </r>
       <r>   -15.3023     0.0000    12.0000 </r>
       <r>   -15.1475     0.0000    12.0000 </r>
       <r>   -14.9928     0.0000    12.0000 </r>
       <r>   -14.8380     0.0000    12.0000 </r>
       <r>   -14.6833     0.0000    12.0000 </r>
       <r>   -14.5285     0.0000    12.0000 </r>
       <r>   -14.3738     0.0000    12.0000 </r>
       <r>   -14.2190     0.0000    12.0000 </r>
       <r>   -14.0642     0.0000    12.0000 </r>
       <r>   -13.9095     0.0000    12.0000 </r>
       <r>   -13.7547     0.0000    12.0000 </r>
       <r>   -13.6000     0.0000    12.0000 </r>
       <r>   -13.4452     0.0000    12.0000 </r>
       <r>   -13.2905     0.0000    12.0000 </r>
       <r>   -13.1357     0.0000    12.0000 </r>
       <r>   -12.9810     0.0000    12.0000 </r>
       <r>   -12.8262     0.0000    12.0000 </r>
       <r>   -12.6714     0.0000    12.0000 </r>
       <r>   -12.5167     0.0000    12.0000 </r>
       <r>   -12.3619     0.0000    12.0000 </r>
       <r>   -12.2072     0.0000    12.0000 </r>
       <r>   -12.0524     0.0000    12.0000 </r>
       <r>   -11.8977     0.0000    12.0000 </r>
       <r>   -11.7429    18.5482    14.8996 </r>
       <r>   -11.5882     0.0000    18.0000 </r>
       <r>   -11.4334     0.0000    18.0000 </r>
       <r>   -11.2786     0.0000    18.0000 </r>
       <r>   -11.1239     0.0000    18.0000 </r>
       <r>   -10.9691     0.0000    18.0000 </r>
       <r>   -10.8144     0.0000    18.0000 </r>
       <r>   -10.6596     0.0000    18.0000 </r>
       <r>   -10.5049     0.0000    18.0000 </r>
       <r>   -10.3501     0.0000    18.0000 </r>
       <r>   -10.1953     0.0000    18.0000 </r>
       <r>   -10.0406     0.0000    18.0000 </r>
       <r>    -9.8858     0.0000    18.0000 </r>
       <r>    -9.7311     0.0000    18.0000 </r>
       <r>    -9.5763     0.0000    18.0000 </r>
       <r>    -9.4216     0.0000    18.0000 </r>
       <r>    -9.2668     0.0000    18.0000 </r>
       <r>    -9.1121     0.0000    18.0000 </r>
       <r>    -8.9573     0.0000    18.0000 </r>
       <r>    -8.8025     0.0000    18.0000 </r>
       <r>    -8.6478     0.0000    18.0000 </r>
       <r>    -8.4930     0.0000    18.0000 </r>
       <r>    -8.3383     0.0000    18.0000 </r>
       <r>    -8.1835     0.0000    18.0000 </r>
       <r>    -8.0288     0.0000    18.0000 </r>
       <r>    -7.8740     0.0000    18.0000 </r>
       <r>    -7.7193     0.0000    18.0000 </r>
       <r>    -7.5645     0.0000    18.0000 </r>
       <r>    -7.4097     0.0000    18.0000 </r>
       <r>    -7.2550     0.0000    18.0000 </r>
       <r>    -7.1002     0.0000    18.0000 </r>
       <r>    -6.9455     0.0000    18.0000 </r>
       <r>    -6.7907     0.0000    18.0000 </r>
       <r>    -6.6360     0.0000    18.0000 </r>
       <r>    -6.4812     0.0000    18.0000 </r>
       <r>    -6.3264     0.0000    18.0000 </r>
       <r>    -6.1717     0.0000    18.0000 </r>
       <r>    -6.0169     0.0000    18.0000 </r>
       <r>    -5.8622     0.0000    18.0000 </r>
       <r>    -5.7074     0.0000    18.0000 </r>
       <r>    -5.5527     0.0000    18.0000 </r>
       <r>    -5.3979     0.0000    18.0000 </r>
       <r>    -5.2432     0.0000    18.0000 </r>
       <r>    -5.0884     0.0000    18.0000 </r>
       <r>    -4.9336     0.0000    18.0000 </r>
       <r>    -4.7789     0.0122    18.0019 </r>
       <r>    -4.6241     0.2232    18.0591 </r>
       <r>    -4.4694     0.6190    18.2205 </r>
       <r>    -4.3146     2.7234    18.7501 </r>
       <r>    -4.1599     2.9261    19.9977 </r>
       <r>    -4.0051     0.0000    20.0000 </r>
       <r>    -3.8504     0.0000    20.0000 </r>
       <r>    -3.6956     0.0000    20.0000 </r>
       <r>    -3.5408     0.0000    20.0000 </r>
       <r>    -3.3861     0.0000    20.0000 </r>
       <r>    -3.2313     0.0000    20.0000 </r>
       <r>    -3.0766     0.0000    20.0000 </r>
       <r>    -2.9218     0.0000    20.0000 </r>
       <r>    -2.7671     0.0000    20.0000 </r>
       <r>    -2.6123     0.0000    20.0000 </r>
       <r>    -2.4575     0.0000    20.0000 </r>
       <r>    -2.3028     0.0000    20.0000 </r>
       <r>    -2.1480     0.0000    20.0000 </r>
       <r>    -1.9933     0.0000    20.0000 </r>
       <r>    -1.8385     0.0000    20.0000 </r>
       <r>    -1.6838     0.0000    20.0000 </r>
       <r>    -1.5290     0.0000    20.0000 </r>
       <r>    -1.3743     0.0000    20.0000 </r>
       <r>    -1.2195     0.0000    20.0000 </r>
       <r>    -1.0647     0.0000    20.0000 </r>
       <r>    -0.9100     0.0000    20.0000 </r>
       <r>    -0.7552     0.0000    20.0000 </r>
       <r>    -0.6005     0.0000    20.0000 </r>
       <r>    -0.4457     0.0000    20.0000 </r>
       <r>    -0.2910     0.0000    20.0000 </r>
       <r>    -0.1362     0.0000    20.0000 </r>
       <r>     0.0185     0.0000    20.0000 </r>
       <r>     0.1733     0.0000    20.0000 </r>
       <r>     0.3281     0.0000    20.0000 </r>
       <r>     0.4828     0.0000    20.0000 </r>
       <r>     0.6376     0.0000    20.0000 </r>
       <r>     0.7923     0.0000    20.0000 </r>
       <r>     0.9471     0.0000    20.0000 </r>
       <r>     1.1018     0.0000    20.0000 </r>
       <r>     1.2566     0.0000    20.0000 </r>
       <r>     1.4113     0.0894    20.0138 </r>
       <r>     1.5661     0.6086    20.1670 </r>
       <r>     1.7209     3.0787    20.7532 </r>
       <r>     1.8756     1.0777    21.2155 </r>
       <r>     2.0304     0.6366    21.5350 </r>
       <r>     2.1851     1.1608    21.8747 </r>
       <r>     2.3399     0.0000    21.9463 </r>
       <r>     2.4946     0.0580    21.9771 </r>
       <r>     2.6494     5.9719    23.3038 </r>
       <r>     2.8042     3.7117    24.3832 </r>
       <r>     2.9589     3.8406    25.3317 </r>
       <r>     3.1137     0.4941    26.0109 </r>
       <r>     3.2684     0.4528    26.1192 </r>
       <r>     3.4232     9.5258    28.1751 </r>
       <r>     3.5779     7.1574    30.2647 </r>
       <r>     3.7327     2.8979    31.3934 </r>
       <r>     3.8874     0.8328    31.7565 </r>
       <r>     4.0422     0.7070    31.9792 </r>
       <r>     4.1970     0.4423    32.1913 </r>
       <r>     4.3517     0.6481    32.5045 </r>
       <r>     4.5065     1.1688    32.8035 </r>
       <r>     4.6612     0.8323    33.1010 </r>
       <r>     4.8160     0.9482    33.3375 </r>
       <r>     4.9707     0.5762    33.6404 </r>
       <r>     5.1255     5.4873    34.5424 </r>
       <r>     5.2802     2.2967    35.6654 </r>
       <r>     5.4350     0.3164    35.8505 </r>
       <r>     5.5898     0.2351    35.9617 </r>
       <r>     5.7445     0.1619    35.9977 </r>
       <r>     5.8993     0.0530    36.0164 </r>
       <r>     6.0540     0.1529    36.0464 </r>
       <r>     6.2088     0.3899    36.1286 </r>
       <r>     6.3635     0.2490    36.2506 </r>
       <r>     6.5183     1.7533    36.6164 </r>
       <r>     6.6731     2.2584    37.1806 </r>
       <r>     6.8278     2.3781    37.7399 </r>
       <r>     6.9826     1.1668    38.0549 </r>
       <r>     7.1373     0.6284    38.2748 </r>
       <r>     7.2921     0.4630    38.4713 </r>
       <r>     7.4468     0.9062    38.6946 </r>
       <r>     7.6016     3.1348    39.4637 </r>
       <r>     7.7563     2.6247    40.5364 </r>
       <r>     7.9111     3.7011    41.4949 </r>
       <r>     8.0659     7.3357    43.8125 </r>
       <r>     8.2206    10.2414    47.5139 </r>
       <r>     8.3754     0.0000    48.0000 </r>
       <r>     8.5301     0.0000    48.0000 </r>
       <r>     8.6849     0.0000    48.0000 </r>
       <r>     8.8396     0.0000    48.0000 </r>
       <r>     8.9944     0.0000    48.0000 </r>
       <r>     9.1491     0.0000    48.0000 </r>
       <r>     9.3039     0.0000    48.0000 </r>
       <r>     9.4587     0.0000    48.0000 </r>
       <r>     9.6134     0.0000    48.0000 </r>
       <r>     9.7682     0.0000    48.0000 </r>
       <r>     9.9229     0.0000    48.0000 </r>
       <r>    10.0777     0.0000    48.0000 </r>
       <r>    10.2324     0.0000    48.0000 </r>
       <r>    10.3872     0.0000    48.0000 </r>
      </set>
     </set>
    </array>
   </total>
  </dos>
 </calculation>
 <structure name="finalpos" >
  <crystal>
   <varray name="basis" >
    <v>       0.00000000       3.61912319       3.61912319 </v>
    <v>       3.61912319       0.00000000       3.61912319 </v>
    <v>       3.61912319       3.61912319       0.00000000 </v>
   </varray>
   <i name="volume">     94.80693191 </i>
   <varray name="rec_basis" >
    <v>      -0.13815501       0.13815501       0.13815501 </v>
    <v>       0.13815501      -0.13815501       0.13815501 </v>
    <v>       0.13815501       0.13815501      -0.13815501 </v>
   </varray>
  </crystal>
  <varray name="positions" >
   <v>       0.25000000       0.25000000       0.25000000 </v>
   <v>       0.75000000       0.75000000       0.75000000 </v>
   <v>       0.00000000       0.00000000       0.00000000 </v>
  </varray>
 </structure>
</modeling>
