   2   2   0   0
  0.2448643E+02  0.4106674E-09  0.4106674E-09  0.4106674E-09  0.0000000E+00
  1.000000000000000E-004
  CAR 
 unknown system                          
     13.96524750     -9.22784452  301      3.30608896      1.00000000
     -9.228  0.0000E+00  0.0000E+00
     -9.151  0.0000E+00  0.0000E+00
     -9.073  0.0000E+00  0.0000E+00
     -8.996  0.0000E+00  0.0000E+00
     -8.919  0.0000E+00  0.0000E+00
     -8.841  0.0000E+00  0.0000E+00
     -8.764  0.0000E+00  0.0000E+00
     -8.687  0.0000E+00  0.0000E+00
     -8.609  0.0000E+00  0.0000E+00
     -8.532  0.0000E+00  0.0000E+00
     -8.455  0.0000E+00  0.0000E+00
     -8.377  0.0000E+00  0.0000E+00
     -8.300  0.0000E+00  0.0000E+00
     -8.223  0.0000E+00  0.0000E+00
     -8.146  0.9361E-01  0.1193E-02
     -8.068  0.1901E+00  0.1244E-01
     -7.991  0.2658E+00  0.3036E-01
     -7.914  0.3312E+00  0.5331E-01
     -7.836  0.3842E+00  0.8093E-01
     -7.759  0.4431E+00  0.1129E+00
     -7.682  0.4977E+00  0.1493E+00
     -7.604  0.5577E+00  0.1900E+00
     -7.527  0.6187E+00  0.2355E+00
     -7.450  0.6858E+00  0.2859E+00
     -7.372  0.7618E+00  0.3417E+00
     -7.295  0.8468E+00  0.4039E+00
     -7.218  0.9480E+00  0.4730E+00
     -7.140  0.1075E+01  0.5511E+00
     -7.063  0.1232E+01  0.6400E+00
     -6.986  0.1493E+01  0.7447E+00
     -6.909  0.2018E+01  0.8796E+00
     -6.831  0.2100E+01  0.1041E+01
     -6.754  0.2100E+01  0.1203E+01
     -6.677  0.2159E+01  0.1368E+01
     -6.599  0.2263E+01  0.1538E+01
     -6.522  0.2467E+01  0.1719E+01
     -6.445  0.4413E+01  0.1938E+01
     -6.367  0.0000E+00  0.2000E+01
     -6.290  0.0000E+00  0.2000E+01
     -6.213  0.0000E+00  0.2000E+01
     -6.135  0.0000E+00  0.2000E+01
     -6.058  0.0000E+00  0.2000E+01
     -5.981  0.0000E+00  0.2000E+01
     -5.904  0.0000E+00  0.2000E+01
     -5.826  0.0000E+00  0.2000E+01
     -5.749  0.0000E+00  0.2000E+01
     -5.672  0.0000E+00  0.2000E+01
     -5.594  0.0000E+00  0.2000E+01
     -5.517  0.0000E+00  0.2000E+01
     -5.440  0.0000E+00  0.2000E+01
     -5.362  0.0000E+00  0.2000E+01
     -5.285  0.0000E+00  0.2000E+01
     -5.208  0.0000E+00  0.2000E+01
     -5.130  0.0000E+00  0.2000E+01
     -5.053  0.0000E+00  0.2000E+01
     -4.976  0.0000E+00  0.2000E+01
     -4.898  0.0000E+00  0.2000E+01
     -4.821  0.0000E+00  0.2000E+01
     -4.744  0.0000E+00  0.2000E+01
     -4.667  0.0000E+00  0.2000E+01
     -4.589  0.0000E+00  0.2000E+01
     -4.512  0.0000E+00  0.2000E+01
     -4.435  0.0000E+00  0.2000E+01
     -4.357  0.0000E+00  0.2000E+01
     -4.280  0.0000E+00  0.2000E+01
     -4.203  0.0000E+00  0.2000E+01
     -4.125  0.0000E+00  0.2000E+01
     -4.048  0.0000E+00  0.2000E+01
     -3.971  0.0000E+00  0.2000E+01
     -3.893  0.0000E+00  0.2000E+01
     -3.816  0.0000E+00  0.2000E+01
     -3.739  0.0000E+00  0.2000E+01
     -3.662  0.0000E+00  0.2000E+01
     -3.584  0.0000E+00  0.2000E+01
     -3.507  0.0000E+00  0.2000E+01
     -3.430  0.0000E+00  0.2000E+01
     -3.352  0.0000E+00  0.2000E+01
     -3.275  0.0000E+00  0.2000E+01
     -3.198  0.0000E+00  0.2000E+01
     -3.120  0.0000E+00  0.2000E+01
     -3.043  0.0000E+00  0.2000E+01
     -2.966  0.0000E+00  0.2000E+01
     -2.888  0.0000E+00  0.2000E+01
     -2.811  0.0000E+00  0.2000E+01
     -2.734  0.0000E+00  0.2000E+01
     -2.656  0.0000E+00  0.2000E+01
     -2.579  0.0000E+00  0.2000E+01
     -2.502  0.0000E+00  0.2000E+01
     -2.425  0.0000E+00  0.2000E+01
     -2.347  0.0000E+00  0.2000E+01
     -2.270  0.0000E+00  0.2000E+01
     -2.193  0.0000E+00  0.2000E+01
     -2.115  0.0000E+00  0.2000E+01
     -2.038  0.0000E+00  0.2000E+01
     -1.961  0.1697E+00  0.2000E+01
     -1.883  0.5928E+00  0.2026E+01
     -1.806  0.1220E+01  0.2096E+01
     -1.729  0.1979E+01  0.2218E+01
     -1.651  0.4598E+01  0.2445E+01
     -1.574  0.2807E+01  0.2788E+01
     -1.497  0.1717E+01  0.2953E+01
     -1.420  0.1262E+01  0.3067E+01
     -1.342  0.1059E+01  0.3156E+01
     -1.265  0.8891E+00  0.3231E+01
     -1.188  0.7678E+00  0.3294E+01
     -1.110  0.6887E+00  0.3351E+01
     -1.033  0.6071E+00  0.3401E+01
     -0.956  0.5432E+00  0.3445E+01
     -0.878  0.5035E+00  0.3486E+01
     -0.801  0.4631E+00  0.3523E+01
     -0.724  0.4212E+00  0.3557E+01
     -0.646  0.3816E+00  0.3588E+01
     -0.569  0.3597E+00  0.3617E+01
     -0.492  0.3366E+00  0.3644E+01
     -0.414  0.3140E+00  0.3669E+01
     -0.337  0.2879E+00  0.3692E+01
     -0.260  0.2642E+00  0.3713E+01
     -0.183  0.2509E+00  0.3733E+01
     -0.105  0.2376E+00  0.3752E+01
     -0.028  0.2238E+00  0.3770E+01
      0.049  0.2081E+00  0.3787E+01
      0.127  0.6500E+00  0.3820E+01
      0.204  0.9945E+00  0.3885E+01
      0.281  0.1540E+01  0.3986E+01
      0.359  0.1437E+01  0.4102E+01
      0.436  0.1279E+01  0.4207E+01
      0.513  0.1213E+01  0.4304E+01
      0.591  0.1192E+01  0.4397E+01
      0.668  0.1159E+01  0.4489E+01
      0.745  0.1112E+01  0.4576E+01
      0.822  0.1190E+01  0.4668E+01
      0.900  0.1257E+01  0.4763E+01
      0.977  0.1343E+01  0.4866E+01
      1.054  0.1403E+01  0.4972E+01
      1.132  0.1490E+01  0.5084E+01
      1.209  0.1706E+01  0.5206E+01
      1.286  0.1934E+01  0.5349E+01
      1.364  0.1902E+01  0.5499E+01
      1.441  0.1897E+01  0.5646E+01
      1.518  0.1843E+01  0.5790E+01
      1.596  0.1851E+01  0.5933E+01
      1.673  0.1820E+01  0.6075E+01
      1.750  0.1783E+01  0.6214E+01
      1.828  0.1772E+01  0.6351E+01
      1.905  0.1756E+01  0.6488E+01
      1.982  0.1738E+01  0.6623E+01
      2.059  0.1725E+01  0.6757E+01
      2.137  0.1695E+01  0.6889E+01
      2.214  0.1684E+01  0.7019E+01
      2.291  0.1697E+01  0.7150E+01
      2.369  0.1693E+01  0.7281E+01
      2.446  0.1675E+01  0.7411E+01
      2.523  0.1309E+01  0.7530E+01
      2.601  0.1081E+01  0.7622E+01
      2.678  0.9267E+00  0.7699E+01
      2.755  0.7992E+00  0.7766E+01
      2.833  0.6922E+00  0.7823E+01
      2.910  0.5998E+00  0.7873E+01
      2.987  0.5020E+00  0.7916E+01
      3.064  0.4255E+00  0.7951E+01
      3.142  0.3040E+00  0.7980E+01
      3.219  0.1423E+00  0.7997E+01
      3.296  0.0000E+00  0.8000E+01
      3.374  0.0000E+00  0.8000E+01
      3.451  0.0000E+00  0.8000E+01
      3.528  0.0000E+00  0.8000E+01
      3.606  0.0000E+00  0.8000E+01
      3.683  0.0000E+00  0.8000E+01
      3.760  0.0000E+00  0.8000E+01
      3.838  0.0000E+00  0.8000E+01
      3.915  0.0000E+00  0.8000E+01
      3.992  0.0000E+00  0.8000E+01
      4.070  0.0000E+00  0.8000E+01
      4.147  0.0000E+00  0.8000E+01
      4.224  0.0000E+00  0.8000E+01
      4.301  0.0000E+00  0.8000E+01
      4.379  0.0000E+00  0.8000E+01
      4.456  0.0000E+00  0.8000E+01
      4.533  0.0000E+00  0.8000E+01
      4.611  0.0000E+00  0.8000E+01
      4.688  0.0000E+00  0.8000E+01
      4.765  0.1883E-04  0.8000E+01
      4.843  0.3857E-02  0.8000E+01
      4.920  0.6834E-01  0.8003E+01
      4.997  0.1195E+00  0.8010E+01
      5.075  0.1645E+00  0.8021E+01
      5.152  0.2119E+00  0.8036E+01
      5.229  0.2989E+00  0.8055E+01
      5.306  0.4117E+00  0.8083E+01
      5.384  0.5022E+00  0.8118E+01
      5.461  0.5853E+00  0.8160E+01
      5.538  0.6793E+00  0.8209E+01
      5.616  0.8150E+00  0.8267E+01
      5.693  0.9726E+00  0.8336E+01
      5.770  0.1113E+01  0.8416E+01
      5.848  0.1252E+01  0.8508E+01
      5.925  0.1370E+01  0.8609E+01
      6.002  0.1539E+01  0.8721E+01
      6.080  0.1815E+01  0.8850E+01
      6.157  0.2021E+01  0.9002E+01
      6.234  0.1909E+01  0.9155E+01
      6.312  0.1851E+01  0.9300E+01
      6.389  0.1789E+01  0.9442E+01
      6.466  0.1636E+01  0.9574E+01
      6.543  0.1534E+01  0.9696E+01
      6.621  0.1362E+01  0.9807E+01
      6.698  0.1166E+01  0.9904E+01
      6.775  0.1015E+01  0.9989E+01
      6.853  0.1019E+01  0.1007E+02
      6.930  0.1171E+01  0.1015E+02
      7.007  0.1057E+01  0.1024E+02
      7.085  0.8440E+00  0.1032E+02
      7.162  0.7926E+00  0.1038E+02
      7.239  0.8075E+00  0.1044E+02
      7.317  0.8551E+00  0.1051E+02
      7.394  0.9396E+00  0.1058E+02
      7.471  0.9237E+00  0.1065E+02
      7.548  0.1394E+01  0.1073E+02
      7.626  0.2659E+01  0.1088E+02
      7.703  0.2735E+01  0.1110E+02
      7.780  0.2272E+01  0.1129E+02
      7.858  0.1827E+01  0.1145E+02
      7.935  0.1670E+01  0.1158E+02
      8.012  0.1403E+01  0.1170E+02
      8.090  0.1502E+01  0.1181E+02
      8.167  0.1422E+01  0.1193E+02
      8.244  0.1356E+01  0.1203E+02
      8.322  0.1294E+01  0.1214E+02
      8.399  0.1252E+01  0.1224E+02
      8.476  0.1322E+01  0.1233E+02
      8.554  0.1529E+01  0.1244E+02
      8.631  0.1753E+01  0.1257E+02
      8.708  0.1922E+01  0.1271E+02
      8.785  0.1865E+01  0.1286E+02
      8.863  0.1819E+01  0.1301E+02
      8.940  0.1689E+01  0.1314E+02
      9.017  0.1751E+01  0.1327E+02
      9.095  0.1459E+01  0.1339E+02
      9.172  0.1289E+01  0.1350E+02
      9.249  0.1268E+01  0.1360E+02
      9.327  0.1238E+01  0.1370E+02
      9.404  0.1267E+01  0.1379E+02
      9.481  0.1318E+01  0.1389E+02
      9.559  0.1276E+01  0.1399E+02
      9.636  0.1247E+01  0.1409E+02
      9.713  0.1071E+01  0.1419E+02
      9.790  0.9024E+00  0.1426E+02
      9.868  0.9220E+00  0.1433E+02
      9.945  0.9713E+00  0.1440E+02
     10.022  0.1011E+01  0.1448E+02
     10.100  0.1017E+01  0.1456E+02
     10.177  0.9955E+00  0.1463E+02
     10.254  0.1023E+01  0.1471E+02
     10.332  0.1099E+01  0.1479E+02
     10.409  0.1159E+01  0.1488E+02
     10.486  0.1206E+01  0.1497E+02
     10.564  0.1246E+01  0.1507E+02
     10.641  0.1143E+01  0.1516E+02
     10.718  0.1069E+01  0.1525E+02
     10.796  0.1064E+01  0.1533E+02
     10.873  0.9172E+00  0.1540E+02
     10.950  0.8575E+00  0.1547E+02
     11.027  0.7563E+00  0.1553E+02
     11.105  0.4577E+00  0.1559E+02
     11.182  0.4321E+00  0.1563E+02
     11.259  0.4072E+00  0.1566E+02
     11.337  0.3851E+00  0.1569E+02
     11.414  0.3598E+00  0.1572E+02
     11.491  0.3348E+00  0.1575E+02
     11.569  0.3206E+00  0.1577E+02
     11.646  0.3236E+00  0.1580E+02
     11.723  0.3053E+00  0.1582E+02
     11.801  0.2662E+00  0.1584E+02
     11.878  0.2381E+00  0.1586E+02
     11.955  0.2153E+00  0.1588E+02
     12.032  0.1978E+00  0.1590E+02
     12.110  0.1871E+00  0.1591E+02
     12.187  0.1737E+00  0.1592E+02
     12.264  0.1588E+00  0.1594E+02
     12.342  0.1532E+00  0.1595E+02
     12.419  0.1400E+00  0.1596E+02
     12.496  0.1215E+00  0.1597E+02
     12.574  0.9675E-01  0.1598E+02
     12.651  0.7560E-01  0.1599E+02
     12.728  0.5801E-01  0.1599E+02
     12.806  0.4398E-01  0.1599E+02
     12.883  0.4822E-01  0.1600E+02
     12.960  0.0000E+00  0.1600E+02
     13.038  0.0000E+00  0.1600E+02
     13.115  0.0000E+00  0.1600E+02
     13.192  0.0000E+00  0.1600E+02
     13.269  0.0000E+00  0.1600E+02
     13.347  0.0000E+00  0.1600E+02
     13.424  0.0000E+00  0.1600E+02
     13.501  0.0000E+00  0.1600E+02
     13.579  0.0000E+00  0.1600E+02
     13.656  0.0000E+00  0.1600E+02
     13.733  0.0000E+00  0.1600E+02
     13.811  0.0000E+00  0.1600E+02
     13.888  0.0000E+00  0.1600E+02
     13.965  0.0000E+00  0.1600E+02
