    2    2    1    1
  0.2448643E+02  0.4106674E-09  0.4106674E-09  0.4106674E-09  0.0000000E+00
  1.000000000000000E-004
  CAR 
 unknown system                          
      8    220      8
 
  0.0000000E+00  0.0000000E+00  0.0000000E+00  0.1457938E-03
    1       -8.173613   1.000000
    2        3.263392   1.000000
    3        3.263392   1.000000
    4        3.263392   1.000000
    5        4.750504   0.000000
    6        7.417390   0.000000
    7        7.417390   0.000000
    8        7.417391   0.000000
 
  0.5263158E-01  0.0000000E+00  0.0000000E+00  0.1166351E-02
    1       -8.148725   1.000000
    2        2.874551   1.000000
    3        3.234250   1.000000
    4        3.234250   1.000000
    5        5.060323   0.000000
    6        7.440325   0.000000
    7        7.470306   0.000000
    8        7.470307   0.000000
 
  0.1052632E+00  0.0000000E+00  0.0000000E+00  0.1166351E-02
    1       -8.074972   1.000000
    2        2.137127   1.000000
    3        3.154037   1.000000
    4        3.154037   1.000000
    5        5.500121   0.000000
    6        7.597592   0.000000
    7        7.612436   0.000000
    8        7.612436   0.000000
 
  0.1578947E+00  0.0000000E+00  0.0000000E+00  0.1166351E-02
    1       -7.955354   1.000000
    2        1.341058   1.000000
    3        3.040185   1.000000
    4        3.040185   1.000000
    5        5.691798   0.000000
    6        7.796963   0.000000
    7        7.796963   0.000000
    8        8.035928   0.000000
 
  0.2105263E+00  0.0000000E+00  0.0000000E+00  0.1166351E-02
    1       -7.795404   1.000000
    2        0.561602   1.000000
    3        2.912322   1.000000
    4        2.912322   1.000000
    5        5.656055   0.000000
    6        7.957650   0.000000
    7        7.957650   0.000000
    8        8.710172   0.000000
 
  0.2631579E+00  0.0000000E+00  0.0000000E+00  0.1166351E-02
    1       -7.604341   1.000000
    2       -0.166169   1.000000
    3        2.786993   1.000000
    4        2.786993   1.000000
    5        5.528936   0.000000
    6        8.038627   0.000000
    7        8.038627   0.000000
    8        9.472635   0.000000
 
  0.3157895E+00  0.0000000E+00  0.0000000E+00  0.1166351E-02
    1       -7.396657   1.000000
    2       -0.814286   1.000000
    3        2.676146   1.000000
    4        2.676146   1.000000
    5        5.388346   0.000000
    6        8.033277   0.000000
    7        8.033277   0.000000
    8       10.186668   0.000000
 
  0.3684211E+00  0.0000000E+00  0.0000000E+00  0.1166351E-02
    1       -7.194303   1.000000
    2       -1.352687   1.000000
    3        2.587667   1.000000
    4        2.587667   1.000000
    5        5.267920   0.000000
    6        7.979376   0.000000
    7        7.979376   0.000000
    8       10.665737   0.000000
 
  0.4210526E+00  0.0000000E+00  0.0000000E+00  0.1166351E-02
    1       -7.027713   1.000000
    2       -1.745813   1.000000
    3        2.526435   1.000000
    4        2.526435   1.000000
    5        5.182386   0.000000
    6        7.920147   0.000000
    7        7.920147   0.000000
    8       10.832423   0.000000
 
  0.4736842E+00  0.0000000E+00  0.0000000E+00  0.1166351E-02
    1       -6.931699   1.000000
    2       -1.955815   1.000000
    3        2.495208   1.000000
    4        2.495208   1.000000
    5        5.138344   0.000000
    6        7.884066   0.000000
    7        7.884066   0.000000
    8       10.858495   0.000000
 
  0.5263158E-01  0.5263158E-01  0.0000000E+00  0.8747631E-03
    1       -8.140414   1.000000
    2        2.855837   1.000000
    3        3.168943   1.000000
    4        3.168943   1.000000
    5        5.175447   0.000000
    6        7.287920   0.000000
    7        7.563792   0.000000
    8        7.563792   0.000000
 
  0.1052632E+00  0.5263158E-01  0.0000000E+00  0.3499052E-02
    1       -8.082907   1.000000
    2        2.294617   1.000000
    3        3.059151   1.000000
    4        3.115043   1.000000
    5        5.583180   0.000000
    6        7.223629   0.000000
    7        7.743731   0.000000
    8        7.758544   0.000000
 
  0.1578947E+00  0.5263158E-01  0.0000000E+00  0.3499052E-02
    1       -7.978492   1.000000
    2        1.553798   1.000000
    3        2.925682   1.000000
    4        3.035612   1.000000
    5        5.861015   0.000000
    6        7.324811   0.000000
    7        7.963136   0.000000
    8        8.093466   0.000000
 
  0.2105263E+00  0.5263158E-01  0.0000000E+00  0.3499052E-02
    1       -7.831743   1.000000
    2        0.790789   1.000000
    3        2.788489   1.000000
    4        2.915762   1.000000
    5        5.885996   0.000000
    6        7.558607   0.000000
    7        8.157003   0.000000
    8        8.576702   0.000000
 
  0.2631579E+00  0.5263158E-01  0.0000000E+00  0.3499052E-02
    1       -7.650541   1.000000
    2        0.059232   1.000000
    3        2.662996   1.000000
    4        2.775759   1.000000
    5        5.778822   0.000000
    6        7.754985   0.000000
    7        8.264086   0.000000
    8        9.154094   0.000000
 
  0.3157895E+00  0.5263158E-01  0.0000000E+00  0.3499052E-02
    1       -7.447375   1.000000
    2       -0.607492   1.000000
    3        2.559737   1.000000
    4        2.634531   1.000000
    5        5.640688   0.000000
    6        7.833329   0.000000
    7        8.266106   0.000000
    8        9.765683   0.000000
 
  0.3684211E+00  0.5263158E-01  0.0000000E+00  0.3499052E-02
    1       -7.241460   1.000000
    2       -1.178459   1.000000
    3        2.485263   1.000000
    4        2.505936   1.000000
    5        5.514799   0.000000
    6        7.826956   0.000000
    7        8.196160   0.000000
    8       10.347676   0.000000
 
  0.4210526E+00  0.5263158E-01  0.0000000E+00  0.3499052E-02
    1       -7.060325   1.000000
    2       -1.619025   1.000000
    3        2.399381   1.000000
    4        2.443139   1.000000
    5        5.419292   0.000000
    6        7.796889   0.000000
    7        8.102206   0.000000
    8       10.762807   0.000000
 
  0.4736842E+00  0.5263158E-01  0.0000000E+00  0.3499052E-02
    1       -6.938067   1.000000
    2       -1.890823   1.000000
    3        2.321122   1.000000
    4        2.434742   1.000000
    5        5.362281   0.000000
    6        7.784055   0.000000
    7        8.019783   0.000000
    8       10.932628   0.000000
 
 -0.4736842E+00  0.5263158E-01  0.0000000E+00  0.3499052E-02
    1       -6.904913   1.000000
    2       -1.961402   1.000000
    3        2.275260   1.000000
    4        2.459762   1.000000
    5        5.347256   0.000000
    6        7.807417   0.000000
    7        7.968063   0.000000
    8       10.968363   0.000000
 
 -0.4210526E+00  0.5263158E-01  0.0000000E+00  0.3499052E-02
    1       -6.970304   1.000000
    2       -1.820804   1.000000
    3        2.264357   1.000000
    4        2.516472   1.000000
    5        5.375031   0.000000
    6        7.870389   0.000000
    7        7.952662   0.000000
    8       10.926500   0.000000
 
 -0.3684211E+00  0.5263158E-01  0.0000000E+00  0.3499052E-02
    1       -7.116150   1.000000
    2       -1.488259   1.000000
    3        2.289672   1.000000
    4        2.601720   1.000000
    5        5.444053   0.000000
    6        7.962925   0.000000
    7        7.966518   0.000000
    8       10.725819   0.000000
 
 -0.3157895E+00  0.5263158E-01  0.0000000E+00  0.3499052E-02
    1       -7.309161   1.000000
    2       -1.000048   1.000000
    3        2.351120   1.000000
    4        2.710655   1.000000
    5        5.549485   0.000000
    6        7.987731   0.000000
    7        8.058016   0.000000
    8       10.258076   0.000000
 
 -0.2631579E+00  0.5263158E-01  0.0000000E+00  0.3499052E-02
    1       -7.516779   1.000000
    2       -0.394101   1.000000
    3        2.447006   1.000000
    4        2.836168   1.000000
    5        5.680148   0.000000
    6        7.978604   0.000000
    7        8.103005   0.000000
    8        9.622359   0.000000
 
 -0.2105263E+00  0.5263158E-01  0.0000000E+00  0.3499052E-02
    1       -7.714355   1.000000
    2        0.295908   1.000000
    3        2.573557   1.000000
    4        2.967972   1.000000
    5        5.810169   0.000000
    6        7.900923   0.000000
    7        8.016918   0.000000
    8        8.987268   0.000000
 
 -0.1578947E+00  0.5263158E-01  0.0000000E+00  0.3499052E-02
    1       -7.885145   1.000000
    2        1.037532   1.000000
    3        2.724462   1.000000
    4        3.091736   1.000000
    5        5.877255   0.000000
    6        7.755113   0.000000
    7        7.755392   0.000000
    8        8.464954   0.000000
 
 -0.1052632E+00  0.5263158E-01  0.0000000E+00  0.3499052E-02
    1       -8.018423   1.000000
    2        1.788825   1.000000
    3        2.891578   1.000000
    4        3.189170   1.000000
    5        5.757644   0.000000
    6        7.481365   0.000000
    7        7.593985   0.000000
    8        8.057333   0.000000
 
 -0.5263158E-01  0.5263158E-01  0.0000000E+00  0.1749526E-02
    1       -8.107526   1.000000
    2        2.464982   1.000000
    3        3.071149   1.000000
    4        3.241055   1.000000
    5        5.397159   0.000000
    6        7.396767   0.000000
    7        7.484142   0.000000
    8        7.720667   0.000000
 
  0.1052632E+00  0.1052632E+00  0.0000000E+00  0.8747631E-03
    1       -8.041923   1.000000
    2        2.126984   1.000000
    3        2.923879   1.000000
    4        2.923879   1.000000
    5        5.930787   0.000000
    6        6.963308   0.000000
    7        7.963393   0.000000
    8        7.963393   0.000000
 
  0.1578947E+00  0.1052632E+00  0.0000000E+00  0.3499052E-02
    1       -7.953603   1.000000
    2        1.598982   1.000000
    3        2.771497   1.000000
    4        2.810978   1.000000
    5        6.259806   0.000000
    6        6.860405   0.000000
    7        8.225344   0.000000
    8        8.265085   0.000000
 
  0.2105263E+00  0.1052632E+00  0.0000000E+00  0.3499052E-02
    1       -7.821744   1.000000
    2        0.930855   1.000000
    3        2.622297   1.000000
    4        2.689701   1.000000
    5        6.337237   0.000000
    6        7.018721   0.000000
    7        8.466691   0.000000
    8        8.598362   0.000000
 
  0.2631579E+00  0.1052632E+00  0.0000000E+00  0.3499052E-02
    1       -7.653055   1.000000
    2        0.243400   1.000000
    3        2.491241   1.000000
    4        2.531557   1.000000
    5        6.235234   0.000000
    6        7.326407   0.000000
    7        8.620780   0.000000
    8        8.837199   0.000000
 
  0.3157895E+00  0.1052632E+00  0.0000000E+00  0.3499052E-02
    1       -7.458303   1.000000
    2       -0.408791   1.000000
    3        2.355108   1.000000
    4        2.388283   1.000000
    5        6.099422   0.000000
    6        7.565875   0.000000
    7        8.653689   0.000000
    8        9.098254   0.000000
 
  0.3684211E+00  0.1052632E+00  0.0000000E+00  0.3499052E-02
    1       -7.254186   1.000000
    2       -0.987440   1.000000
    3        2.181737   1.000000
    4        2.319477   1.000000
    5        5.973819   0.000000
    6        7.651711   0.000000
    7        8.588342   0.000000
    8        9.550993   0.000000
 
  0.4210526E+00  0.1052632E+00  0.0000000E+00  0.3499052E-02
    1       -7.065087   1.000000
    2       -1.455882   1.000000
    3        2.027111   1.000000
    4        2.287921   1.000000
    5        5.875709   0.000000
    6        7.651089   0.000000
    7        8.475509   0.000000
    8       10.148561   0.000000
 
  0.4736842E+00  0.1052632E+00  0.0000000E+00  0.3499052E-02
    1       -6.922836   1.000000
    2       -1.775044   1.000000
    3        1.901739   1.000000
    4        2.294480   1.000000
    5        5.813591   0.000000
    6        7.644315   0.000000
    7        8.358097   0.000000
    8       10.734743   0.000000
 
 -0.4736842E+00  0.1052632E+00  0.0000000E+00  0.3499052E-02
    1       -6.859615   1.000000
    2       -1.908851   1.000000
    3        1.812699   1.000000
    4        2.338131   1.000000
    5        5.791390   0.000000
    6        7.668985   0.000000
    7        8.261698   0.000000
    8       11.091351   0.000000
 
 -0.4210526E+00  0.1052632E+00  0.0000000E+00  0.3499052E-02
    1       -6.892611   1.000000
    2       -1.838779   1.000000
    3        1.764961   1.000000
    4        2.416125   1.000000
    5        5.810030   0.000000
    6        7.736753   0.000000
    7        8.197039   0.000000
    8       11.100995   0.000000
 
 -0.3684211E+00  0.1052632E+00  0.0000000E+00  0.3499052E-02
    1       -7.012582   1.000000
    2       -1.575236   1.000000
    3        1.762222   1.000000
    4        2.523866   1.000000
    5        5.867928   0.000000
    6        7.843347   0.000000
    7        8.161813   0.000000
    8       10.770071   0.000000
 
 -0.3157895E+00  0.1052632E+00  0.0000000E+00  0.3499052E-02
    1       -7.190275   1.000000
    2       -1.151475   1.000000
    3        1.807444   1.000000
    4        2.654567   1.000000
    5        5.960382   0.000000
    6        7.966108   0.000000
    7        8.139112   0.000000
    8       10.194679   0.000000
 
 -0.2631579E+00  0.1052632E+00  0.0000000E+00  0.3499052E-02
    1       -7.392560   1.000000
    2       -0.608707   1.000000
    3        1.903472   1.000000
    4        2.798609   1.000000
    5        6.076786   0.000000
    6        8.045509   0.000000
    7        8.095696   0.000000
    8        9.575528   0.000000
 
 -0.2105263E+00  0.1052632E+00  0.0000000E+00  0.3499052E-02
    1       -7.592423   1.000000
    2        0.011194   1.000000
    3        2.054090   1.000000
    4        2.942722   1.000000
    5        6.191697   0.000000
    6        7.957705   0.000000
    7        7.995339   0.000000
    8        9.098743   0.000000
 
 -0.1578947E+00  0.1052632E+00  0.0000000E+00  0.3499052E-02
    1       -7.770895   1.000000
    2        0.661648   1.000000
    3        2.266080   1.000000
    4        3.069383   1.000000
    5        6.238711   0.000000
    6        7.673469   0.000000
    7        7.839359   0.000000
    8        8.803901   0.000000
 
 -0.1052632E+00  0.1052632E+00  0.0000000E+00  0.1749526E-02
    1       -7.915510   1.000000
    2        1.280184   1.000000
    3        2.549706   1.000000
    4        3.157900   1.000000
    5        6.091520   0.000000
    6        7.467294   0.000000
    7        7.683173   0.000000
    8        8.483382   0.000000
 
  0.1578947E+00  0.1578947E+00  0.0000000E+00  0.8747631E-03
    1       -7.881668   1.000000
    2        1.366105   1.000000
    3        2.602975   1.000000
    4        2.602976   1.000000
    5        6.512759   0.000000
    6        6.662976   0.000000
    7        8.538088   0.000000
    8        8.538088   0.000000
 
  0.2105263E+00  0.1578947E+00  0.0000000E+00  0.3499052E-02
    1       -7.765773   1.000000
    2        0.892540   1.000000
    3        2.441151   1.000000
    4        2.446144   1.000000
    5        6.403657   0.000000
    6        6.856052   0.000000
    7        8.807221   0.000000
    8        8.841022   0.000000
 
  0.2631579E+00  0.1578947E+00  0.0000000E+00  0.3499052E-02
    1       -7.611632   1.000000
    2        0.316930   1.000000
    3        2.265349   1.000000
    4        2.301140   1.000000
    5        6.351784   0.000000
    6        7.062238   0.000000
    7        8.813708   0.000000
    8        9.063379   0.000000
 
  0.3157895E+00  0.1578947E+00  0.0000000E+00  0.3499052E-02
    1       -7.428581   1.000000
    2       -0.271835   1.000000
    3        2.050706   1.000000
    4        2.192917   1.000000
    5        6.280431   0.000000
    6        7.372132   0.000000
    7        8.725357   0.000000
    8        9.153189   0.000000
 
  0.3684211E+00  0.1578947E+00  0.0000000E+00  0.3499052E-02
    1       -7.231137   1.000000
    2       -0.820720   1.000000
    3        1.826820   1.000000
    4        2.122567   1.000000
    5        6.192591   0.000000
    6        7.674438   0.000000
    7        8.806270   0.000000
    8        9.116321   0.000000
 
  0.4210526E+00  0.1578947E+00  0.0000000E+00  0.3499052E-02
    1       -7.040658   1.000000
    2       -1.287168   1.000000
    3        1.617657   1.000000
    4        2.093242   1.000000
    5        6.119437   0.000000
    6        7.790161   0.000000
    7        9.003194   0.000000
    8        9.232636   0.000000
 
  0.4736842E+00  0.1578947E+00  0.0000000E+00  0.3499052E-02
    1       -6.885905   1.000000
    2       -1.630011   1.000000
    3        1.439661   1.000000
    4        2.105827   1.000000
    5        6.080116   0.000000
    6        7.790058   0.000000
    7        8.864812   0.000000
    8        9.898528   0.000000
 
 -0.4736842E+00  0.1578947E+00  0.0000000E+00  0.3499052E-02
    1       -6.798487   1.000000
    2       -1.810646   1.000000
    3        1.303694   1.000000
    4        2.159238   1.000000
    5        6.082661   0.000000
    6        7.784713   0.000000
    7        8.734029   0.000000
    8       10.618266   0.000000
 
 -0.4210526E+00  0.1578947E+00  0.0000000E+00  0.3499052E-02
    1       -6.800560   1.000000
    2       -1.804263   1.000000
    3        1.217566   1.000000
    4        2.250447   1.000000
    5        6.127885   0.000000
    6        7.813215   0.000000
    7        8.626367   0.000000
    8       11.069430   0.000000
 
 -0.3684211E+00  0.1578947E+00  0.0000000E+00  0.3499052E-02
    1       -6.891469   1.000000
    2       -1.612956   1.000000
    3        1.188071   1.000000
    4        2.374261   1.000000
    5        6.211448   0.000000
    6        7.884630   0.000000
    7        8.542637   0.000000
    8       10.767466   0.000000
 
 -0.3157895E+00  0.1578947E+00  0.0000000E+00  0.3499052E-02
    1       -7.048256   1.000000
    2       -1.266206   1.000000
    3        1.222774   1.000000
    4        2.522787   1.000000
    5        6.324031   0.000000
    6        7.988714   0.000000
    7        8.467821   0.000000
    8       10.103918   0.000000
 
 -0.2631579E+00  0.1578947E+00  0.0000000E+00  0.3499052E-02
    1       -7.239311   1.000000
    2       -0.809716   1.000000
    3        1.332279   1.000000
    4        2.684636   1.000000
    5        6.448035   0.000000
    6        8.076549   0.000000
    7        8.369417   0.000000
    8        9.445600   0.000000
 
 -0.2105263E+00  0.1578947E+00  0.0000000E+00  0.3499052E-02
    1       -7.436279   1.000000
    2       -0.297514   1.000000
    3        1.532877   1.000000
    4        2.843970   1.000000
    5        6.543390   0.000000
    6        8.005464   0.000000
    7        8.214221   0.000000
    8        9.026150   0.000000
 
 -0.1578947E+00  0.1578947E+00  0.0000000E+00  0.1749526E-02
    1       -7.618219   1.000000
    2        0.210313   1.000000
    3        1.844420   1.000000
    4        2.980091   1.000000
    5        6.509185   0.000000
    6        7.762440   0.000000
    7        8.015129   0.000000
    8        8.919429   0.000000
 
  0.2105263E+00  0.2105263E+00  0.0000000E+00  0.8747631E-03
    1       -7.666264   1.000000
    2        0.628583   1.000000
    3        2.267331   1.000000
    4        2.267331   1.000000
    5        6.120364   0.000000
    6        6.954636   0.000000
    7        9.222218   0.000000
    8        9.222219   0.000000
 
  0.2631579E+00  0.2105263E+00  0.0000000E+00  0.3499052E-02
    1       -7.528102   1.000000
    2        0.209875   1.000000
    3        2.086325   1.000000
    4        2.116700   1.000000
    5        6.011131   0.000000
    6        6.947399   0.000000
    7        9.307930   0.000000
    8        9.537586   0.000000
 
  0.3157895E+00  0.2105263E+00  0.0000000E+00  0.3499052E-02
    1       -7.359489   1.000000
    2       -0.268501   1.000000
    3        1.849758   1.000000
    4        1.999697   1.000000
    5        6.019503   0.000000
    6        7.029221   0.000000
    7        9.143575   0.000000
    8        9.716351   0.000000
 
  0.3684211E+00  0.2105263E+00  0.0000000E+00  0.3499052E-02
    1       -7.173123   1.000000
    2       -0.742788   1.000000
    3        1.575194   1.000000
    4        1.922751   1.000000
    5        6.016738   0.000000
    6        7.337713   0.000000
    7        8.981275   0.000000
    8        9.738155   0.000000
 
  0.4210526E+00  0.2105263E+00  0.0000000E+00  0.3499052E-02
    1       -6.987700   1.000000
    2       -1.166379   1.000000
    3        1.301043   1.000000
    4        1.889341   1.000000
    5        5.989037   0.000000
    6        7.816931   0.000000
    7        8.902482   0.000000
    8        9.646855   0.000000
 
  0.4736842E+00  0.2105263E+00  0.0000000E+00  0.3499052E-02
    1       -6.828655   1.000000
    2       -1.497207   1.000000
    3        1.056972   1.000000
    4        1.900649   1.000000
    5        5.979346   0.000000
    6        8.208247   0.000000
    7        9.101038   0.000000
    8        9.502664   0.000000
 
 -0.4736842E+00  0.2105263E+00  0.0000000E+00  0.3499052E-02
    1       -6.725280   1.000000
    2       -1.696173   1.000000
    3        0.861820   1.000000
    4        1.955857   1.000000
    5        6.011847   0.000000
    6        8.305418   0.000000
    7        9.347842   0.000000
    8        9.726744   0.000000
 
 -0.4210526E+00  0.2105263E+00  0.0000000E+00  0.3499052E-02
    1       -6.701481   1.000000
    2       -1.735506   1.000000
    3        0.728544   1.000000
    4        2.052132   1.000000
    5        6.093562   0.000000
    6        8.313601   0.000000
    7        9.203003   0.000000
    8       10.478104   0.000000
 
 -0.3684211E+00  0.2105263E+00  0.0000000E+00  0.3499052E-02
    1       -6.763205   1.000000
    2       -1.611950   1.000000
    3        0.668994   1.000000
    4        2.184325   1.000000
    5        6.221144   0.000000
    6        8.333993   0.000000
    7        9.069907   0.000000
    8       10.675089   0.000000
 
 -0.3157895E+00  0.2105263E+00  0.0000000E+00  0.3499052E-02
    1       -6.894831   1.000000
    2       -1.352631   1.000000
    3        0.698194   1.000000
    4        2.344315   1.000000
    5        6.381593   0.000000
    6        8.383160   0.000000
    7        8.930125   0.000000
    8       10.024826   0.000000
 
 -0.2631579E+00  0.2105263E+00  0.0000000E+00  0.3499052E-02
    1       -7.068543   1.000000
    2       -1.008677   1.000000
    3        0.837910   1.000000
    4        2.520026   1.000000
    5        6.545866   0.000000
    6        8.428496   0.000000
    7        8.745728   0.000000
    8        9.330727   0.000000
 
 -0.2105263E+00  0.2105263E+00  0.0000000E+00  0.1749526E-02
    1       -7.256424   1.000000
    2       -0.641265   1.000000
    3        1.113665   1.000000
    4        2.694236   1.000000
    5        6.646151   0.000000
    6        8.279592   0.000000
    7        8.492568   0.000000
    8        8.977779   0.000000
 
  0.2631579E+00  0.2631579E+00  0.0000000E+00  0.8747631E-03
    1       -7.406703   1.000000
    2       -0.065579   1.000000
    3        1.954991   1.000000
    4        1.954991   1.000000
    5        5.732121   0.000000
    6        6.759648   0.000000
    7        9.972742   0.000000
    8        9.973202   0.000000
 
  0.3157895E+00  0.2631579E+00  0.0000000E+00  0.3499052E-02
    1       -7.254706   1.000000
    2       -0.428712   1.000000
    3        1.765599   1.000000
    4        1.827290   1.000000
    5        5.649593   0.000000
    6        6.634401   0.000000
    7        9.986998   0.000000
    8       10.282023   0.000000
 
  0.3684211E+00  0.2631579E+00  0.0000000E+00  0.3499052E-02
    1       -7.083383   1.000000
    2       -0.808822   1.000000
    3        1.486555   1.000000
    4        1.740623   1.000000
    5        5.685924   0.000000
    6        6.712972   0.000000
    7        9.825028   0.000000
    8       10.406396   0.000000
 
  0.4210526E+00  0.2631579E+00  0.0000000E+00  0.3499052E-02
    1       -6.909268   1.000000
    2       -1.158173   1.000000
    3        1.161057   1.000000
    4        1.698938   1.000000
    5        5.712044   0.000000
    6        7.082171   0.000000
    7        9.666322   0.000000
    8       10.368236   0.000000
 
  0.4736842E+00  0.2631579E+00  0.0000000E+00  0.3499052E-02
    1       -6.754600   1.000000
    2       -1.438955   1.000000
    3        0.843537   1.000000
    4        1.703850   1.000000
    5        5.728527   0.000000
    6        7.674090   0.000000
    7        9.545170   0.000000
    8       10.236666   0.000000
 
 -0.4736842E+00  0.2631579E+00  0.0000000E+00  0.3499052E-02
    1       -6.645368   1.000000
    2       -1.617910   1.000000
    3        0.573182   1.000000
    4        1.754953   1.000000
    5        5.776818   0.000000
    6        8.356503   0.000000
    7        9.515778   0.000000
    8       10.067543   0.000000
 
 -0.4210526E+00  0.2631579E+00  0.0000000E+00  0.3499052E-02
    1       -6.604319   1.000000
    2       -1.671733   1.000000
    3        0.376747   1.000000
    4        1.849830   1.000000
    5        5.874799   0.000000
    6        8.865422   0.000000
    7        9.780073   0.000000
    8        9.887578   0.000000
 
 -0.3684211E+00  0.2631579E+00  0.0000000E+00  0.3499052E-02
    1       -6.640822   1.000000
    2       -1.599416   1.000000
    3        0.277587   1.000000
    4        1.983733   1.000000
    5        6.023856   0.000000
    6        9.012050   0.000000
    7        9.695508   0.000000
    8       10.332705   0.000000
 
 -0.3157895E+00  0.2631579E+00  0.0000000E+00  0.3499052E-02
    1       -6.745702   1.000000
    2       -1.430875   1.000000
    3        0.303449   1.000000
    4        2.148906   1.000000
    5        6.213222   0.000000
    6        9.046804   0.000000
    7        9.460327   0.000000
    8        9.981560   0.000000
 
 -0.2631579E+00  0.2631579E+00  0.0000000E+00  0.1749526E-02
    1       -6.896728   1.000000
    2       -1.218963   1.000000
    3        0.485640   1.000000
    4        2.333473   1.000000
    5        6.413086   0.000000
    6        8.947059   0.000000
    7        9.138641   0.000000
    8        9.377799   0.000000
 
  0.3157895E+00  0.3157895E+00  0.0000000E+00  0.8747631E-03
    1       -7.120800   1.000000
    2       -0.698158   1.000000
    3        1.688109   1.000000
    4        1.688109   1.000000
    5        5.396569   0.000000
    6        6.351064   0.000000
    7       10.761615   0.000000
    8       10.761708   0.000000
 
  0.3684211E+00  0.3157895E+00  0.0000000E+00  0.3499052E-02
    1       -6.968063   1.000000
    2       -0.999952   1.000000
    3        1.502798   1.000000
    4        1.589986   1.000000
    5        5.345253   0.000000
    6        6.237382   0.000000
    7       10.795689   0.000000
    8       11.052239   0.000000
 
  0.4210526E+00  0.3157895E+00  0.0000000E+00  0.3499052E-02
    1       -6.811295   1.000000
    2       -1.278804   1.000000
    3        1.199605   1.000000
    4        1.537462   1.000000
    5        5.404904   0.000000
    6        6.386344   0.000000
    7       10.647951   0.000000
    8       11.119926   0.000000
 
  0.4736842E+00  0.3157895E+00  0.0000000E+00  0.3499052E-02
    1       -6.669947   1.000000
    2       -1.497647   1.000000
    3        0.843796   1.000000
    4        1.532659   1.000000
    5        5.459515   0.000000
    6        6.842222   0.000000
    7       10.495603   0.000000
    8       11.029451   0.000000
 
 -0.4736842E+00  0.3157895E+00  0.0000000E+00  0.3499052E-02
    1       -6.566253   1.000000
    2       -1.630668   1.000000
    3        0.504616   1.000000
    4        1.575643   1.000000
    5        5.523909   0.000000
    6        7.514879   0.000000
    7       10.368850   0.000000
    8       10.856412   0.000000
 
 -0.4210526E+00  0.3157895E+00  0.0000000E+00  0.3499052E-02
    1       -6.519692   1.000000
    2       -1.666031   1.000000
    3        0.235095   1.000000
    4        1.664504   1.000000
    5        5.630519   0.000000
    6        8.303612   0.000000
    7       10.291460   0.000000
    8       10.635429   0.000000
 
 -0.3684211E+00  0.3157895E+00  0.0000000E+00  0.3499052E-02
    1       -6.539464   1.000000
    2       -1.615990   1.000000
    3        0.081714   1.000000
    4        1.795077   1.000000
    5        5.788524   0.000000
    6        9.081426   0.000000
    7       10.308819   0.000000
    8       10.353895   0.000000
 
 -0.3157895E+00  0.3157895E+00  0.0000000E+00  0.1749526E-02
    1       -6.620322   1.000000
    2       -1.522025   1.000000
    3        0.093140   1.000000
    4        1.960256   1.000000
    5        5.991329   0.000000
    6        9.485481   0.000000
    7        9.963806   0.000000
    8       10.166312   0.000000
 
  0.3684211E+00  0.3684211E+00  0.0000000E+00  0.8747631E-03
    1       -6.836770   1.000000
    2       -1.241951   1.000000
    3        1.479644   1.000000
    4        1.479644   1.000000
    5        5.127658   0.000000
    6        5.968015   0.000000
    7       11.563762   0.000000
    8       11.563802   0.000000
 
  0.4210526E+00  0.3684211E+00  0.0000000E+00  0.3499052E-02
    1       -6.703027   1.000000
    2       -1.469027   1.000000
    3        1.308880   1.000000
    4        1.414857   1.000000
    5        5.112055   0.000000
    6        5.915604   0.000000
    7       11.635331   0.000000
    8       11.821858   0.000000
 
  0.4736842E+00  0.3684211E+00  0.0000000E+00  0.3499052E-02
    1       -6.583919   1.000000
    2       -1.638804   1.000000
    3        1.002464   1.000000
    4        1.398296   1.000000
    5        5.201605   0.000000
    6        6.152384   0.000000
    7       11.504619   0.000000
    8       11.825562   0.000000
 