 running on   48 total cores
 distrk:  each k-point on   12 cores,    4 groups
 distr:  one band on   12 cores,    1 groups
 using from now: INCAR     
 vasp.5.4.4.18Apr17-6-g9f103f2a35 (build Nov 04 2020 14:40:39) complex          
  
 POSCAR found type information on POSCAR  Al As
 POSCAR found :  2 types and       2 ions
 scaLAPACK will be used

 ----------------------------------------------------------------------------- 
|                                                                             |
|           W    W    AA    RRRRR   N    N  II  N    N   GGGG   !!!           |
|           W    W   A  A   R    R  NN   N  II  NN   N  G    G  !!!           |
|           W    W  A    A  R    R  N N  N  II  N N  N  G       !!!           |
|           W WW W  AAAAAA  RRRRR   N  N N  II  N  N N  G  GGG   !            |
|           WW  WW  A    A  R   R   N   NN  II  N   NN  G    G                |
|           W    W  A    A  R    R  N    N  II  N    N   GGGG   !!!           |
|                                                                             |
|      You have enabled k-point parallelism (KPAR>1).                         |
|      This developmental code was originally  written by Paul Kent at ORNL,  |
|      and carefully double checked in Vienna.                                |
|      GW as well as linear response parallelism added by Martijn Marsman     |
|      and Georg Kresse.                                                      |
|      Carefully verify results versus KPAR=1.                                |
|      Report problems to Paul Kent and Vienna.                               |
|                                                                             |
 ----------------------------------------------------------------------------- 

 LDA part: xc-table for Pade appr. of Perdew
 POSCAR found type information on POSCAR  Al As
 POSCAR found :  2 types and       2 ions
 generate k-points for:   19   19   19
 POSCAR, INCAR and KPOINTS ok, starting setup
 FFT: planning ...
 WAVECAR not read
 entering main loop
       N       E                     dE             d eps       ncg     rms          rms(c)
DAV:   1     0.141659367276E+02    0.14166E+02   -0.30156E+03  3560   0.741E+02
DAV:   2    -0.894235479909E+01   -0.23108E+02   -0.22802E+02  4696   0.881E+01
DAV:   3    -0.956488953414E+01   -0.62253E+00   -0.62253E+00  4304   0.191E+01
DAV:   4    -0.956795789901E+01   -0.30684E-02   -0.30684E-02  5664   0.151E+00
DAV:   5    -0.956796604560E+01   -0.81466E-05   -0.81466E-05  4472   0.634E-02    0.261E+00
RMM:   6    -0.938614214773E+01    0.18182E+00   -0.21387E-01  3537   0.240E+00    0.143E+00
RMM:   7    -0.935865801495E+01    0.27484E-01   -0.10924E-01  3714   0.182E+00    0.468E-01
RMM:   8    -0.935899626263E+01   -0.33825E-03   -0.58859E-03  3772   0.615E-01    0.468E-02
RMM:   9    -0.935926736546E+01   -0.27110E-03   -0.30697E-04  4131   0.135E-01    0.217E-02
RMM:  10    -0.935930788667E+01   -0.40521E-04   -0.65418E-05  3957   0.609E-02    0.408E-03
RMM:  11    -0.935931109062E+01   -0.32040E-05   -0.88840E-06  4186   0.209E-02    0.361E-03
RMM:  12    -0.935930997590E+01    0.11147E-05   -0.16911E-06  3330   0.729E-03    0.319E-04
RMM:  13    -0.935931010414E+01   -0.12825E-06   -0.16372E-07  2405   0.312E-03
   1 F= -.93593101E+01 E0= -.93593101E+01  d E =0.000000E+00
