   2   2   0   0
  0.1453603E+02  0.3451413E-09  0.3451413E-09  0.3451413E-09  0.0000000E+00
  1.000000000000000E-004
  CAR 
 unknown system                          
     17.46198116    -10.61176287  301      5.48969907      1.00000000
    -10.612  0.0000E+00  0.0000E+00
    -10.518  0.0000E+00  0.0000E+00
    -10.425  0.0000E+00  0.0000E+00
    -10.331  0.0000E+00  0.0000E+00
    -10.237  0.0000E+00  0.0000E+00
    -10.144  0.0000E+00  0.0000E+00
    -10.050  0.0000E+00  0.0000E+00
     -9.957  0.0000E+00  0.0000E+00
     -9.863  0.0000E+00  0.0000E+00
     -9.770  0.0000E+00  0.0000E+00
     -9.676  0.0000E+00  0.0000E+00
     -9.582  0.0000E+00  0.0000E+00
     -9.489  0.0000E+00  0.0000E+00
     -9.395  0.0000E+00  0.0000E+00
     -9.302  0.4384E-01  0.7127E-03
     -9.208  0.9033E-01  0.7231E-02
     -9.114  0.1239E+00  0.1746E-01
     -9.021  0.1520E+00  0.3029E-01
     -8.927  0.1718E+00  0.4542E-01
     -8.834  0.1942E+00  0.6257E-01
     -8.740  0.2115E+00  0.8153E-01
     -8.647  0.2311E+00  0.1022E+00
     -8.553  0.2471E+00  0.1246E+00
     -8.459  0.2641E+00  0.1485E+00
     -8.366  0.2811E+00  0.1741E+00
     -8.272  0.2964E+00  0.2011E+00
     -8.179  0.3129E+00  0.2296E+00
     -8.085  0.3292E+00  0.2596E+00
     -7.992  0.3450E+00  0.2912E+00
     -7.898  0.3616E+00  0.3242E+00
     -7.804  0.3791E+00  0.3589E+00
     -7.711  0.3962E+00  0.3952E+00
     -7.617  0.4144E+00  0.4331E+00
     -7.524  0.4338E+00  0.4728E+00
     -7.430  0.4543E+00  0.5143E+00
     -7.336  0.4764E+00  0.5578E+00
     -7.243  0.5006E+00  0.6035E+00
     -7.149  0.5273E+00  0.6516E+00
     -7.056  0.5590E+00  0.7024E+00
     -6.962  0.5964E+00  0.7564E+00
     -6.869  0.6432E+00  0.8143E+00
     -6.775  0.7107E+00  0.8773E+00
     -6.681  0.8552E+00  0.9500E+00
     -6.588  0.8574E+00  0.1031E+01
     -6.494  0.8323E+00  0.1110E+01
     -6.401  0.8254E+00  0.1188E+01
     -6.307  0.8100E+00  0.1265E+01
     -6.214  0.7914E+00  0.1340E+01
     -6.120  0.7846E+00  0.1413E+01
     -6.026  0.7727E+00  0.1486E+01
     -5.933  0.7637E+00  0.1558E+01
     -5.839  0.7655E+00  0.1630E+01
     -5.746  0.7677E+00  0.1701E+01
     -5.652  0.7894E+00  0.1774E+01
     -5.558  0.8560E+00  0.1850E+01
     -5.465  0.1099E+01  0.1940E+01
     -5.371  0.1941E+00  0.1996E+01
     -5.278  0.0000E+00  0.2000E+01
     -5.184  0.0000E+00  0.2000E+01
     -5.091  0.0000E+00  0.2000E+01
     -4.997  0.0000E+00  0.2000E+01
     -4.903  0.0000E+00  0.2000E+01
     -4.810  0.0000E+00  0.2000E+01
     -4.716  0.0000E+00  0.2000E+01
     -4.623  0.0000E+00  0.2000E+01
     -4.529  0.0000E+00  0.2000E+01
     -4.436  0.0000E+00  0.2000E+01
     -4.342  0.0000E+00  0.2000E+01
     -4.248  0.0000E+00  0.2000E+01
     -4.155  0.0000E+00  0.2000E+01
     -4.061  0.0000E+00  0.2000E+01
     -3.968  0.0000E+00  0.2000E+01
     -3.874  0.0000E+00  0.2000E+01
     -3.780  0.0000E+00  0.2000E+01
     -3.687  0.0000E+00  0.2000E+01
     -3.593  0.0000E+00  0.2000E+01
     -3.500  0.0000E+00  0.2000E+01
     -3.406  0.0000E+00  0.2000E+01
     -3.313  0.0000E+00  0.2000E+01
     -3.219  0.0000E+00  0.2000E+01
     -3.125  0.0000E+00  0.2000E+01
     -3.032  0.0000E+00  0.2000E+01
     -2.938  0.0000E+00  0.2000E+01
     -2.845  0.0000E+00  0.2000E+01
     -2.751  0.1864E+00  0.2008E+01
     -2.658  0.3109E+00  0.2029E+01
     -2.564  0.5282E+00  0.2070E+01
     -2.470  0.7675E+00  0.2131E+01
     -2.377  0.1069E+01  0.2217E+01
     -2.283  0.1830E+01  0.2347E+01
     -2.190  0.1896E+01  0.2558E+01
     -2.096  0.1200E+01  0.2694E+01
     -2.002  0.9348E+00  0.2792E+01
     -1.909  0.8039E+00  0.2873E+01
     -1.815  0.6872E+00  0.2943E+01
     -1.722  0.6274E+00  0.3004E+01
     -1.628  0.5713E+00  0.3060E+01
     -1.535  0.5143E+00  0.3111E+01
     -1.441  0.4816E+00  0.3158E+01
     -1.347  0.4522E+00  0.3201E+01
     -1.254  0.4204E+00  0.3242E+01
     -1.160  0.3887E+00  0.3280E+01
     -1.067  0.3708E+00  0.3316E+01
     -0.973  0.3534E+00  0.3349E+01
     -0.880  0.3336E+00  0.3382E+01
     -0.786  0.3112E+00  0.3412E+01
     -0.692  0.2964E+00  0.3440E+01
     -0.599  0.2849E+00  0.3467E+01
     -0.505  0.2726E+00  0.3494E+01
     -0.412  0.2598E+00  0.3518E+01
     -0.318  0.2438E+00  0.3542E+01
     -0.224  0.2321E+00  0.3564E+01
     -0.131  0.4074E+00  0.3589E+01
     -0.037  0.5357E+00  0.3632E+01
      0.056  0.6677E+00  0.3689E+01
      0.150  0.8739E+00  0.3759E+01
      0.243  0.9716E+00  0.3851E+01
      0.337  0.9324E+00  0.3941E+01
      0.431  0.8608E+00  0.4025E+01
      0.524  0.8446E+00  0.4105E+01
      0.618  0.8273E+00  0.4183E+01
      0.711  0.7930E+00  0.4259E+01
      0.805  0.8126E+00  0.4334E+01
      0.898  0.8681E+00  0.4411E+01
      0.992  0.8502E+00  0.4491E+01
      1.086  0.8719E+00  0.4572E+01
      1.179  0.8901E+00  0.4655E+01
      1.273  0.9466E+00  0.4740E+01
      1.366  0.9517E+00  0.4829E+01
      1.460  0.1012E+01  0.4921E+01
      1.554  0.1088E+01  0.5017E+01
      1.647  0.1217E+01  0.5123E+01
      1.741  0.1239E+01  0.5242E+01
      1.834  0.1232E+01  0.5357E+01
      1.928  0.1221E+01  0.5473E+01
      2.021  0.1203E+01  0.5586E+01
      2.115  0.1185E+01  0.5698E+01
      2.209  0.1166E+01  0.5808E+01
      2.302  0.1152E+01  0.5916E+01
      2.396  0.1141E+01  0.6023E+01
      2.489  0.1123E+01  0.6129E+01
      2.583  0.1111E+01  0.6234E+01
      2.676  0.1088E+01  0.6337E+01
      2.770  0.1070E+01  0.6438E+01
      2.864  0.1063E+01  0.6538E+01
      2.957  0.1049E+01  0.6637E+01
      3.051  0.1034E+01  0.6734E+01
      3.144  0.1021E+01  0.6830E+01
      3.238  0.1009E+01  0.6925E+01
      3.332  0.9986E+00  0.7019E+01
      3.425  0.9840E+00  0.7112E+01
      3.519  0.9657E+00  0.7203E+01
      3.612  0.9673E+00  0.7293E+01
      3.706  0.9483E+00  0.7383E+01
      3.799  0.7789E+00  0.7466E+01
      3.893  0.6658E+00  0.7533E+01
      3.987  0.5946E+00  0.7592E+01
      4.080  0.5309E+00  0.7644E+01
      4.174  0.4789E+00  0.7691E+01
      4.267  0.4324E+00  0.7734E+01
      4.361  0.3961E+00  0.7773E+01
      4.454  0.3563E+00  0.7808E+01
      4.548  0.3225E+00  0.7840E+01
      4.642  0.2897E+00  0.7868E+01
      4.735  0.2579E+00  0.7894E+01
      4.829  0.2309E+00  0.7917E+01
      4.922  0.2017E+00  0.7937E+01
      5.016  0.1709E+00  0.7954E+01
      5.110  0.1499E+00  0.7969E+01
      5.203  0.1198E+00  0.7982E+01
      5.297  0.9426E-01  0.7992E+01
      5.390  0.4747E-01  0.7998E+01
      5.484  0.0000E+00  0.8000E+01
      5.577  0.0000E+00  0.8000E+01
      5.671  0.0000E+00  0.8000E+01
      5.765  0.0000E+00  0.8000E+01
      5.858  0.0000E+00  0.8000E+01
      5.952  0.0000E+00  0.8000E+01
      6.045  0.0000E+00  0.8000E+01
      6.139  0.0000E+00  0.8000E+01
      6.232  0.0000E+00  0.8000E+01
      6.326  0.0000E+00  0.8000E+01
      6.420  0.0000E+00  0.8000E+01
      6.513  0.0000E+00  0.8000E+01
      6.607  0.0000E+00  0.8000E+01
      6.700  0.0000E+00  0.8000E+01
      6.794  0.4981E-01  0.8001E+01
      6.888  0.1243E+00  0.8010E+01
      6.981  0.1777E+00  0.8024E+01
      7.075  0.2346E+00  0.8043E+01
      7.168  0.2973E+00  0.8068E+01
      7.262  0.3407E+00  0.8098E+01
      7.355  0.3786E+00  0.8132E+01
      7.449  0.4190E+00  0.8169E+01
      7.543  0.4617E+00  0.8210E+01
      7.636  0.5064E+00  0.8256E+01
      7.730  0.5487E+00  0.8305E+01
      7.823  0.5863E+00  0.8358E+01
      7.917  0.6770E+00  0.8417E+01
      8.010  0.7782E+00  0.8486E+01
      8.104  0.8623E+00  0.8562E+01
      8.198  0.9608E+00  0.8647E+01
      8.291  0.1077E+01  0.8743E+01
      8.385  0.1243E+01  0.8851E+01
      8.478  0.1517E+01  0.8978E+01
      8.572  0.1909E+01  0.9142E+01
      8.666  0.1556E+01  0.9308E+01
      8.759  0.1386E+01  0.9444E+01
      8.853  0.1304E+01  0.9570E+01
      8.946  0.1244E+01  0.9689E+01
      9.040  0.1157E+01  0.9802E+01
      9.133  0.1143E+01  0.9909E+01
      9.227  0.9964E+00  0.1001E+02
      9.321  0.8224E+00  0.1010E+02
      9.414  0.7447E+00  0.1017E+02
      9.508  0.7367E+00  0.1024E+02
      9.601  0.7939E+00  0.1031E+02
      9.695  0.7526E+00  0.1038E+02
      9.788  0.8353E+00  0.1046E+02
      9.882  0.9171E+00  0.1054E+02
      9.976  0.1222E+01  0.1064E+02
     10.069  0.1946E+01  0.1081E+02
     10.163  0.1923E+01  0.1098E+02
     10.256  0.1896E+01  0.1115E+02
     10.350  0.1527E+01  0.1131E+02
     10.444  0.1554E+01  0.1146E+02
     10.537  0.1236E+01  0.1158E+02
     10.631  0.1218E+01  0.1170E+02
     10.724  0.1190E+01  0.1181E+02
     10.818  0.1065E+01  0.1192E+02
     10.911  0.9938E+00  0.1201E+02
     11.005  0.9618E+00  0.1210E+02
     11.099  0.1024E+01  0.1219E+02
     11.192  0.9872E+00  0.1229E+02
     11.286  0.1034E+01  0.1238E+02
     11.379  0.1080E+01  0.1248E+02
     11.473  0.1235E+01  0.1259E+02
     11.566  0.1188E+01  0.1271E+02
     11.660  0.1227E+01  0.1282E+02
     11.754  0.1247E+01  0.1294E+02
     11.847  0.1158E+01  0.1305E+02
     11.941  0.1202E+01  0.1316E+02
     12.034  0.1164E+01  0.1327E+02
     12.128  0.1171E+01  0.1338E+02
     12.222  0.1134E+01  0.1349E+02
     12.315  0.1110E+01  0.1359E+02
     12.409  0.1040E+01  0.1369E+02
     12.502  0.1033E+01  0.1379E+02
     12.596  0.1003E+01  0.1388E+02
     12.689  0.9543E+00  0.1398E+02
     12.783  0.7784E+00  0.1406E+02
     12.877  0.7113E+00  0.1413E+02
     12.970  0.7024E+00  0.1419E+02
     13.064  0.7199E+00  0.1426E+02
     13.157  0.7391E+00  0.1433E+02
     13.251  0.7457E+00  0.1440E+02
     13.344  0.7558E+00  0.1447E+02
     13.438  0.7798E+00  0.1454E+02
     13.532  0.8086E+00  0.1461E+02
     13.625  0.8411E+00  0.1469E+02
     13.719  0.8876E+00  0.1477E+02
     13.812  0.9730E+00  0.1486E+02
     13.906  0.1096E+01  0.1495E+02
     14.000  0.1410E+01  0.1507E+02
     14.093  0.1442E+01  0.1521E+02
     14.187  0.1073E+01  0.1533E+02
     14.280  0.1105E+01  0.1543E+02
     14.374  0.7816E+00  0.1553E+02
     14.467  0.4718E+00  0.1558E+02
     14.561  0.4509E+00  0.1562E+02
     14.655  0.4182E+00  0.1566E+02
     14.748  0.3852E+00  0.1570E+02
     14.842  0.3636E+00  0.1574E+02
     14.935  0.3337E+00  0.1577E+02
     15.029  0.3067E+00  0.1580E+02
     15.123  0.2815E+00  0.1583E+02
     15.216  0.2603E+00  0.1585E+02
     15.310  0.2433E+00  0.1587E+02
     15.403  0.2254E+00  0.1590E+02
     15.497  0.2075E+00  0.1592E+02
     15.590  0.1759E+00  0.1593E+02
     15.684  0.1540E+00  0.1595E+02
     15.778  0.1353E+00  0.1596E+02
     15.871  0.1199E+00  0.1598E+02
     15.965  0.1049E+00  0.1599E+02
     16.058  0.6375E-01  0.1599E+02
     16.152  0.3902E-01  0.1600E+02
     16.245  0.0000E+00  0.1600E+02
     16.339  0.0000E+00  0.1600E+02
     16.433  0.0000E+00  0.1600E+02
     16.526  0.0000E+00  0.1600E+02
     16.620  0.0000E+00  0.1600E+02
     16.713  0.0000E+00  0.1600E+02
     16.807  0.0000E+00  0.1600E+02
     16.901  0.0000E+00  0.1600E+02
     16.994  0.0000E+00  0.1600E+02
     17.088  0.0000E+00  0.1600E+02
     17.181  0.0000E+00  0.1600E+02
     17.275  0.0000E+00  0.1600E+02
     17.368  0.0000E+00  0.1600E+02
     17.462  0.0000E+00  0.1600E+02
