    2    2    1    1
  0.1453603E+02  0.3451413E-09  0.3451413E-09  0.3451413E-09  0.0000000E+00
  1.000000000000000E-004
  CAR 
 unknown system                          
      8    364      8
 
  0.0000000E+00  0.0000000E+00  0.0000000E+00  0.8218953E-04
    1       -9.335684   1.000000
    2        5.480983   1.000000
    3        5.480983   1.000000
    4        5.480983   1.000000
    5        8.672279   0.000000
    6        8.672279   0.000000
    7        8.672279   0.000000
    8        9.387597   0.000000
 
  0.4347826E-01  0.0000000E+00  0.0000000E+00  0.6575162E-03
    1       -9.306367   1.000000
    2        5.156032   1.000000
    3        5.421325   1.000000
    4        5.421325   1.000000
    5        8.715586   0.000000
    6        8.750661   0.000000
    7        8.750661   0.000000
    8        9.603522   0.000000
 
  0.8695652E-01  0.0000000E+00  0.0000000E+00  0.6575162E-03
    1       -9.218622   1.000000
    2        4.391436   1.000000
    3        5.262021   1.000000
    4        5.262021   1.000000
    5        8.695829   0.000000
    6        8.961534   0.000000
    7        8.961534   0.000000
    8       10.198529   0.000000
 
  0.1304348E+00  0.0000000E+00  0.0000000E+00  0.6575162E-03
    1       -9.073387   1.000000
    2        3.450469   1.000000
    3        5.044225   1.000000
    4        5.044225   1.000000
    5        8.595397   0.000000
    6        9.249718   0.000000
    7        9.249718   0.000000
    8       10.947713   0.000000
 
  0.1739130E+00  0.0000000E+00  0.0000000E+00  0.6575162E-03
    1       -8.872297   1.000000
    2        2.456441   1.000000
    3        4.804954   1.000000
    4        4.804954   1.000000
    5        8.461427   0.000000
    6        9.555376   0.000000
    7        9.555376   0.000000
    8       11.708952   0.000000
 
  0.2173913E+00  0.0000000E+00  0.0000000E+00  0.6575162E-03
    1       -8.618215   1.000000
    2        1.464560   1.000000
    3        4.569384   1.000000
    4        4.569384   1.000000
    5        8.320038   0.000000
    6        9.826704   0.000000
    7        9.826704   0.000000
    8       12.428146   0.000000
 
  0.2608696E+00  0.0000000E+00  0.0000000E+00  0.6575162E-03
    1       -8.315834   1.000000
    2        0.505462   1.000000
    3        4.352838   1.000000
    4        4.352838   1.000000
    5        8.185897   0.000000
    6       10.027700   0.000000
    7       10.027700   0.000000
    8       13.072273   0.000000
 
  0.3043478E+00  0.0000000E+00  0.0000000E+00  0.6575162E-03
    1       -7.973167   1.000000
    2       -0.398320   1.000000
    3        4.164478   1.000000
    4        4.164478   1.000000
    5        8.067473   0.000000
    6       10.146533   0.000000
    7       10.146533   0.000000
    8       13.596539   0.000000
 
  0.3478261E+00  0.0000000E+00  0.0000000E+00  0.6575162E-03
    1       -7.604354   1.000000
    2       -1.223801   1.000000
    3        4.009668   1.000000
    4        4.009668   1.000000
    5        7.969592   0.000000
    6       10.195672   0.000000
    7       10.195672   0.000000
    8       13.948850   0.000000
 
  0.3913043E+00  0.0000000E+00  0.0000000E+00  0.6575162E-03
    1       -7.235263   1.000000
    2       -1.939431   1.000000
    3        3.891600   1.000000
    4        3.891600   1.000000
    5        7.894841   0.000000
    6       10.201049   0.000000
    7       10.201049   0.000000
    8       14.124514   0.000000
 
  0.4347826E+00  0.0000000E+00  0.0000000E+00  0.6575162E-03
    1       -6.913372   1.000000
    2       -2.494120   1.000000
    3        3.812100   1.000000
    4        3.812100   1.000000
    5        7.844565   0.000000
    6       10.188805   0.000000
    7       10.188805   0.000000
    8       14.185605   0.000000
 
  0.4782609E+00  0.0000000E+00  0.0000000E+00  0.6575162E-03
    1       -6.714824   1.000000
    2       -2.809584   1.000000
    3        3.772138   1.000000
    4        3.772138   1.000000
    5        7.819314   0.000000
    6       10.177896   0.000000
    7       10.177896   0.000000
    8       14.199113   0.000000
 
  0.4347826E-01  0.4347826E-01  0.0000000E+00  0.4931372E-03
    1       -9.296579   1.000000
    2        5.249076   1.000000
    3        5.299155   1.000000
    4        5.299155   1.000000
    5        8.545640   0.000000
    6        8.896695   0.000000
    7        8.896695   0.000000
    8        9.623588   0.000000
 
  0.8695652E-01  0.4347826E-01  0.0000000E+00  0.1972549E-02
    1       -9.228274   1.000000
    2        4.631499   1.000000
    3        5.096248   1.000000
    4        5.253802   1.000000
    5        8.525961   0.000000
    6        9.027853   0.000000
    7        9.158122   0.000000
    8       10.049399   0.000000
 
  0.1304348E+00  0.4347826E-01  0.0000000E+00  0.1972549E-02
    1       -9.102163   1.000000
    2        3.750004   1.000000
    3        4.854184   1.000000
    4        5.115861   1.000000
    5        8.601262   0.000000
    6        9.068647   0.000000
    7        9.480477   0.000000
    8       10.737833   0.000000
 
  0.1739130E+00  0.4347826E-01  0.0000000E+00  0.1972549E-02
    1       -8.919574   1.000000
    2        2.779484   1.000000
    3        4.605232   1.000000
    4        4.909050   1.000000
    5        8.601035   0.000000
    6        9.218191   0.000000
    7        9.809686   0.000000
    8       11.463642   0.000000
 
  0.2173913E+00  0.4347826E-01  0.0000000E+00  0.1972549E-02
    1       -8.682954   1.000000
    2        1.792210   1.000000
    3        4.370268   1.000000
    4        4.673159   1.000000
    5        8.507387   0.000000
    6        9.464487   0.000000
    7       10.097441   0.000000
    8       12.143594   0.000000
 
  0.2608696E+00  0.4347826E-01  0.0000000E+00  0.1972549E-02
    1       -8.396239   1.000000
    2        0.826037   1.000000
    3        4.161976   1.000000
    4        4.435298   1.000000
    5        8.387115   0.000000
    6        9.701954   0.000000
    7       10.307173   0.000000
    8       12.751875   0.000000
 
  0.3043478E+00  0.4347826E-01  0.0000000E+00  0.1972549E-02
    1       -8.066158   1.000000
    2       -0.093871   1.000000
    3        3.987921   1.000000
    4        4.211947   1.000000
    5        8.269874   0.000000
    6        9.877898   0.000000
    7       10.423637   0.000000
    8       13.279666   0.000000
 
  0.3478261E+00  0.4347826E-01  0.0000000E+00  0.1972549E-02
    1       -7.704335   1.000000
    2       -0.944882   1.000000
    3        3.852483   1.000000
    4        4.013018   1.000000
    5        8.167639   0.000000
    6        9.984005   0.000000
    7       10.456559   0.000000
    8       13.709017   0.000000
 
  0.3913043E+00  0.4347826E-01  0.0000000E+00  0.1972549E-02
    1       -7.331883   1.000000
    2       -1.698966   1.000000
    3        3.757995   1.000000
    4        3.844651   1.000000
    5        8.085946   0.000000
    6       10.039248   0.000000
    7       10.431958   0.000000
    8       14.007807   0.000000
 
  0.4347826E+00  0.4347826E-01  0.0000000E+00  0.1972549E-02
    1       -6.987734   1.000000
    2       -2.312742   1.000000
    3        3.705513   1.000000
    4        3.710872   1.000000
    5        8.027524   0.000000
    6       10.070768   0.000000
    7       10.378583   0.000000
    8       14.171699   0.000000
 
  0.4782609E+00  0.4347826E-01  0.0000000E+00  0.1972549E-02
    1       -6.738813   1.000000
    2       -2.716596   1.000000
    3        3.614429   1.000000
    4        3.695118   1.000000
    5        7.993650   0.000000
    6       10.100912   0.000000
    7       10.318925   0.000000
    8       14.241510   0.000000
 
 -0.4782609E+00  0.4347826E-01  0.0000000E+00  0.1972549E-02
    1       -6.667771   1.000000
    2       -2.826401   1.000000
    3        3.557322   1.000000
    4        3.726247   1.000000
    5        7.984856   0.000000
    6       10.142657   0.000000
    7       10.266272   0.000000
    8       14.259942   0.000000
 
 -0.4347826E+00  0.4347826E-01  0.0000000E+00  0.1972549E-02
    1       -6.806044   1.000000
    2       -2.610416   1.000000
    3        3.541014   1.000000
    4        3.797775   1.000000
    5        8.001235   0.000000
    6       10.199078   0.000000
    7       10.224264   0.000000
    8       14.239873   0.000000
 
 -0.3913043E+00  0.4347826E-01  0.0000000E+00  0.1972549E-02
    1       -7.095984   1.000000
    2       -2.126959   1.000000
    3        3.566486   1.000000
    4        3.908065   1.000000
    5        8.042600   0.000000
    6       10.187043   0.000000
    7       10.263339   0.000000
    8       14.158862   0.000000
 
 -0.3478261E+00  0.4347826E-01  0.0000000E+00  0.1972549E-02
    1       -7.455492   1.000000
    2       -1.460021   1.000000
    3        3.634194   1.000000
    4        4.054756   1.000000
    5        8.108340   0.000000
    6       10.139328   0.000000
    7       10.318274   0.000000
    8       13.967333   0.000000
 
 -0.3043478E+00  0.4347826E-01  0.0000000E+00  0.1972549E-02
    1       -7.827600   1.000000
    2       -0.669809   1.000000
    3        3.743945   1.000000
    4        4.234614   1.000000
    5        8.197123   0.000000
    6       10.058308   0.000000
    7       10.336564   0.000000
    8       13.627084   0.000000
 
 -0.2608696E+00  0.4347826E-01  0.0000000E+00  0.1972549E-02
    1       -8.180582   1.000000
    2        0.206692   1.000000
    3        3.894608   1.000000
    4        4.442807   1.000000
    5        8.306364   0.000000
    6        9.920063   0.000000
    7       10.284863   0.000000
    8       13.152317   0.000000
 
 -0.2173913E+00  0.4347826E-01  0.0000000E+00  0.1972549E-02
    1       -8.497161   1.000000
    2        1.143942   1.000000
    3        4.083723   1.000000
    4        4.671895   1.000000
    5        8.431164   0.000000
    6        9.712249   0.000000
    7       10.136643   0.000000
    8       12.583762   0.000000
 
 -0.1739130E+00  0.4347826E-01  0.0000000E+00  0.1972549E-02
    1       -8.767737   1.000000
    2        2.118760   1.000000
    3        4.306861   1.000000
    4        4.909865   1.000000
    5        8.562482   0.000000
    6        9.446370   0.000000
    7        9.890321   0.000000
    8       11.946936   0.000000
 
 -0.1304348E+00  0.4347826E-01  0.0000000E+00  0.1972549E-02
    1       -8.986666   1.000000
    2        3.101330   1.000000
    3        4.556936   1.000000
    4        5.137221   1.000000
    5        8.683356   0.000000
    6        9.160040   0.000000
    7        9.577708   0.000000
    8       11.256093   0.000000
 
 -0.8695652E-01  0.4347826E-01  0.0000000E+00  0.1972549E-02
    1       -9.150614   1.000000
    2        4.038645   1.000000
    3        4.825007   1.000000
    4        5.323654   1.000000
    5        8.759596   0.000000
    6        8.909320   0.000000
    7        9.258498   0.000000
    8       10.546561   0.000000
 
 -0.4347826E-01  0.4347826E-01  0.0000000E+00  0.9862743E-03
    1       -9.257547   1.000000
    2        4.798435   1.000000
    3        5.120723   1.000000
    4        5.429366   1.000000
    5        8.740680   0.000000
    6        8.756891   0.000000
    7        8.997126   0.000000
    8        9.928333   0.000000
 
  0.8695652E-01  0.8695652E-01  0.0000000E+00  0.4931372E-03
    1       -9.179480   1.000000
    2        4.660811   1.000000
    3        4.864711   1.000000
    4        4.864711   1.000000
    5        8.288044   0.000000
    6        9.458083   0.000000
    7        9.458083   0.000000
    8       10.098758   0.000000
 
  0.1304348E+00  0.8695652E-01  0.0000000E+00  0.1972549E-02
    1       -9.072703   1.000000
    2        3.959736   1.000000
    3        4.606226   1.000000
    4        4.781038   1.000000
    5        8.242850   0.000000
    6        9.583126   0.000000
    7        9.811083   0.000000
    8       10.584319   0.000000
 
  0.1739130E+00  0.8695652E-01  0.0000000E+00  0.1972549E-02
    1       -8.909059   1.000000
    2        3.056601   1.000000
    3        4.349308   1.000000
    4        4.644450   1.000000
    5        8.351538   0.000000
    6        9.540076   0.000000
    7       10.168000   0.000000
    8       11.224145   0.000000
 
  0.2173913E+00  0.8695652E-01  0.0000000E+00  0.1972549E-02
    1       -8.690611   1.000000
    2        2.102832   1.000000
    3        4.112423   1.000000
    4        4.434869   1.000000
    5        8.500934   0.000000
    6        9.525996   0.000000
    7       10.482814   0.000000
    8       11.788102   0.000000
 
  0.2608696E+00  0.8695652E-01  0.0000000E+00  0.1972549E-02
    1       -8.420702   1.000000
    2        1.149783   1.000000
    3        3.907021   1.000000
    4        4.192130   1.000000
    5        8.577795   0.000000
    6        9.604131   0.000000
    7       10.717026   0.000000
    8       12.247319   0.000000
 
  0.3043478E+00  0.8695652E-01  0.0000000E+00  0.1972549E-02
    1       -8.105012   1.000000
    2        0.228814   1.000000
    3        3.740076   1.000000
    4        3.944639   1.000000
    5        8.562044   0.000000
    6        9.739825   0.000000
    7       10.849847   0.000000
    8       12.658940   0.000000
 
  0.3478261E+00  0.8695652E-01  0.0000000E+00  0.1972549E-02
    1       -7.753187   1.000000
    2       -0.635366   1.000000
    3        3.615673   1.000000
    4        3.709859   1.000000
    5        8.502504   0.000000
    6        9.857978   0.000000
    7       10.885498   0.000000
    8       13.086914   0.000000
 
  0.3913043E+00  0.8695652E-01  0.0000000E+00  0.1972549E-02
    1       -7.382518   1.000000
    2       -1.416107   1.000000
    3        3.498523   1.000000
    4        3.535982   1.000000
    5        8.437076   0.000000
    6        9.933180   0.000000
    7       10.848015   0.000000
    8       13.531764   0.000000
 
  0.4347826E+00  0.8695652E-01  0.0000000E+00  0.1972549E-02
    1       -7.024757   1.000000
    2       -2.075724   1.000000
    3        3.317652   1.000000
    4        3.501822   1.000000
    5        8.383803   0.000000
    6        9.981099   0.000000
    7       10.767716   0.000000
    8       13.931263   0.000000
 
  0.4782609E+00  0.8695652E-01  0.0000000E+00  0.1972549E-02
    1       -6.736657   1.000000
    2       -2.553754   1.000000
    3        3.172110   1.000000
    4        3.512987   1.000000
    5        8.350563   0.000000
    6       10.025650   0.000000
    7       10.670299   0.000000
    8       14.214341   0.000000
 
 -0.4782609E+00  0.8695652E-01  0.0000000E+00  0.1972549E-02
    1       -6.599746   1.000000
    2       -2.766593   1.000000
    3        3.065546   1.000000
    4        3.568397   1.000000
    5        8.340572   0.000000
    6       10.084027   0.000000
    7       10.572464   0.000000
    8       14.355676   0.000000
 
 -0.4347826E+00  0.8695652E-01  0.0000000E+00  0.1972549E-02
    1       -6.670858   1.000000
    2       -2.656625   1.000000
    3        3.000800   1.000000
    4        3.666216   1.000000
    5        8.354693   0.000000
    6       10.163689   0.000000
    7       10.481163   0.000000
    8       14.362981   0.000000
 
 -0.3913043E+00  0.8695652E-01  0.0000000E+00  0.1972549E-02
    1       -6.918663   1.000000
    2       -2.255644   1.000000
    3        2.980112   1.000000
    4        3.803790   1.000000
    5        8.392549   0.000000
    6       10.262196   0.000000
    7       10.393747   0.000000
    8       14.231704   0.000000
 
 -0.3478261E+00  0.8695652E-01  0.0000000E+00  0.1972549E-02
    1       -7.261199   1.000000
    2       -1.647375   1.000000
    3        3.005231   1.000000
    4        3.977521   1.000000
    5        8.452970   0.000000
    6       10.298306   0.000000
    7       10.366146   0.000000
    8       13.948464   0.000000
 
 -0.3043478E+00  0.8695652E-01  0.0000000E+00  0.1972549E-02
    1       -7.632055   1.000000
    2       -0.901687   1.000000
    3        3.077449   1.000000
    4        4.182460   1.000000
    5        8.533824   0.000000
    6       10.175349   0.000000
    7       10.448333   0.000000
    8       13.535457   0.000000
 
 -0.2608696E+00  0.8695652E-01  0.0000000E+00  0.1972549E-02
    1       -7.992450   1.000000
    2       -0.063183   1.000000
    3        3.197743   1.000000
    4        4.411620   1.000000
    5        8.631453   0.000000
    6       10.004067   0.000000
    7       10.465787   0.000000
    8       13.058084   0.000000
 
 -0.2173913E+00  0.8695652E-01  0.0000000E+00  0.1972549E-02
    1       -8.321340   1.000000
    2        0.837119   1.000000
    3        3.367273   1.000000
    4        4.654733   1.000000
    5        8.738980   0.000000
    6        9.774915   0.000000
    7       10.369050   0.000000
    8       12.578515   0.000000
 
 -0.1739130E+00  0.8695652E-01  0.0000000E+00  0.1972549E-02
    1       -8.607072   1.000000
    2        1.769406   1.000000
    3        3.589121   1.000000
    4        4.896067   1.000000
    5        8.842838   0.000000
    6        9.502311   0.000000
    7       10.137135   0.000000
    8       12.109581   0.000000
 
 -0.1304348E+00  0.8695652E-01  0.0000000E+00  0.1972549E-02
    1       -8.842929   1.000000
    2        2.688110   1.000000
    3        3.875642   1.000000
    4        5.111450   1.000000
    5        8.914076   0.000000
    6        9.227521   0.000000
    7        9.815038   0.000000
    8       11.612848   0.000000
 
 -0.8695652E-01  0.8695652E-01  0.0000000E+00  0.9862743E-03
    1       -9.024912   1.000000
    2        3.491642   1.000000
    3        4.274887   1.000000
    4        5.266628   1.000000
    5        8.893493   0.000000
    6        9.009789   0.000000
    7        9.504693   0.000000
    8       11.067586   0.000000
 
  0.1304348E+00  0.1304348E+00  0.0000000E+00  0.4931372E-03
    1       -8.985286   1.000000
    2        3.883348   1.000000
    3        4.336887   1.000000
    4        4.336887   1.000000
    5        7.979546   0.000000
    6       10.194431   0.000000
    7       10.194431   0.000000
    8       10.520795   0.000000
 
  0.1739130E+00  0.1304348E+00  0.0000000E+00  0.1972549E-02
    1       -8.840835   1.000000
    2        3.207221   1.000000
    3        4.072825   1.000000
    4        4.188801   1.000000
    5        7.927529   0.000000
    6       10.222272   0.000000
    7       10.584645   0.000000
    8       10.992029   0.000000
 
  0.2173913E+00  0.1304348E+00  0.0000000E+00  0.1972549E-02
    1       -8.641054   1.000000
    2        2.342564   1.000000
    3        3.831593   1.000000
    4        4.021963   1.000000
    5        8.050196   0.000000
    6       10.118789   0.000000
    7       10.937010   0.000000
    8       11.453278   0.000000
 
  0.2608696E+00  0.1304348E+00  0.0000000E+00  0.1972549E-02
    1       -8.388825   1.000000
    2        1.437620   1.000000
    3        3.624341   1.000000
    4        3.789951   1.000000
    5        8.244708   0.000000
    6       10.066651   0.000000
    7       11.210702   0.000000
    8       11.746432   0.000000
 
  0.3043478E+00  0.1304348E+00  0.0000000E+00  0.1972549E-02
    1       -8.088980   1.000000
    2        0.540358   1.000000
    3        3.458039   1.000000
    4        3.527503   1.000000
    5        8.406148   0.000000
    6       10.090237   0.000000
    7       11.378406   0.000000
    8       11.974852   0.000000
 
  0.3478261E+00  0.1304348E+00  0.0000000E+00  0.1972549E-02
    1       -7.749605   1.000000
    2       -0.318044   1.000000
    3        3.262532   1.000000
    4        3.336902   1.000000
    5        8.487263   0.000000
    6       10.156564   0.000000
    7       11.436574   0.000000
    8       12.275627   0.000000
 
  0.3913043E+00  0.1304348E+00  0.0000000E+00  0.1972549E-02
    1       -7.384988   1.000000
    2       -1.109364   1.000000
    3        3.012675   1.000000
    4        3.263249   1.000000
    5        8.508530   0.000000
    6       10.209270   0.000000
    7       11.404982   0.000000
    8       12.713604   0.000000
 
  0.4347826E+00  0.1304348E+00  0.0000000E+00  0.1972549E-02
    1       -7.021053   1.000000
    2       -1.798876   1.000000
    3        2.789074   1.000000
    4        3.237989   1.000000
    5        8.508799   0.000000
    6       10.233916   0.000000
    7       11.314209   0.000000
    8       13.254575   0.000000
 
  0.4782609E+00  0.1304348E+00  0.0000000E+00  0.1972549E-02
    1       -6.704994   1.000000
    2       -2.333922   1.000000
    3        2.599238   1.000000
    4        3.260937   1.000000
    5        8.514511   0.000000
    6       10.249410   0.000000
    7       11.192798   0.000000
    8       13.802962   0.000000
 
 -0.4782609E+00  0.1304348E+00  0.0000000E+00  0.1972549E-02
    1       -6.511542   1.000000
    2       -2.636521   1.000000
    3        2.448620   1.000000
    4        3.330942   1.000000
    5        8.538423   0.000000
    6       10.276691   0.000000
    7       11.060747   0.000000
    8       14.231839   0.000000
 
 -0.4347826E+00  0.1304348E+00  0.0000000E+00  0.1972549E-02
    1       -6.513304   1.000000
    2       -2.632651   1.000000
    3        2.341455   1.000000
    4        3.445873   1.000000
    5        8.584587   0.000000
    6       10.328765   0.000000
    7       10.928020   0.000000
    8       14.416721   0.000000
 
 -0.3913043E+00  0.1304348E+00  0.0000000E+00  0.1972549E-02
    1       -6.709388   1.000000
    2       -2.323432   1.000000
    3        2.281259   1.000000
    4        3.602550   1.000000
    5        8.652104   0.000000
    6       10.410101   0.000000
    7       10.794527   0.000000
    8       14.302423   0.000000
 
 -0.3478261E+00  0.1304348E+00  0.0000000E+00  0.1972549E-02
    1       -7.026528   1.000000
    2       -1.784113   1.000000
    3        2.271175   1.000000
    4        3.796476   1.000000
    5        8.737313   0.000000
    6       10.515191   0.000000
    7       10.650786   0.000000
    8       13.935450   0.000000
 
 -0.3043478E+00  0.1304348E+00  0.0000000E+00  0.1972549E-02
    1       -7.390496   1.000000
    2       -1.093445   1.000000
    3        2.314580   1.000000
    4        4.021346   1.000000
    5        8.834852   0.000000
    6       10.479867   0.000000
    7       10.623639   0.000000
    8       13.425944   0.000000
 
 -0.2608696E+00  0.1304348E+00  0.0000000E+00  0.1972549E-02
    1       -7.754632   1.000000
    2       -0.306609   1.000000
    3        2.416212   1.000000
    4        4.268264   1.000000
    5        8.937280   0.000000
    6       10.264395   0.000000
    7       10.689731   0.000000
    8       12.894112   0.000000
 
 -0.2173913E+00  0.1304348E+00  0.0000000E+00  0.1972549E-02
    1       -8.093320   1.000000
    2        0.533787   1.000000
    3        2.585454   1.000000
    4        4.524243   1.000000
    5        9.032320   0.000000
    6        9.999444   0.000000
    7       10.635451   0.000000
    8       12.451192   0.000000
 
 -0.1739130E+00  0.1304348E+00  0.0000000E+00  0.1972549E-02
    1       -8.392414   1.000000
    2        1.376125   1.000000
    3        2.846348   1.000000
    4        4.770032   1.000000
    5        9.095488   0.000000
    6        9.705103   0.000000
    7       10.406600   0.000000
    8       12.151818   0.000000
 
 -0.1304348E+00  0.1304348E+00  0.0000000E+00  0.9862743E-03
    1       -8.643887   1.000000
    2        2.127832   1.000000
    3        3.259404   1.000000
    4        4.977761   1.000000
    5        9.075836   0.000000
    6        9.427533   0.000000
    7       10.085461   0.000000
    8       11.911946   0.000000
 
  0.1739130E+00  0.1739130E+00  0.0000000E+00  0.4931372E-03
    1       -8.715588   1.000000
    2        3.016434   1.000000
    3        3.802078   1.000000
    4        3.802078   1.000000
    5        7.659119   0.000000
    6       10.625159   0.000000
    7       11.015253   0.000000
    8       11.015253   0.000000
 
  0.2173913E+00  0.1739130E+00  0.0000000E+00  0.1972549E-02
    1       -8.534761   1.000000
    2        2.395402   1.000000
    3        3.554684   1.000000
    4        3.597885   1.000000
    5        7.615091   0.000000
    6       10.464560   0.000000
    7       11.415806   0.000000
    8       11.445764   0.000000
 
  0.2608696E+00  0.1739130E+00  0.0000000E+00  0.1972549E-02
    1       -8.300863   1.000000
    2        1.609718   1.000000
    3        3.342127   1.000000
    4        3.374318   1.000000
    5        7.753272   0.000000
    6       10.333298   0.000000
    7       11.680071   0.000000
    8       11.743480   0.000000
 
  0.3043478E+00  0.1739130E+00  0.0000000E+00  0.1972549E-02
    1       -8.018020   1.000000
    2        0.782098   1.000000
    3        3.099084   1.000000
    4        3.171670   1.000000
    5        7.964617   0.000000
    6       10.325068   0.000000
    7       11.755448   0.000000
    8       11.964203   0.000000
 
  0.3478261E+00  0.1739130E+00  0.0000000E+00  0.1972549E-02
    1       -7.693134   1.000000
    2       -0.037226   1.000000
    3        2.802603   1.000000
    4        3.047873   1.000000
    5        8.142469   0.000000
    6       10.464633   0.000000
    7       11.806171   0.000000
    8       12.064933   0.000000
 
  0.3913043E+00  0.1739130E+00  0.0000000E+00  0.1972549E-02
    1       -7.338151   1.000000
    2       -0.813130   1.000000
    3        2.511402   1.000000
    4        2.973334   1.000000
    5        8.246547   0.000000
    6       10.669379   0.000000
    7       11.982710   0.000000
    8       12.058478   0.000000
 
  0.4347826E+00  0.1739130E+00  0.0000000E+00  0.1972549E-02
    1       -6.974417   1.000000
    2       -1.509948   1.000000
    3        2.242573   1.000000
    4        2.949223   1.000000
    5        8.302779   0.000000
    6       10.797489   0.000000
    7       11.974054   0.000000
    8       12.401267   0.000000
 
  0.4782609E+00  0.1739130E+00  0.0000000E+00  0.1972549E-02
    1       -6.640888   1.000000
    2       -2.079887   1.000000
    3        2.007024   1.000000
    4        2.975545   1.000000
    5        8.349913   0.000000
    6       10.834922   0.000000
    7       11.842552   0.000000
    8       13.013424   0.000000
 
 -0.4782609E+00  0.1739130E+00  0.0000000E+00  0.1972549E-02
    1       -6.402925   1.000000
    2       -2.452128   1.000000
    3        1.812312   1.000000
    4        3.051266   1.000000
    5        8.412499   0.000000
    6       10.841225   0.000000
    7       11.687332   0.000000
    8       13.674883   0.000000
 
 -0.4347826E+00  0.1739130E+00  0.0000000E+00  0.1972549E-02
    1       -6.338857   1.000000
    2       -2.545828   1.000000
    3        1.664154   1.000000
    4        3.174246   1.000000
    5        8.500912   0.000000
    6       10.853958   0.000000
    7       11.521111   0.000000
    8       14.191795   0.000000
 
 -0.3913043E+00  0.1739130E+00  0.0000000E+00  0.1972549E-02
    1       -6.476064   1.000000
    2       -2.333450   1.000000
    3        1.567551   1.000000
    4        3.341109   1.000000
    5        8.616105   0.000000
    6       10.890049   0.000000
    7       11.345715   0.000000
    8       14.288744   0.000000
 
 -0.3478261E+00  0.1739130E+00  0.0000000E+00  0.1972549E-02
    1       -6.758836   1.000000
    2       -1.873646   1.000000
    3        1.527780   1.000000
    4        3.546954   1.000000
    5        8.752539   0.000000
    6       10.954788   0.000000
    7       11.152969   0.000000
    8       13.920435   0.000000
 
 -0.3043478E+00  0.1739130E+00  0.0000000E+00  0.1972549E-02
    1       -7.109065   1.000000
    2       -1.251906   1.000000
    3        1.552154   1.000000
    4        3.784732   1.000000
    5        8.899442   0.000000
    6       10.927599   0.000000
    7       11.040680   0.000000
    8       13.335407   0.000000
 
 -0.2608696E+00  0.1739130E+00  0.0000000E+00  0.1972549E-02
    1       -7.472215   1.000000
    2       -0.539240   1.000000
    3        1.654062   1.000000
    4        4.044282   1.000000
    5        9.040649   0.000000
    6       10.655548   0.000000
    7       11.110944   0.000000
    8       12.731588   0.000000
 
 -0.2173913E+00  0.1739130E+00  0.0000000E+00  0.1972549E-02
    1       -7.817275   1.000000
    2        0.196590   1.000000
    3        1.863609   1.000000
    4        4.310818   1.000000
    5        9.151764   0.000000
    6       10.338371   0.000000
    7       11.054975   0.000000
    8       12.288162   0.000000
 
 -0.1739130E+00  0.1739130E+00  0.0000000E+00  0.9862743E-03
    1       -8.127253   1.000000
    2        0.862981   1.000000
    3        2.243857   1.000000
    4        4.562784   1.000000
    5        9.191448   0.000000
    6       10.004255   0.000000
    7       10.764275   0.000000
    8       12.145247   0.000000
 
  0.2173913E+00  0.2173913E+00  0.0000000E+00  0.4931372E-03
    1       -8.372948   1.000000
    2        2.108735   1.000000
    3        3.300117   1.000000
    4        3.300117   1.000000
    5        7.358243   0.000000
    6       10.290457   0.000000
    7       11.875418   0.000000
    8       11.875418   0.000000
 
  0.2608696E+00  0.2173913E+00  0.0000000E+00  0.1972549E-02
    1       -8.157787   1.000000
    2        1.540192   1.000000
    3        3.062703   1.000000
    4        3.079987   1.000000
    5        7.333141   0.000000
    6       10.051061   0.000000
    7       12.208424   0.000000
    8       12.271347   0.000000
 
  0.3043478E+00  0.2173913E+00  0.0000000E+00  0.1972549E-02
    1       -7.892859   1.000000
    2        0.851046   1.000000
    3        2.774623   1.000000
    4        2.902163   1.000000
    5        7.489786   0.000000
    6        9.920234   0.000000
    7       12.326608   0.000000
    8       12.563307   0.000000
 