       N       E                     dE             d eps       ncg     rms          rms(c)
DAV:   1     0.986912322041E+01    0.98691E+01   -0.39125E+03  5824   0.864E+02
DAV:   2    -0.116238998392E+02   -0.21493E+02   -0.20985E+02  9064   0.103E+02
DAV:   3    -0.119024537671E+02   -0.27855E+00   -0.27855E+00  6840   0.139E+01
DAV:   4    -0.119027726596E+02   -0.31889E-03   -0.31889E-03  8792   0.517E-01
DAV:   5    -0.119027727747E+02   -0.11504E-06   -0.11504E-06  6656   0.713E-03    0.369E+00
RMM:   6    -0.114108750534E+02    0.49190E+00   -0.55060E-01  5895   0.480E+00    0.159E+00
RMM:   7    -0.113635277997E+02    0.47347E-01   -0.84655E-02  6218   0.190E+00    0.724E-01
RMM:   8    -0.113577536100E+02    0.57742E-02   -0.20265E-02  6271   0.108E+00    0.824E-02
RMM:   9    -0.113580988145E+02   -0.34520E-03   -0.91067E-04  6682   0.222E-01    0.406E-02
RMM:  10    -0.113580752811E+02    0.23533E-04   -0.72743E-05  6584   0.715E-02    0.139E-02
RMM:  11    -0.113580783709E+02   -0.30898E-05   -0.63725E-05  6373   0.492E-02    0.116E-02
RMM:  12    -0.113580707738E+02    0.75971E-05   -0.97437E-06  6406   0.206E-02    0.400E-04
RMM:  13    -0.113580708049E+02   -0.31156E-07   -0.14093E-07  4312   0.290E-03
   1 F= -.11358071E+02 E0= -.11358071E+02  d E =0.000000E+00
