   2   2   1   0
  0.9142859E+01  0.2957166E-09  0.2957166E-09  0.2957166E-09  0.1000000E-15
   1.0000000000000000E-004
  CAR 
 unknown system                          
     40.26841319    -16.21726704  301      5.66947918      1.00000000
    -16.217  0.0000E+00  0.0000E+00  0.0000E+00  0.0000E+00
    -16.029  0.0000E+00  0.0000E+00  0.0000E+00  0.0000E+00
    -15.841  0.0000E+00  0.0000E+00  0.0000E+00  0.0000E+00
    -15.652  0.0000E+00  0.0000E+00  0.0000E+00  0.0000E+00
    -15.464  0.0000E+00  0.0000E+00  0.0000E+00  0.0000E+00
    -15.276  0.0000E+00  0.0000E+00  0.0000E+00  0.0000E+00
    -15.088  0.0000E+00  0.0000E+00  0.0000E+00  0.0000E+00
    -14.899  0.0000E+00  0.0000E+00  0.0000E+00  0.0000E+00
    -14.711  0.0000E+00  0.0000E+00  0.0000E+00  0.0000E+00
    -14.523  0.0000E+00  0.0000E+00  0.0000E+00  0.0000E+00
    -14.334  0.0000E+00  0.0000E+00  0.0000E+00  0.0000E+00
    -14.146  0.0000E+00  0.0000E+00  0.0000E+00  0.0000E+00
    -13.958  0.0000E+00  0.0000E+00  0.0000E+00  0.0000E+00
    -13.770  0.1146E-07  0.0000E+00  0.2158E-08  0.0000E+00
    -13.581  0.3087E-03  0.0000E+00  0.5813E-04  0.0000E+00
    -13.393  0.1703E-02  0.0000E+00  0.3789E-03  0.0000E+00
    -13.205  0.3136E-02  0.1243E-08  0.9693E-03  0.2341E-09
    -13.016  0.4542E-02  0.1845E-03  0.1825E-02  0.3473E-04
    -12.828  0.6693E-02  0.1565E-02  0.3085E-02  0.3295E-03
    -12.640  0.9937E-02  0.2606E-02  0.4956E-02  0.8202E-03
    -12.452  0.1983E-01  0.3854E-02  0.8689E-02  0.1546E-02
    -12.263  0.4155E-01  0.4767E-02  0.1651E-01  0.2443E-02
    -12.075  0.8255E-03  0.7315E-02  0.1667E-01  0.3821E-02
    -11.887  0.0000E+00  0.1151E-01  0.1667E-01  0.5989E-02
    -11.698  0.0000E+00  0.2547E-01  0.1667E-01  0.1078E-01
    -11.510  0.0000E+00  0.3112E-01  0.1667E-01  0.1664E-01
    -11.322  0.0000E+00  0.1246E-03  0.1667E-01  0.1667E-01
    -11.134  0.0000E+00  0.0000E+00  0.1667E-01  0.1667E-01
    -10.945  0.0000E+00  0.0000E+00  0.1667E-01  0.1667E-01
    -10.757  0.0000E+00  0.0000E+00  0.1667E-01  0.1667E-01
    -10.569  0.0000E+00  0.0000E+00  0.1667E-01  0.1667E-01
    -10.380  0.0000E+00  0.0000E+00  0.1667E-01  0.1667E-01
    -10.192  0.0000E+00  0.0000E+00  0.1667E-01  0.1667E-01
    -10.004  0.0000E+00  0.0000E+00  0.1667E-01  0.1667E-01
     -9.816  0.0000E+00  0.0000E+00  0.1667E-01  0.1667E-01
     -9.627  0.0000E+00  0.0000E+00  0.1667E-01  0.1667E-01
     -9.439  0.0000E+00  0.0000E+00  0.1667E-01  0.1667E-01
     -9.251  0.0000E+00  0.0000E+00  0.1667E-01  0.1667E-01
     -9.062  0.0000E+00  0.0000E+00  0.1667E-01  0.1667E-01
     -8.874  0.0000E+00  0.0000E+00  0.1667E-01  0.1667E-01
     -8.686  0.0000E+00  0.0000E+00  0.1667E-01  0.1667E-01
     -8.498  0.0000E+00  0.0000E+00  0.1667E-01  0.1667E-01
     -8.309  0.0000E+00  0.0000E+00  0.1667E-01  0.1667E-01
     -8.121  0.0000E+00  0.0000E+00  0.1667E-01  0.1667E-01
     -7.933  0.0000E+00  0.0000E+00  0.1667E-01  0.1667E-01
     -7.744  0.0000E+00  0.0000E+00  0.1667E-01  0.1667E-01
     -7.556  0.0000E+00  0.0000E+00  0.1667E-01  0.1667E-01
     -7.368  0.0000E+00  0.0000E+00  0.1667E-01  0.1667E-01
     -7.180  0.0000E+00  0.0000E+00  0.1667E-01  0.1667E-01
     -6.991  0.0000E+00  0.0000E+00  0.1667E-01  0.1667E-01
     -6.803  0.0000E+00  0.0000E+00  0.1667E-01  0.1667E-01
     -6.615  0.0000E+00  0.0000E+00  0.1667E-01  0.1667E-01
     -6.426  0.0000E+00  0.0000E+00  0.1667E-01  0.1667E-01
     -6.238  0.0000E+00  0.0000E+00  0.1667E-01  0.1667E-01
     -6.050  0.0000E+00  0.0000E+00  0.1667E-01  0.1667E-01
     -5.862  0.0000E+00  0.0000E+00  0.1667E-01  0.1667E-01
     -5.673  0.0000E+00  0.0000E+00  0.1667E-01  0.1667E-01
     -5.485  0.0000E+00  0.0000E+00  0.1667E-01  0.1667E-01
     -5.297  0.0000E+00  0.0000E+00  0.1667E-01  0.1667E-01
     -5.108  0.0000E+00  0.0000E+00  0.1667E-01  0.1667E-01
     -4.920  0.0000E+00  0.0000E+00  0.1667E-01  0.1667E-01
     -4.732  0.0000E+00  0.0000E+00  0.1667E-01  0.1667E-01
     -4.544  0.0000E+00  0.0000E+00  0.1667E-01  0.1667E-01
     -4.355  0.0000E+00  0.0000E+00  0.1667E-01  0.1667E-01
     -4.167  0.0000E+00  0.0000E+00  0.1667E-01  0.1667E-01
     -3.979  0.0000E+00  0.0000E+00  0.1667E-01  0.1667E-01
     -3.790  0.0000E+00  0.0000E+00  0.1667E-01  0.1667E-01
     -3.602  0.0000E+00  0.0000E+00  0.1667E-01  0.1667E-01
     -3.414  0.0000E+00  0.0000E+00  0.1667E-01  0.1667E-01
     -3.226  0.0000E+00  0.0000E+00  0.1667E-01  0.1667E-01
     -3.037  0.0000E+00  0.0000E+00  0.1667E-01  0.1667E-01
     -2.849  0.0000E+00  0.0000E+00  0.1667E-01  0.1667E-01
     -2.661  0.0000E+00  0.0000E+00  0.1667E-01  0.1667E-01
     -2.472  0.0000E+00  0.0000E+00  0.1667E-01  0.1667E-01
     -2.284  0.0000E+00  0.0000E+00  0.1667E-01  0.1667E-01
     -2.096  0.0000E+00  0.0000E+00  0.1667E-01  0.1667E-01
     -1.908  0.7650E-14  0.0000E+00  0.1667E-01  0.1667E-01
     -1.719  0.1710E-04  0.0000E+00  0.1667E-01  0.1667E-01
     -1.531  0.1248E-02  0.1583E-11  0.1690E-01  0.1667E-01
     -1.343  0.2418E-02  0.5225E-04  0.1736E-01  0.1668E-01
     -1.154  0.4571E-02  0.1521E-02  0.1822E-01  0.1696E-01
     -0.966  0.7863E-02  0.2319E-02  0.1970E-01  0.1740E-01
     -0.778  0.1174E-01  0.3900E-02  0.2191E-01  0.1813E-01
     -0.590  0.1795E-01  0.5329E-02  0.2529E-01  0.1914E-01
     -0.401  0.1377E-01  0.6999E-02  0.2788E-01  0.2046E-01
     -0.213  0.1130E-01  0.1178E-01  0.3001E-01  0.2267E-01
     -0.025  0.9729E-02  0.1205E-01  0.3184E-01  0.2494E-01
      0.164  0.3791E-01  0.1669E-01  0.3898E-01  0.2808E-01
      0.352  0.3782E-01  0.1217E-01  0.4610E-01  0.3037E-01
      0.540  0.2888E-01  0.6248E-02  0.5154E-01  0.3155E-01
      0.728  0.1739E-01  0.6209E-02  0.5482E-01  0.3272E-01
      0.917  0.1995E-01  0.1517E-01  0.5857E-01  0.3558E-01
      1.105  0.1186E-01  0.1662E-01  0.6080E-01  0.3871E-01
      1.293  0.1222E-01  0.2064E-01  0.6311E-01  0.4259E-01
      1.482  0.8349E-02  0.3111E-01  0.6468E-01  0.4845E-01
      1.670  0.6568E-02  0.3683E-01  0.6591E-01  0.5539E-01
      1.858  0.2943E-02  0.2211E-01  0.6647E-01  0.5955E-01
      2.046  0.6870E-02  0.1438E-01  0.6776E-01  0.6226E-01
      2.235  0.2849E-01  0.1283E-01  0.7313E-01  0.6467E-01
      2.423  0.5648E-01  0.1092E-01  0.8376E-01  0.6673E-01
      2.611  0.5923E-01  0.1044E-01  0.9491E-01  0.6869E-01
      2.800  0.2789E-01  0.2010E-01  0.1002E+00  0.7248E-01
      2.988  0.1263E-01  0.2835E-01  0.1025E+00  0.7782E-01
      3.176  0.5015E-01  0.4165E-01  0.1120E+00  0.8566E-01
      3.364  0.4636E-01  0.6214E-01  0.1207E+00  0.9736E-01
      3.553  0.1278E-01  0.2912E-01  0.1231E+00  0.1028E+00
      3.741  0.1533E-01  0.4263E-01  0.1260E+00  0.1109E+00
      3.929  0.1889E-01  0.1588E-01  0.1296E+00  0.1139E+00
      4.118  0.1340E-01  0.1012E-01  0.1321E+00  0.1158E+00
      4.306  0.1033E-01  0.5464E-02  0.1340E+00  0.1168E+00
      4.494  0.1696E-01  0.2523E-02  0.1372E+00  0.1173E+00
      4.682  0.1177E-01  0.8939E-02  0.1394E+00  0.1190E+00
      4.871  0.8102E-02  0.1440E-01  0.1410E+00  0.1217E+00
      5.059  0.1734E-01  0.2263E-01  0.1442E+00  0.1259E+00
      5.247  0.8064E-02  0.8530E-02  0.1457E+00  0.1275E+00
      5.436  0.1411E-01  0.1306E-01  0.1484E+00  0.1300E+00
      5.624  0.7938E-02  0.1578E-01  0.1499E+00  0.1330E+00
      5.812  0.5287E-03  0.9252E-02  0.1500E+00  0.1347E+00
      6.000  0.1018E-09  0.1730E-01  0.1500E+00  0.1380E+00
      6.189  0.0000E+00  0.9783E-02  0.1500E+00  0.1398E+00
      6.377  0.0000E+00  0.9388E-02  0.1500E+00  0.1416E+00
      6.565  0.0000E+00  0.1520E-01  0.1500E+00  0.1444E+00
      6.754  0.0000E+00  0.8390E-02  0.1500E+00  0.1460E+00
      6.942  0.0000E+00  0.1374E-01  0.1500E+00  0.1486E+00
      7.130  0.0000E+00  0.7150E-02  0.1500E+00  0.1499E+00
      7.318  0.8638E-13  0.3032E-03  0.1500E+00  0.1500E+00
      7.507  0.9837E-05  0.1506E-11  0.1500E+00  0.1500E+00
      7.695  0.2242E-04  0.3898E-06  0.1500E+00  0.1500E+00
      7.883  0.7285E-04  0.3183E-04  0.1500E+00  0.1500E+00
      8.072  0.3471E-03  0.1054E-06  0.1501E+00  0.1500E+00
      8.260  0.3172E-04  0.2511E-03  0.1501E+00  0.1501E+00
      8.448  0.2367E-03  0.1999E-03  0.1501E+00  0.1501E+00
      8.636  0.1518E-03  0.5638E-06  0.1502E+00  0.1501E+00
      8.825  0.1010E-02  0.3607E-03  0.1504E+00  0.1502E+00
      9.013  0.2096E-04  0.3063E-04  0.1504E+00  0.1502E+00
      9.201  0.3695E-04  0.1024E-02  0.1504E+00  0.1504E+00
      9.390  0.9019E-03  0.3842E-05  0.1505E+00  0.1504E+00
      9.578  0.8043E-03  0.2397E-05  0.1507E+00  0.1504E+00
      9.766  0.9007E-03  0.9396E-03  0.1509E+00  0.1505E+00
      9.954  0.1860E-03  0.7871E-03  0.1509E+00  0.1507E+00
     10.143  0.7639E-03  0.9662E-03  0.1510E+00  0.1509E+00
     10.331  0.1167E-02  0.7906E-04  0.1513E+00  0.1509E+00
     10.519  0.1508E-02  0.7448E-03  0.1515E+00  0.1510E+00
     10.708  0.1278E-02  0.1085E-02  0.1518E+00  0.1512E+00
     10.896  0.1338E-02  0.1655E-02  0.1520E+00  0.1515E+00
     11.084  0.3139E-03  0.1136E-02  0.1521E+00  0.1518E+00
     11.272  0.3544E-02  0.9182E-03  0.1528E+00  0.1519E+00
     11.461  0.1926E-02  0.8935E-03  0.1531E+00  0.1521E+00
     11.649  0.1803E-02  0.2456E-02  0.1535E+00  0.1526E+00
     11.837  0.2239E-02  0.3044E-02  0.1539E+00  0.1531E+00
     12.026  0.4774E-02  0.1949E-02  0.1548E+00  0.1535E+00
     12.214  0.6101E-02  0.3509E-02  0.1559E+00  0.1542E+00
     12.402  0.5123E-02  0.5906E-02  0.1569E+00  0.1553E+00
     12.590  0.5651E-02  0.4656E-02  0.1580E+00  0.1561E+00
     12.779  0.4524E-02  0.6665E-02  0.1588E+00  0.1574E+00
     12.967  0.4424E-02  0.5960E-02  0.1596E+00  0.1585E+00
     13.155  0.8339E-02  0.3050E-02  0.1612E+00  0.1591E+00
     13.344  0.2931E-02  0.6093E-02  0.1618E+00  0.1602E+00
     13.532  0.4019E-02  0.7262E-02  0.1625E+00  0.1616E+00
     13.720  0.3181E-02  0.3288E-02  0.1631E+00  0.1622E+00
     13.908  0.8349E-02  0.3721E-02  0.1647E+00  0.1629E+00
     14.097  0.3294E-02  0.4407E-02  0.1653E+00  0.1638E+00
     14.285  0.1817E-02  0.6371E-02  0.1657E+00  0.1650E+00
     14.473  0.2591E-02  0.3402E-02  0.1661E+00  0.1656E+00
     14.662  0.3757E-02  0.1119E-02  0.1668E+00  0.1658E+00
     14.850  0.2201E-02  0.3907E-02  0.1673E+00  0.1665E+00
     15.038  0.1109E-02  0.1947E-02  0.1675E+00  0.1669E+00
     15.226  0.3626E-02  0.1903E-02  0.1682E+00  0.1673E+00
     15.415  0.8705E-02  0.1774E-02  0.1698E+00  0.1676E+00
     15.603  0.7172E-02  0.6784E-02  0.1711E+00  0.1689E+00
     15.791  0.4711E-02  0.7723E-02  0.1720E+00  0.1703E+00
     15.980  0.6088E-02  0.6593E-02  0.1732E+00  0.1716E+00
     16.168  0.5507E-02  0.4397E-02  0.1742E+00  0.1724E+00
     16.356  0.6901E-02  0.7635E-02  0.1755E+00  0.1738E+00
     16.544  0.9121E-02  0.6428E-02  0.1772E+00  0.1751E+00
     16.733  0.1326E-01  0.7634E-02  0.1797E+00  0.1765E+00
     16.921  0.9196E-02  0.1084E-01  0.1815E+00  0.1785E+00
     17.109  0.1169E-01  0.1420E-01  0.1837E+00  0.1812E+00
     17.298  0.6689E-02  0.1221E-01  0.1849E+00  0.1835E+00
     17.486  0.1191E-01  0.7496E-02  0.1872E+00  0.1849E+00
     17.674  0.4691E-02  0.1301E-01  0.1880E+00  0.1874E+00
     17.862  0.9532E-02  0.4720E-02  0.1898E+00  0.1883E+00
     18.051  0.5320E-02  0.1013E-01  0.1908E+00  0.1902E+00
     18.239  0.4770E-02  0.5185E-02  0.1917E+00  0.1911E+00
     18.427  0.4036E-02  0.5265E-02  0.1925E+00  0.1921E+00
     18.616  0.3327E-02  0.3005E-02  0.1931E+00  0.1927E+00
     18.804  0.5215E-02  0.2754E-02  0.1941E+00  0.1932E+00
     18.992  0.3576E-02  0.7212E-02  0.1948E+00  0.1946E+00
     19.180  0.2660E-02  0.2478E-02  0.1953E+00  0.1950E+00
     19.369  0.2735E-02  0.2224E-02  0.1958E+00  0.1955E+00
     19.557  0.2523E-02  0.2377E-02  0.1963E+00  0.1959E+00
     19.745  0.3721E-02  0.3107E-02  0.1970E+00  0.1965E+00
     19.934  0.3037E-02  0.4092E-02  0.1975E+00  0.1973E+00
     20.122  0.4310E-02  0.2767E-02  0.1984E+00  0.1978E+00
     20.310  0.6530E-02  0.4325E-02  0.1996E+00  0.1986E+00
     20.498  0.8819E-02  0.7850E-02  0.2012E+00  0.2001E+00
     20.687  0.8730E-02  0.9740E-02  0.2029E+00  0.2019E+00
     20.875  0.1305E-01  0.6477E-02  0.2053E+00  0.2031E+00
     21.063  0.1008E-01  0.1390E-01  0.2072E+00  0.2057E+00
     21.252  0.7680E-02  0.9515E-02  0.2087E+00  0.2075E+00
     21.440  0.8657E-02  0.7781E-02  0.2103E+00  0.2090E+00
     21.628  0.5616E-02  0.6858E-02  0.2114E+00  0.2103E+00
     21.816  0.6074E-02  0.5997E-02  0.2125E+00  0.2114E+00
     22.005  0.5622E-02  0.5163E-02  0.2136E+00  0.2124E+00
     22.193  0.4194E-02  0.6113E-02  0.2144E+00  0.2135E+00
     22.381  0.3837E-02  0.4035E-02  0.2151E+00  0.2143E+00
     22.570  0.5446E-02  0.4076E-02  0.2161E+00  0.2151E+00
     22.758  0.1133E-02  0.5624E-02  0.2163E+00  0.2161E+00
     22.946  0.4434E-02  0.1012E-02  0.2172E+00  0.2163E+00
     23.134  0.1224E-02  0.4576E-02  0.2174E+00  0.2172E+00
     23.323  0.2969E-02  0.1881E-02  0.2180E+00  0.2175E+00
     23.511  0.5079E-02  0.2311E-02  0.2189E+00  0.2180E+00
     23.699  0.3546E-02  0.5162E-02  0.2196E+00  0.2189E+00
     23.888  0.1071E-02  0.3455E-02  0.2198E+00  0.2196E+00
     24.076  0.3228E-02  0.1686E-02  0.2204E+00  0.2199E+00
     24.264  0.2414E-02  0.2802E-02  0.2208E+00  0.2204E+00
     24.452  0.3507E-02  0.2510E-02  0.2215E+00  0.2209E+00
     24.641  0.3811E-02  0.3746E-02  0.2222E+00  0.2216E+00
     24.829  0.1783E-02  0.3891E-02  0.2226E+00  0.2223E+00
     25.017  0.3123E-02  0.1276E-02  0.2231E+00  0.2226E+00
     25.206  0.2972E-02  0.3589E-02  0.2237E+00  0.2233E+00
     25.394  0.5486E-02  0.3074E-02  0.2247E+00  0.2238E+00
     25.582  0.3865E-02  0.5148E-02  0.2255E+00  0.2248E+00
     25.770  0.1256E-02  0.3969E-02  0.2257E+00  0.2256E+00
     25.959  0.5908E-02  0.1868E-02  0.2268E+00  0.2259E+00
     26.147  0.1307E-02  0.5319E-02  0.2271E+00  0.2269E+00
     26.335  0.4869E-02  0.1139E-02  0.2280E+00  0.2271E+00
     26.524  0.6199E-02  0.5625E-02  0.2291E+00  0.2282E+00
     26.712  0.3840E-02  0.6738E-02  0.2299E+00  0.2295E+00
     26.900  0.4235E-02  0.4272E-02  0.2307E+00  0.2303E+00
     27.088  0.5760E-02  0.4969E-02  0.2318E+00  0.2312E+00
     27.277  0.4434E-02  0.4175E-02  0.2326E+00  0.2320E+00
     27.465  0.4890E-02  0.4462E-02  0.2335E+00  0.2328E+00
     27.653  0.2634E-02  0.4272E-02  0.2340E+00  0.2336E+00
     27.842  0.5671E-02  0.2885E-02  0.2351E+00  0.2342E+00
     28.030  0.3602E-02  0.6347E-02  0.2357E+00  0.2354E+00
     28.218  0.1610E-02  0.2765E-02  0.2361E+00  0.2359E+00
     28.406  0.5493E-02  0.1881E-02  0.2371E+00  0.2362E+00
     28.595  0.6790E-02  0.5883E-02  0.2384E+00  0.2373E+00
     28.783  0.4359E-02  0.5381E-02  0.2392E+00  0.2384E+00
     28.971  0.1074E-01  0.6558E-02  0.2412E+00  0.2396E+00
     29.160  0.5680E-02  0.8762E-02  0.2423E+00  0.2412E+00
     29.348  0.3765E-02  0.3542E-02  0.2430E+00  0.2419E+00
     29.536  0.2878E-02  0.5913E-02  0.2435E+00  0.2430E+00
     29.724  0.9039E-02  0.4575E-02  0.2452E+00  0.2439E+00
     29.913  0.4757E-02  0.5514E-02  0.2461E+00  0.2449E+00
     30.101  0.3197E-02  0.4746E-02  0.2467E+00  0.2458E+00
     30.289  0.9108E-02  0.4565E-02  0.2484E+00  0.2467E+00
     30.478  0.5089E-02  0.9292E-02  0.2494E+00  0.2484E+00
     30.666  0.6658E-02  0.3870E-02  0.2507E+00  0.2492E+00
     30.854  0.3119E-02  0.5306E-02  0.2512E+00  0.2502E+00
     31.042  0.1607E-02  0.6286E-02  0.2515E+00  0.2513E+00
     31.231  0.4134E-02  0.6611E-03  0.2523E+00  0.2515E+00
     31.419  0.4338E-02  0.4618E-02  0.2531E+00  0.2523E+00
     31.607  0.4406E-02  0.3743E-02  0.2540E+00  0.2530E+00
     31.796  0.5447E-02  0.5433E-02  0.2550E+00  0.2541E+00
     31.984  0.4078E-02  0.4383E-02  0.2558E+00  0.2549E+00
     32.172  0.1102E-02  0.9608E-03  0.2560E+00  0.2551E+00
     32.360  0.1939E-02  0.3343E-02  0.2563E+00  0.2557E+00
     32.549  0.4370E-02  0.6366E-02  0.2572E+00  0.2569E+00
     32.737  0.1977E-02  0.9230E-03  0.2575E+00  0.2571E+00
     32.925  0.9995E-03  0.1955E-02  0.2577E+00  0.2574E+00
     33.114  0.4934E-02  0.1945E-02  0.2586E+00  0.2578E+00
     33.302  0.3305E-02  0.3055E-02  0.2593E+00  0.2584E+00
     33.490  0.1025E-02  0.8076E-03  0.2595E+00  0.2585E+00
     33.678  0.4112E-02  0.3607E-02  0.2602E+00  0.2592E+00
     33.867  0.3378E-02  0.1803E-02  0.2609E+00  0.2595E+00
     34.055  0.6080E-02  0.3851E-02  0.2620E+00  0.2603E+00
     34.243  0.6222E-02  0.4307E-02  0.2632E+00  0.2611E+00
     34.432  0.4835E-02  0.3640E-02  0.2641E+00  0.2618E+00
     34.620  0.2868E-02  0.3317E-02  0.2646E+00  0.2624E+00
     34.808  0.2958E-02  0.1874E-02  0.2652E+00  0.2627E+00
     34.996  0.2650E-02  0.4932E-02  0.2657E+00  0.2637E+00
     35.185  0.2912E-02  0.4677E-02  0.2662E+00  0.2646E+00
     35.373  0.1369E-02  0.2117E-02  0.2665E+00  0.2650E+00
     35.561  0.1668E-03  0.2589E-02  0.2665E+00  0.2654E+00
     35.750  0.6087E-03  0.3553E-02  0.2666E+00  0.2661E+00
     35.938  0.2259E-08  0.2575E-02  0.2666E+00  0.2666E+00
     36.126  0.0000E+00  0.2791E-03  0.2666E+00  0.2666E+00
     36.314  0.2525E-18  0.5310E-07  0.2666E+00  0.2666E+00
     36.503  0.6091E-06  0.0000E+00  0.2666E+00  0.2666E+00
     36.691  0.9594E-04  0.0000E+00  0.2667E+00  0.2666E+00
     36.879  0.2250E-06  0.0000E+00  0.2667E+00  0.2666E+00
     37.068  0.0000E+00  0.0000E+00  0.2667E+00  0.2666E+00
     37.256  0.0000E+00  0.0000E+00  0.2667E+00  0.2666E+00
     37.444  0.0000E+00  0.1845E-16  0.2667E+00  0.2666E+00
     37.632  0.0000E+00  0.2555E-05  0.2667E+00  0.2666E+00
     37.821  0.0000E+00  0.9419E-04  0.2667E+00  0.2667E+00
     38.009  0.0000E+00  0.3395E-07  0.2667E+00  0.2667E+00
     38.197  0.0000E+00  0.0000E+00  0.2667E+00  0.2667E+00
     38.386  0.0000E+00  0.0000E+00  0.2667E+00  0.2667E+00
     38.574  0.0000E+00  0.0000E+00  0.2667E+00  0.2667E+00
     38.762  0.0000E+00  0.0000E+00  0.2667E+00  0.2667E+00
     38.950  0.0000E+00  0.0000E+00  0.2667E+00  0.2667E+00
     39.139  0.0000E+00  0.0000E+00  0.2667E+00  0.2667E+00
     39.327  0.0000E+00  0.0000E+00  0.2667E+00  0.2667E+00
     39.515  0.0000E+00  0.0000E+00  0.2667E+00  0.2667E+00
     39.704  0.0000E+00  0.0000E+00  0.2667E+00  0.2667E+00
     39.892  0.0000E+00  0.0000E+00  0.2667E+00  0.2667E+00
     40.080  0.0000E+00  0.0000E+00  0.2667E+00  0.2667E+00
     40.268  0.0000E+00  0.0000E+00  0.2667E+00  0.2667E+00
     40.26841319    -16.21726704  301      5.66947918      1.00000000
    -16.217  0.0000E+00  0.0000E+00  0.0000E+00  0.0000E+00  0.0000E+00  0.0000E+00  0.0000E+00  0.0000E+00  0.0000E+00  0.0000E+00  0.0000E+00  0.0000E+00  0.0000E+00  0.0000E+00  0.0000E+00  0.0000E+00  0.0000E+00  0.0000E+00
    -16.029  0.0000E+00  0.0000E+00  0.0000E+00  0.0000E+00  0.0000E+00  0.0000E+00  0.0000E+00  0.0000E+00  0.0000E+00  0.0000E+00  0.0000E+00  0.0000E+00  0.0000E+00  0.0000E+00  0.0000E+00  0.0000E+00  0.0000E+00  0.0000E+00
    -15.841  0.0000E+00  0.0000E+00  0.0000E+00  0.0000E+00  0.0000E+00  0.0000E+00  0.0000E+00  0.0000E+00  0.0000E+00  0.0000E+00  0.0000E+00  0.0000E+00  0.0000E+00  0.0000E+00  0.0000E+00  0.0000E+00  0.0000E+00  0.0000E+00
    -15.652  0.0000E+00  0.0000E+00  0.0000E+00  0.0000E+00  0.0000E+00  0.0000E+00  0.0000E+00  0.0000E+00  0.0000E+00  0.0000E+00  0.0000E+00  0.0000E+00  0.0000E+00  0.0000E+00  0.0000E+00  0.0000E+00  0.0000E+00  0.0000E+00
    -15.464  0.0000E+00  0.0000E+00  0.0000E+00  0.0000E+00  0.0000E+00  0.0000E+00  0.0000E+00  0.0000E+00  0.0000E+00  0.0000E+00  0.0000E+00  0.0000E+00  0.0000E+00  0.0000E+00  0.0000E+00  0.0000E+00  0.0000E+00  0.0000E+00
    -15.276  0.0000E+00  0.0000E+00  0.0000E+00  0.0000E+00  0.0000E+00  0.0000E+00  0.0000E+00  0.0000E+00  0.0000E+00  0.0000E+00  0.0000E+00  0.0000E+00  0.0000E+00  0.0000E+00  0.0000E+00  0.0000E+00  0.0000E+00  0.0000E+00
    -15.088  0.0000E+00  0.0000E+00  0.0000E+00  0.0000E+00  0.0000E+00  0.0000E+00  0.0000E+00  0.0000E+00  0.0000E+00  0.0000E+00  0.0000E+00  0.0000E+00  0.0000E+00  0.0000E+00  0.0000E+00  0.0000E+00  0.0000E+00  0.0000E+00
    -14.899  0.0000E+00  0.0000E+00  0.0000E+00  0.0000E+00  0.0000E+00  0.0000E+00  0.0000E+00  0.0000E+00  0.0000E+00  0.0000E+00  0.0000E+00  0.0000E+00  0.0000E+00  0.0000E+00  0.0000E+00  0.0000E+00  0.0000E+00  0.0000E+00
    -14.711  0.0000E+00  0.0000E+00  0.0000E+00  0.0000E+00  0.0000E+00  0.0000E+00  0.0000E+00  0.0000E+00  0.0000E+00  0.0000E+00  0.0000E+00  0.0000E+00  0.0000E+00  0.0000E+00  0.0000E+00  0.0000E+00  0.0000E+00  0.0000E+00
    -14.523  0.0000E+00  0.0000E+00  0.0000E+00  0.0000E+00  0.0000E+00  0.0000E+00  0.0000E+00  0.0000E+00  0.0000E+00  0.0000E+00  0.0000E+00  0.0000E+00  0.0000E+00  0.0000E+00  0.0000E+00  0.0000E+00  0.0000E+00  0.0000E+00
    -14.334  0.0000E+00  0.0000E+00  0.0000E+00  0.0000E+00  0.0000E+00  0.0000E+00  0.0000E+00  0.0000E+00  0.0000E+00  0.0000E+00  0.0000E+00  0.0000E+00  0.0000E+00  0.0000E+00  0.0000E+00  0.0000E+00  0.0000E+00  0.0000E+00
    -14.146  0.0000E+00  0.0000E+00  0.0000E+00  0.0000E+00  0.0000E+00  0.0000E+00  0.0000E+00  0.0000E+00  0.0000E+00  0.0000E+00  0.0000E+00  0.0000E+00  0.0000E+00  0.0000E+00  0.0000E+00  0.0000E+00  0.0000E+00  0.0000E+00
    -13.958  0.0000E+00  0.0000E+00  0.0000E+00  0.0000E+00  0.0000E+00  0.0000E+00  0.0000E+00  0.0000E+00  0.0000E+00  0.0000E+00  0.0000E+00  0.0000E+00  0.0000E+00  0.0000E+00  0.0000E+00  0.0000E+00  0.0000E+00  0.0000E+00
    -13.770  0.5789E-07  0.0000E+00  0.4835E-11  0.0000E+00  0.4835E-11  0.0000E+00  0.4835E-11  0.0000E+00  0.1644E-14  0.0000E+00  0.1644E-14  0.0000E+00  0.1785E-13  0.0000E+00  0.1644E-14  0.0000E+00  0.1785E-13  0.0000E+00
    -13.581  0.1497E-02  0.0000E+00  0.1061E-04  0.0000E+00  0.1061E-04  0.0000E+00  0.1061E-04  0.0000E+00  0.2672E-08  0.0000E+00  0.2672E-08  0.0000E+00  0.2336E-06  0.0000E+00  0.2672E-08  0.0000E+00  0.2336E-06  0.0000E+00
    -13.393  0.7512E-02  0.0000E+00  0.1788E-03  0.0000E+00  0.1788E-03  0.0000E+00  0.1788E-03  0.0000E+00  0.1212E-06  0.0000E+00  0.1212E-06  0.0000E+00  0.1147E-04  0.0000E+00  0.1212E-06  0.0000E+00  0.1147E-04  0.0000E+00
    -13.205  0.1162E-01  0.6723E-08  0.6547E-03  0.1489E-12  0.6547E-03  0.1489E-12  0.6547E-03  0.1489E-12  0.7711E-06  0.5860E-16  0.7711E-06  0.5859E-16  0.9023E-04  0.2926E-15  0.7711E-06  0.5859E-16  0.9023E-04  0.2926E-15
    -13.016  0.1346E-01  0.9626E-03  0.1385E-02  0.5921E-05  0.1385E-02  0.5921E-05  0.1385E-02  0.5921E-05  0.2232E-05  0.1627E-08  0.2232E-05  0.1627E-08  0.3233E-03  0.9309E-07  0.2232E-05  0.1627E-08  0.3233E-03  0.9309E-07
    -12.828  0.1475E-01  0.7527E-02  0.2575E-02  0.1546E-03  0.2575E-02  0.1546E-03  0.2575E-02  0.1546E-03  0.4726E-05  0.1137E-06  0.4726E-05  0.1137E-06  0.9622E-03  0.6977E-05  0.4726E-05  0.1137E-06  0.9622E-03  0.6977E-05
    -12.640  0.1452E-01  0.1071E-01  0.4316E-02  0.5332E-03  0.4316E-02  0.5332E-03  0.4316E-02  0.5332E-03  0.7571E-05  0.7097E-06  0.7571E-05  0.7097E-06  0.2627E-02  0.5183E-04  0.7571E-05  0.7097E-06  0.2627E-02  0.5183E-04
    -12.452  0.1405E-01  0.1309E-01  0.8914E-02  0.1157E-02  0.8914E-02  0.1157E-02  0.8914E-02  0.1157E-02  0.1146E-04  0.2088E-05  0.1146E-04  0.2088E-05  0.8925E-02  0.1965E-03  0.1146E-04  0.2088E-05  0.8925E-02  0.1965E-03
    -12.263  0.7630E-02  0.1292E-01  0.1542E-01  0.1789E-02  0.1542E-01  0.1789E-02  0.1542E-01  0.1789E-02  0.1104E-04  0.3610E-05  0.1104E-04  0.3610E-05  0.3136E-01  0.4960E-03  0.1104E-04  0.3610E-05  0.3136E-01  0.4960E-03
    -12.075  0.3908E-04  0.1479E-01  0.2404E-03  0.3211E-02  0.2404E-03  0.3211E-02  0.2404E-03  0.3211E-02  0.1143E-06  0.6784E-05  0.1143E-06  0.6784E-05  0.7863E-03  0.1264E-02  0.1143E-06  0.6784E-05  0.7863E-03  0.1264E-02
    -11.887  0.0000E+00  0.1463E-01  0.0000E+00  0.5583E-02  0.0000E+00  0.5583E-02  0.0000E+00  0.5583E-02  0.0000E+00  0.1089E-04  0.0000E+00  0.1089E-04  0.0000E+00  0.3248E-02  0.0000E+00  0.1089E-04  0.0000E+00  0.3248E-02
    -11.698  0.0000E+00  0.1257E-01  0.0000E+00  0.1263E-01  0.0000E+00  0.1263E-01  0.0000E+00  0.1263E-01  0.0000E+00  0.1557E-04  0.0000E+00  0.1557E-04  0.0000E+00  0.1150E-01  0.0000E+00  0.1557E-04  0.0000E+00  0.1150E-01
    -11.510  0.0000E+00  0.5222E-02  0.0000E+00  0.1093E-01  0.0000E+00  0.1093E-01  0.0000E+00  0.1093E-01  0.0000E+00  0.9397E-05  0.0000E+00  0.9397E-05  0.0000E+00  0.2428E-01  0.0000E+00  0.9397E-05  0.0000E+00  0.2428E-01
    -11.322  0.0000E+00  0.6077E-05  0.0000E+00  0.3517E-04  0.0000E+00  0.3517E-04  0.0000E+00  0.3517E-04  0.0000E+00  0.1497E-07  0.0000E+00  0.1497E-07  0.0000E+00  0.1155E-03  0.0000E+00  0.1497E-07  0.0000E+00  0.1155E-03
    -11.134  0.0000E+00  0.0000E+00  0.0000E+00  0.0000E+00  0.0000E+00  0.0000E+00  0.0000E+00  0.0000E+00  0.0000E+00  0.0000E+00  0.0000E+00  0.0000E+00  0.0000E+00  0.0000E+00  0.0000E+00  0.0000E+00  0.0000E+00  0.0000E+00
    -10.945  0.0000E+00  0.0000E+00  0.0000E+00  0.0000E+00  0.0000E+00  0.0000E+00  0.0000E+00  0.0000E+00  0.0000E+00  0.0000E+00  0.0000E+00  0.0000E+00  0.0000E+00  0.0000E+00  0.0000E+00  0.0000E+00  0.0000E+00  0.0000E+00
    -10.757  0.0000E+00  0.0000E+00  0.0000E+00  0.0000E+00  0.0000E+00  0.0000E+00  0.0000E+00  0.0000E+00  0.0000E+00  0.0000E+00  0.0000E+00  0.0000E+00  0.0000E+00  0.0000E+00  0.0000E+00  0.0000E+00  0.0000E+00  0.0000E+00
    -10.569  0.0000E+00  0.0000E+00  0.0000E+00  0.0000E+00  0.0000E+00  0.0000E+00  0.0000E+00  0.0000E+00  0.0000E+00  0.0000E+00  0.0000E+00  0.0000E+00  0.0000E+00  0.0000E+00  0.0000E+00  0.0000E+00  0.0000E+00  0.0000E+00
    -10.380  0.0000E+00  0.0000E+00  0.0000E+00  0.0000E+00  0.0000E+00  0.0000E+00  0.0000E+00  0.0000E+00  0.0000E+00  0.0000E+00  0.0000E+00  0.0000E+00  0.0000E+00  0.0000E+00  0.0000E+00  0.0000E+00  0.0000E+00  0.0000E+00
    -10.192  0.0000E+00  0.0000E+00  0.0000E+00  0.0000E+00  0.0000E+00  0.0000E+00  0.0000E+00  0.0000E+00  0.0000E+00  0.0000E+00  0.0000E+00  0.0000E+00  0.0000E+00  0.0000E+00  0.0000E+00  0.0000E+00  0.0000E+00  0.0000E+00
    -10.004  0.0000E+00  0.0000E+00  0.0000E+00  0.0000E+00  0.0000E+00  0.0000E+00  0.0000E+00  0.0000E+00  0.0000E+00  0.0000E+00  0.0000E+00  0.0000E+00  0.0000E+00  0.0000E+00  0.0000E+00  0.0000E+00  0.0000E+00  0.0000E+00
     -9.816  0.0000E+00  0.0000E+00  0.0000E+00  0.0000E+00  0.0000E+00  0.0000E+00  0.0000E+00  0.0000E+00  0.0000E+00  0.0000E+00  0.0000E+00  0.0000E+00  0.0000E+00  0.0000E+00  0.0000E+00  0.0000E+00  0.0000E+00  0.0000E+00
     -9.627  0.0000E+00  0.0000E+00  0.0000E+00  0.0000E+00  0.0000E+00  0.0000E+00  0.0000E+00  0.0000E+00  0.0000E+00  0.0000E+00  0.0000E+00  0.0000E+00  0.0000E+00  0.0000E+00  0.0000E+00  0.0000E+00  0.0000E+00  0.0000E+00
     -9.439  0.0000E+00  0.0000E+00  0.0000E+00  0.0000E+00  0.0000E+00  0.0000E+00  0.0000E+00  0.0000E+00  0.0000E+00  0.0000E+00  0.0000E+00  0.0000E+00  0.0000E+00  0.0000E+00  0.0000E+00  0.0000E+00  0.0000E+00  0.0000E+00
     -9.251  0.0000E+00  0.0000E+00  0.0000E+00  0.0000E+00  0.0000E+00  0.0000E+00  0.0000E+00  0.0000E+00  0.0000E+00  0.0000E+00  0.0000E+00  0.0000E+00  0.0000E+00  0.0000E+00  0.0000E+00  0.0000E+00  0.0000E+00  0.0000E+00
     -9.062  0.0000E+00  0.0000E+00  0.0000E+00  0.0000E+00  0.0000E+00  0.0000E+00  0.0000E+00  0.0000E+00  0.0000E+00  0.0000E+00  0.0000E+00  0.0000E+00  0.0000E+00  0.0000E+00  0.0000E+00  0.0000E+00  0.0000E+00  0.0000E+00
     -8.874  0.0000E+00  0.0000E+00  0.0000E+00  0.0000E+00  0.0000E+00  0.0000E+00  0.0000E+00  0.0000E+00  0.0000E+00  0.0000E+00  0.0000E+00  0.0000E+00  0.0000E+00  0.0000E+00  0.0000E+00  0.0000E+00  0.0000E+00  0.0000E+00
     -8.686  0.0000E+00  0.0000E+00  0.0000E+00  0.0000E+00  0.0000E+00  0.0000E+00  0.0000E+00  0.0000E+00  0.0000E+00  0.0000E+00  0.0000E+00  0.0000E+00  0.0000E+00  0.0000E+00  0.0000E+00  0.0000E+00  0.0000E+00  0.0000E+00
     -8.498  0.0000E+00  0.0000E+00  0.0000E+00  0.0000E+00  0.0000E+00  0.0000E+00  0.0000E+00  0.0000E+00  0.0000E+00  0.0000E+00  0.0000E+00  0.0000E+00  0.0000E+00  0.0000E+00  0.0000E+00  0.0000E+00  0.0000E+00  0.0000E+00
     -8.309  0.0000E+00  0.0000E+00  0.0000E+00  0.0000E+00  0.0000E+00  0.0000E+00  0.0000E+00  0.0000E+00  0.0000E+00  0.0000E+00  0.0000E+00  0.0000E+00  0.0000E+00  0.0000E+00  0.0000E+00  0.0000E+00  0.0000E+00  0.0000E+00
     -8.121  0.0000E+00  0.0000E+00  0.0000E+00  0.0000E+00  0.0000E+00  0.0000E+00  0.0000E+00  0.0000E+00  0.0000E+00  0.0000E+00  0.0000E+00  0.0000E+00  0.0000E+00  0.0000E+00  0.0000E+00  0.0000E+00  0.0000E+00  0.0000E+00
     -7.933  0.0000E+00  0.0000E+00  0.0000E+00  0.0000E+00  0.0000E+00  0.0000E+00  0.0000E+00  0.0000E+00  0.0000E+00  0.0000E+00  0.0000E+00  0.0000E+00  0.0000E+00  0.0000E+00  0.0000E+00  0.0000E+00  0.0000E+00  0.0000E+00
     -7.744  0.0000E+00  0.0000E+00  0.0000E+00  0.0000E+00  0.0000E+00  0.0000E+00  0.0000E+00  0.0000E+00  0.0000E+00  0.0000E+00  0.0000E+00  0.0000E+00  0.0000E+00  0.0000E+00  0.0000E+00  0.0000E+00  0.0000E+00  0.0000E+00
     -7.556  0.0000E+00  0.0000E+00  0.0000E+00  0.0000E+00  0.0000E+00  0.0000E+00  0.0000E+00  0.0000E+00  0.0000E+00  0.0000E+00  0.0000E+00  0.0000E+00  0.0000E+00  0.0000E+00  0.0000E+00  0.0000E+00  0.0000E+00  0.0000E+00
     -7.368  0.0000E+00  0.0000E+00  0.0000E+00  0.0000E+00  0.0000E+00  0.0000E+00  0.0000E+00  0.0000E+00  0.0000E+00  0.0000E+00  0.0000E+00  0.0000E+00  0.0000E+00  0.0000E+00  0.0000E+00  0.0000E+00  0.0000E+00  0.0000E+00
     -7.180  0.0000E+00  0.0000E+00  0.0000E+00  0.0000E+00  0.0000E+00  0.0000E+00  0.0000E+00  0.0000E+00  0.0000E+00  0.0000E+00  0.0000E+00  0.0000E+00  0.0000E+00  0.0000E+00  0.0000E+00  0.0000E+00  0.0000E+00  0.0000E+00
     -6.991  0.0000E+00  0.0000E+00  0.0000E+00  0.0000E+00  0.0000E+00  0.0000E+00  0.0000E+00  0.0000E+00  0.0000E+00  0.0000E+00  0.0000E+00  0.0000E+00  0.0000E+00  0.0000E+00  0.0000E+00  0.0000E+00  0.0000E+00  0.0000E+00
     -6.803  0.0000E+00  0.0000E+00  0.0000E+00  0.0000E+00  0.0000E+00  0.0000E+00  0.0000E+00  0.0000E+00  0.0000E+00  0.0000E+00  0.0000E+00  0.0000E+00  0.0000E+00  0.0000E+00  0.0000E+00  0.0000E+00  0.0000E+00  0.0000E+00