Automatically generated mesh
     104
Reciprocal lattice
    0.00000000000000    0.00000000000000    0.00000000000000             1
    0.07142857142857    0.00000000000000    0.00000000000000             8
    0.14285714285715    0.00000000000000    0.00000000000000             8
    0.21428571428572    0.00000000000000    0.00000000000000             8
    0.28571428571429    0.00000000000000    0.00000000000000             8
    0.35714285714286    0.00000000000000    0.00000000000000             8
    0.42857142857143    0.00000000000000    0.00000000000000             8
    0.50000000000000    0.00000000000000    0.00000000000000             4
    0.07142857142857    0.07142857142857    0.00000000000000             6
    0.14285714285715    0.07142857142857    0.00000000000000            24
    0.21428571428572    0.07142857142857    0.00000000000000            24
    0.28571428571429    0.07142857142857    0.00000000000000            24
    0.35714285714286    0.07142857142857    0.00000000000000            24
    0.42857142857143    0.07142857142857    0.00000000000000            24
    0.50000000000000    0.07142857142857    0.00000000000000            24
   -0.42857142857143    0.07142857142857    0.00000000000000            24
   -0.35714285714285    0.07142857142857    0.00000000000000            24
   -0.28571428571428    0.07142857142857    0.00000000000000            24
   -0.21428571428571    0.07142857142857    0.00000000000000            24
   -0.14285714285714    0.07142857142857    0.00000000000000            24
   -0.07142857142857    0.07142857142857    0.00000000000000            12
    0.14285714285715    0.14285714285715    0.00000000000000             6
    0.21428571428572    0.14285714285715    0.00000000000000            24
    0.28571428571429    0.14285714285715    0.00000000000000            24
    0.35714285714286    0.14285714285715    0.00000000000000            24
    0.42857142857143    0.14285714285715    0.00000000000000            24
    0.50000000000000    0.14285714285715    0.00000000000000            24
   -0.42857142857143    0.14285714285715    0.00000000000000            24
   -0.35714285714285    0.14285714285715    0.00000000000000            24
   -0.28571428571428    0.14285714285715    0.00000000000000            24
   -0.21428571428571    0.14285714285715    0.00000000000000            24
   -0.14285714285714    0.14285714285715    0.00000000000000            12
    0.21428571428572    0.21428571428572    0.00000000000000             6
    0.28571428571429    0.21428571428572    0.00000000000000            24
    0.35714285714286    0.21428571428572    0.00000000000000            24
    0.42857142857143    0.21428571428572    0.00000000000000            24
    0.50000000000000    0.21428571428572    0.00000000000000            24
   -0.42857142857143    0.21428571428572    0.00000000000000            24
   -0.35714285714285    0.21428571428572    0.00000000000000            24
   -0.28571428571428    0.21428571428572    0.00000000000000            24
   -0.21428571428571    0.21428571428572    0.00000000000000            12
    0.28571428571429    0.28571428571429    0.00000000000000             6
    0.35714285714286    0.28571428571429    0.00000000000000            24
    0.42857142857143    0.28571428571429    0.00000000000000            24
    0.50000000000000    0.28571428571429    0.00000000000000            24
   -0.42857142857143    0.28571428571429    0.00000000000000            24
   -0.35714285714285    0.28571428571429    0.00000000000000            24
   -0.28571428571428    0.28571428571429    0.00000000000000            12
    0.35714285714286    0.35714285714286    0.00000000000000             6
    0.42857142857143    0.35714285714286    0.00000000000000            24
    0.50000000000000    0.35714285714286    0.00000000000000            24
   -0.42857142857143    0.35714285714286    0.00000000000000            24
   -0.35714285714285    0.35714285714286    0.00000000000000            12
    0.42857142857143    0.42857142857143    0.00000000000000             6
    0.50000000000000    0.42857142857143    0.00000000000000            24
   -0.42857142857143    0.42857142857143    0.00000000000000            12
    0.50000000000000    0.50000000000000    0.00000000000000             3
    0.21428571428572    0.14285714285715    0.07142857142857            24
    0.28571428571429    0.14285714285715    0.07142857142857            48
    0.35714285714286    0.14285714285715    0.07142857142857            48
    0.42857142857143    0.14285714285715    0.07142857142857            48
    0.50000000000000    0.14285714285715    0.07142857142857            48
   -0.42857142857143    0.14285714285715    0.07142857142857            24
    0.28571428571429    0.21428571428572    0.07142857142857            24
    0.35714285714286    0.21428571428572    0.07142857142857            48
    0.42857142857143    0.21428571428572    0.07142857142857            48
    0.50000000000000    0.21428571428572    0.07142857142857            48
   -0.42857142857143    0.21428571428572    0.07142857142857            48
   -0.35714285714285    0.21428571428572    0.07142857142857            48
   -0.28571428571428    0.21428571428572    0.07142857142857            48
   -0.21428571428571    0.21428571428572    0.07142857142857            48
   -0.14285714285714    0.21428571428572    0.07142857142857            24
    0.35714285714286    0.28571428571429    0.07142857142857            24
    0.42857142857143    0.28571428571429    0.07142857142857            48
    0.50000000000000    0.28571428571429    0.07142857142857            48
   -0.42857142857143    0.28571428571429    0.07142857142857            48
   -0.35714285714285    0.28571428571429    0.07142857142857            48
   -0.28571428571428    0.28571428571429    0.07142857142857            48
   -0.21428571428571    0.28571428571429    0.07142857142857            24
    0.42857142857143    0.35714285714286    0.07142857142857            24
    0.50000000000000    0.35714285714286    0.07142857142857            48
   -0.42857142857143    0.35714285714286    0.07142857142857            48
   -0.35714285714285    0.35714285714286    0.07142857142857            48
   -0.28571428571428    0.35714285714286    0.07142857142857            24
    0.50000000000000    0.42857142857143    0.07142857142857            24
   -0.42857142857143    0.42857142857143    0.07142857142857            48
   -0.35714285714285    0.42857142857143    0.07142857142857            24
   -0.42857142857143    0.50000000000000    0.07142857142857            12
    0.42857142857143    0.28571428571429    0.14285714285715            24
    0.50000000000000    0.28571428571429    0.14285714285715            48
   -0.42857142857143    0.28571428571429    0.14285714285715            48
   -0.35714285714285    0.28571428571429    0.14285714285715            24
    0.50000000000000    0.35714285714286    0.14285714285715            24
   -0.42857142857143    0.35714285714286    0.14285714285715            48
   -0.35714285714285    0.35714285714286    0.14285714285715            48
   -0.28571428571428    0.35714285714286    0.14285714285715            48
   -0.21428571428571    0.35714285714286    0.14285714285715            24
   -0.42857142857143    0.42857142857143    0.14285714285715            24
   -0.35714285714285    0.42857142857143    0.14285714285715            48
   -0.28571428571428    0.42857142857143    0.14285714285715            24
   -0.35714285714285    0.50000000000000    0.14285714285715            12
   -0.35714285714285    0.42857142857143    0.21428571428572            24
   -0.28571428571428    0.42857142857143    0.21428571428572            24
   -0.28571428571428    0.50000000000000    0.21428571428572            12
