unknown system                          
            1
     0.000000    2.091032    2.091032
     2.091032    0.000000    2.091032
     2.091032    2.091032    0.000000
   Cu   O 
     1     1
Direct configuration=     1
   0.00000000  0.00000000  0.00000000
   0.50000000  0.50000000  0.50000000
unknown system                          
            1
     0.000000    2.094821    2.094821
     2.094821   -0.000000    2.094821
     2.094821    2.094821   -0.000000
   Cu   O 
     1     1
Direct configuration=     2
  -0.00000000 -0.00000000  0.00000000
   0.50000000  0.50000000  0.50000000
unknown system                          
            1
     0.000000    2.092472    2.092472
     2.092472   -0.000000    2.092472
     2.092472    2.092472   -0.000000
   Cu   O 
     1     1
Direct configuration=     3
  -0.00000000 -0.00000000  0.00000000
   0.50000000  0.50000000  0.50000000
unknown system                          
            1
     0.000000    2.093780    2.093780
     2.093780   -0.000000    2.093780
     2.093780    2.093780   -0.000000
   Cu   O 
     1     1
Direct configuration=     4
  -0.00000000 -0.00000000  0.00000000
   0.50000000  0.50000000  0.50000000
unknown system                          
            1
     0.000000    2.094312    2.094312
     2.094312   -0.000000    2.094312
     2.094312    2.094312   -0.000000
   Cu   O 
     1     1
Direct configuration=     5
  -0.00000000 -0.00000000  0.00000000
   0.50000000  0.50000000  0.50000000
unknown system                          
            1
     0.000000    2.094579    2.094579
     2.094579   -0.000000    2.094579
     2.094579    2.094579   -0.000000
   Cu   O 
     1     1
Direct configuration=     6
  -0.00000000 -0.00000000  0.00000000
   0.50000000  0.50000000  0.50000000
unknown system                          
            1
     0.000000    2.094707    2.094707
     2.094707   -0.000000    2.094707
     2.094707    2.094707   -0.000000
   Cu   O 
     1     1
Direct configuration=     7
  -0.00000000 -0.00000000  0.00000000
   0.50000000  0.50000000  0.50000000
unknown system                          
            1
     0.000000    2.096744    2.096744
     2.096744    0.000000    2.096744
     2.096744    2.096744   -0.000000
   Cu   O 
     1     1
Direct configuration=     8
  -0.00000000 -0.00000000  0.00000000
   0.50000000  0.50000000  0.50000000
unknown system                          
            1
     0.000000    2.102854    2.102854
     2.102854    0.000000    2.102854
     2.102854    2.102854   -0.000000
   Cu   O 
     1     1
Direct configuration=     9
  -0.00000000 -0.00000000  0.00000000
   0.50000000  0.50000000  0.50000000
unknown system                          
            1
     0.000000    2.115074    2.115074
     2.115074    0.000000    2.115074
     2.115074    2.115074   -0.000000
   Cu   O 
     1     1
Direct configuration=    10
  -0.00000000 -0.00000000  0.00000000
   0.50000000  0.50000000  0.50000000
unknown system                          
            1
     0.000000    2.118487    2.118487
     2.118487    0.000000    2.118487
     2.118487    2.118487   -0.000000
   Cu   O 
     1     1
Direct configuration=    11
  -0.00000000 -0.00000000  0.00000000
   0.50000000  0.50000000  0.50000000
