Automatically generated mesh
     195
Reciprocal lattice
    0.00000000000000    0.00000000000000    0.00000000000000             1
    0.05555555555556    0.00000000000000    0.00000000000000            12
    0.11111111111112    0.00000000000000    0.00000000000000            12
    0.16666666666667    0.00000000000000    0.00000000000000            12
    0.22222222222222    0.00000000000000    0.00000000000000            12
    0.27777777777778    0.00000000000000    0.00000000000000            12
    0.33333333333334    0.00000000000000    0.00000000000000            12
    0.38888888888889    0.00000000000000    0.00000000000000            12
    0.44444444444444    0.00000000000000    0.00000000000000            12
    0.50000000000000    0.00000000000000    0.00000000000000             6
    0.05555555555556    0.05555555555556    0.00000000000000            24
    0.11111111111112    0.05555555555556    0.00000000000000            48
    0.16666666666667    0.05555555555556    0.00000000000000            48
    0.22222222222222    0.05555555555556    0.00000000000000            48
    0.27777777777778    0.05555555555556    0.00000000000000            48
    0.33333333333334    0.05555555555556    0.00000000000000            48
    0.38888888888889    0.05555555555556    0.00000000000000            48
    0.44444444444444    0.05555555555556    0.00000000000000            48
    0.11111111111112    0.11111111111112    0.00000000000000            24
    0.16666666666667    0.11111111111112    0.00000000000000            48
    0.22222222222222    0.11111111111112    0.00000000000000            48
    0.27777777777778    0.11111111111112    0.00000000000000            48
    0.33333333333334    0.11111111111112    0.00000000000000            48
    0.38888888888889    0.11111111111112    0.00000000000000            48
    0.44444444444444    0.11111111111112    0.00000000000000            24
    0.16666666666667    0.16666666666667    0.00000000000000            24
    0.22222222222222    0.16666666666667    0.00000000000000            48
    0.27777777777778    0.16666666666667    0.00000000000000            48
    0.33333333333334    0.16666666666667    0.00000000000000            48
    0.38888888888889    0.16666666666667    0.00000000000000            48
    0.22222222222222    0.22222222222222    0.00000000000000            24
    0.27777777777778    0.22222222222222    0.00000000000000            48
    0.33333333333334    0.22222222222222    0.00000000000000            48
    0.38888888888889    0.22222222222222    0.00000000000000            24
    0.27777777777778    0.27777777777778    0.00000000000000            24
    0.33333333333334    0.27777777777778    0.00000000000000            48
    0.33333333333334    0.33333333333334    0.00000000000000             8
    0.05555555555556    0.05555555555556    0.05555555555556             8
    0.11111111111112    0.05555555555556    0.05555555555556            24
    0.16666666666667    0.05555555555556    0.05555555555556            24
    0.22222222222222    0.05555555555556    0.05555555555556            24
    0.27777777777778    0.05555555555556    0.05555555555556            24
    0.33333333333334    0.05555555555556    0.05555555555556            24
    0.38888888888889    0.05555555555556    0.05555555555556            24
    0.44444444444444    0.05555555555556    0.05555555555556            12
   -0.05555555555556    0.05555555555556    0.05555555555556             6
    0.11111111111112    0.11111111111112    0.05555555555556            24
    0.16666666666667    0.11111111111112    0.05555555555556            48
    0.22222222222222    0.11111111111112    0.05555555555556            48
    0.27777777777778    0.11111111111112    0.05555555555556            48
    0.33333333333334    0.11111111111112    0.05555555555556            48
    0.38888888888889    0.11111111111112    0.05555555555556            48
   -0.11111111111111    0.11111111111112    0.05555555555556            24
    0.16666666666667    0.16666666666667    0.05555555555556            24
    0.22222222222222    0.16666666666667    0.05555555555556            48
    0.27777777777778    0.16666666666667    0.05555555555556            48
    0.33333333333334    0.16666666666667    0.05555555555556            48
    0.38888888888889    0.16666666666667    0.05555555555556            24
   -0.16666666666666    0.16666666666667    0.05555555555556            24
   -0.11111111111111    0.16666666666667    0.05555555555556            24
    0.22222222222222    0.22222222222222    0.05555555555556            24
    0.27777777777778    0.22222222222222    0.05555555555556            48
    0.33333333333334    0.22222222222222    0.05555555555556            48
   -0.22222222222222    0.22222222222222    0.05555555555556            24
   -0.16666666666666    0.22222222222222    0.05555555555556            48
    0.27777777777778    0.27777777777778    0.05555555555556            24
    0.33333333333334    0.27777777777778    0.05555555555556            24
   -0.27777777777778    0.27777777777778    0.05555555555556            24
   -0.22222222222222    0.27777777777778    0.05555555555556            48
   -0.16666666666666    0.27777777777778    0.05555555555556            24
   -0.33333333333333    0.33333333333334    0.05555555555556            24
   -0.27777777777778    0.33333333333334    0.05555555555556            48
   -0.22222222222222    0.33333333333334    0.05555555555556            48
   -0.38888888888888    0.38888888888889    0.05555555555556            24
   -0.33333333333333    0.38888888888889    0.05555555555556            48
   -0.27777777777778    0.38888888888889    0.05555555555556            48
   -0.22222222222222    0.38888888888889    0.05555555555556            24
   -0.44444444444444    0.44444444444444    0.05555555555556            24
   -0.38888888888888    0.44444444444444    0.05555555555556            48
   -0.33333333333333    0.44444444444444    0.05555555555556            48
   -0.27777777777778    0.44444444444444    0.05555555555556            48
    0.50000000000000    0.50000000000000    0.05555555555556            12
   -0.44444444444444    0.50000000000000    0.05555555555556            48
   -0.38888888888888    0.50000000000000    0.05555555555556            48
   -0.33333333333333    0.50000000000000    0.05555555555556            48
   -0.27777777777778    0.50000000000000    0.05555555555556            24
   -0.44444444444444   -0.44444444444444    0.05555555555556            24
   -0.38888888888888   -0.44444444444444    0.05555555555556            48
   -0.33333333333333   -0.44444444444444    0.05555555555556            48
   -0.38888888888888   -0.38888888888888    0.05555555555556            24
   -0.33333333333333   -0.38888888888888    0.05555555555556            24
    0.11111111111112    0.11111111111112    0.11111111111112             8
    0.16666666666667    0.11111111111112    0.11111111111112            24
    0.22222222222222    0.11111111111112    0.11111111111112            24
    0.27777777777778    0.11111111111112    0.11111111111112            24
    0.33333333333334    0.11111111111112    0.11111111111112            24
    0.38888888888889    0.11111111111112    0.11111111111112            12
   -0.11111111111111    0.11111111111112    0.11111111111112             6
    0.16666666666667    0.16666666666667    0.11111111111112            24
    0.22222222222222    0.16666666666667    0.11111111111112            48
    0.27777777777778    0.16666666666667    0.11111111111112            48
    0.33333333333334    0.16666666666667    0.11111111111112            48
   -0.16666666666666    0.16666666666667    0.11111111111112            24
    0.22222222222222    0.22222222222222    0.11111111111112            24
    0.27777777777778    0.22222222222222    0.11111111111112            48
    0.33333333333334    0.22222222222222    0.11111111111112            24
   -0.22222222222222    0.22222222222222    0.11111111111112            24
   -0.16666666666666    0.22222222222222    0.11111111111112            24
    0.27777777777778    0.27777777777778    0.11111111111112            24
   -0.27777777777778    0.27777777777778    0.11111111111112            24
   -0.22222222222222    0.27777777777778    0.11111111111112            48
   -0.33333333333333    0.33333333333334    0.11111111111112            24
   -0.27777777777778    0.33333333333334    0.11111111111112            48
   -0.22222222222222    0.33333333333334    0.11111111111112            24
   -0.38888888888888    0.38888888888889    0.11111111111112            24
   -0.33333333333333    0.38888888888889    0.11111111111112            48
   -0.27777777777778    0.38888888888889    0.11111111111112            48
   -0.44444444444444    0.44444444444444    0.11111111111112            24
   -0.38888888888888    0.44444444444444    0.11111111111112            48
   -0.33333333333333    0.44444444444444    0.11111111111112            48
   -0.27777777777778    0.44444444444444    0.11111111111112            24
    0.50000000000000    0.50000000000000    0.11111111111112            12
   -0.44444444444444    0.50000000000000    0.11111111111112            48
   -0.38888888888888    0.50000000000000    0.11111111111112            48
   -0.33333333333333    0.50000000000000    0.11111111111112            48
   -0.44444444444444   -0.44444444444444    0.11111111111112            24
   -0.38888888888888   -0.44444444444444    0.11111111111112            48
   -0.33333333333333   -0.44444444444444    0.11111111111112            24
   -0.38888888888888   -0.38888888888888    0.11111111111112            24
    0.16666666666667    0.16666666666667    0.16666666666667             8
    0.22222222222222    0.16666666666667    0.16666666666667            24
    0.27777777777778    0.16666666666667    0.16666666666667            24
    0.33333333333334    0.16666666666667    0.16666666666667            12
   -0.16666666666666    0.16666666666667    0.16666666666667             6
    0.22222222222222    0.22222222222222    0.16666666666667            24
    0.27777777777778    0.22222222222222    0.16666666666667            48
   -0.22222222222222    0.22222222222222    0.16666666666667            24
    0.27777777777778    0.27777777777778    0.16666666666667             8
   -0.27777777777778    0.27777777777778    0.16666666666667            24
   -0.22222222222222    0.27777777777778    0.16666666666667            24
   -0.33333333333333    0.33333333333334    0.16666666666667            24
   -0.27777777777778    0.33333333333334    0.16666666666667            48
   -0.38888888888888    0.38888888888889    0.16666666666667            24
   -0.33333333333333    0.38888888888889    0.16666666666667            48
   -0.27777777777778    0.38888888888889    0.16666666666667            24
   -0.44444444444444    0.44444444444444    0.16666666666667            24
   -0.38888888888888    0.44444444444444    0.16666666666667            48
   -0.33333333333333    0.44444444444444    0.16666666666667            48
    0.50000000000000    0.50000000000000    0.16666666666667            12
   -0.44444444444444    0.50000000000000    0.16666666666667            48
   -0.38888888888888    0.50000000000000    0.16666666666667            48
   -0.33333333333333    0.50000000000000    0.16666666666667            24
   -0.44444444444444   -0.44444444444444    0.16666666666667            24
   -0.38888888888888   -0.44444444444444    0.16666666666667            48
   -0.38888888888888   -0.38888888888888    0.16666666666667             8
    0.22222222222222    0.22222222222222    0.22222222222222             8
    0.27777777777778    0.22222222222222    0.22222222222222            12
   -0.22222222222222    0.22222222222222    0.22222222222222             6
   -0.27777777777778    0.27777777777778    0.22222222222222            24
   -0.33333333333333    0.33333333333334    0.22222222222222            24
   -0.27777777777778    0.33333333333334    0.22222222222222            24
   -0.38888888888888    0.38888888888889    0.22222222222222            24
   -0.33333333333333    0.38888888888889    0.22222222222222            48
   -0.44444444444444    0.44444444444444    0.22222222222222            24
   -0.38888888888888    0.44444444444444    0.22222222222222            48
   -0.33333333333333    0.44444444444444    0.22222222222222            24
    0.50000000000000    0.50000000000000    0.22222222222222            12
   -0.44444444444444    0.50000000000000    0.22222222222222            48
   -0.38888888888888    0.50000000000000    0.22222222222222            48
   -0.44444444444444   -0.44444444444444    0.22222222222222            24
   -0.38888888888888   -0.44444444444444    0.22222222222222            24
   -0.27777777777778    0.27777777777778    0.27777777777778             6
   -0.33333333333333    0.33333333333334    0.27777777777778            24
   -0.38888888888888    0.38888888888889    0.27777777777778            24
   -0.33333333333333    0.38888888888889    0.27777777777778            24
   -0.44444444444444    0.44444444444444    0.27777777777778            24
   -0.38888888888888    0.44444444444444    0.27777777777778            48
    0.50000000000000    0.50000000000000    0.27777777777778            12
   -0.44444444444444    0.50000000000000    0.27777777777778            48
   -0.38888888888888    0.50000000000000    0.27777777777778            24
   -0.44444444444444   -0.44444444444444    0.27777777777778            24
   -0.33333333333333    0.33333333333334    0.33333333333334             6
   -0.38888888888888    0.38888888888889    0.33333333333334            24
   -0.44444444444444    0.44444444444444    0.33333333333334            24
   -0.38888888888888    0.44444444444444    0.33333333333334            24
    0.50000000000000    0.50000000000000    0.33333333333334            12
   -0.44444444444444    0.50000000000000    0.33333333333334            48
   -0.44444444444444   -0.44444444444444    0.33333333333334             8
   -0.38888888888888    0.38888888888889    0.38888888888889             6
   -0.44444444444444    0.44444444444444    0.38888888888889            24
    0.50000000000000    0.50000000000000    0.38888888888889            12
   -0.44444444444444    0.50000000000000    0.38888888888889            24
   -0.44444444444444    0.44444444444444    0.44444444444444             6
    0.50000000000000    0.50000000000000    0.44444444444444            12
    0.50000000000000    0.50000000000000    0.50000000000000             1
Tetrahedra
      6794    0.00002857796068
         4        38        39        39        47
         8        39        39        47        47
         4        39        47        47        92
         4        39        40        47        48
         4        39        47        47        48
        12        47        47        48        92
         8        40        47        48        48
         8        47        48        48        93
         8        47        48        92        93
         4        40        41        48        49
         4        40        48        48        49
        12        48        48        49        93
         8        41        48        49        49
         4        48        49        49        94
         4        48        49        93        94
         4        41        42        49        50
         4        41        49        49        50
         8        49        49        50        94
         8        42        49        50        50
         4        49        50        50        95
         4        49        50        94        95
         4        42        43        50        51
         4        42        50        50        51
         8        50        50        51        95
         8        43        50        51        51
         4        50        51        51        96
         4        50        51        95        96
         4        43        44        51        52
         4        43        51        51        52
         8        51        51        52        96
         8        44        51        52        52
         4        51        52        52        97
         4        51        52        96        97
         4        44        45        52        52
         4        44        52        52        52
         8        52        52        52        97
         8        45        52        52        52
         4        52        52        52        96
         4        52        52        96        97
         4        44        45        51        52
         4        45        51        52        52
         8        51        52        52        96
         8        44        51        51        52
         4        51        51        52        95
         4        51        52        95        96
         4        43        44        50        51
         4        44        50        51        51
         8        50        51        51        95
         8        43        50        50        51
         4        50        50        51        94
         4        50        51        94        95
         4        42        43        49        50
         4        43        49        50        50
         8        49        50        50        94
         8        42        49        49        50
         4        49        49        50        93
         4        49        50        93        94
         4        41        42        48        49
         4        42        48        49        49
         8        48        49        49        93
         8        41        48        48        49
         4        48        48        49        92
         4        48        49        92        93
         4        40        41        47        48
         4        41        47        48        48
        16        47        48        48        92
         8        40        47        47        48
         4        47        47        47        48
         4        39        39        40        47
         8        39        40        47        47
         4        39        47        47        47
         4        39        39        39        47
         8        19        39        39        47
         4        19        39        47        47
        12        12        38        39        39
         4        12        39        39        39
         8        12        19        39        39
        16        12        12        38        39
         4        12        12        39        60
         4        12        19        39        60
         4        11        12        38        53
         4        12        12        38        53
        12        12        12        53        60
         8        11        12        53        53
         4        12        53        53        98
         4        12        53        60        98
         4        11        46        53        53
         4        11        53        53        53
         4        53        53        53        98
         4        46        53        53        53
         4        53        53        53        60
         4        53        53        60        98
         4        11        12        46        53
         4        12        46        53        53
         8        12        53        53        60
        16        11        12        12        53
         4        12        12        19        53
         4        12        19        53        60
         8        11        12        38        39
         8        11        12        12        39
         8        12        12        19        39
         4        12        39        39        47
         4        12        19        39        47
         4        47        48        54        92
        12        48        54        92        93
         4        54        92        93        99
         4        48        49        55        93
         4        48        54        55        93
         8        54        55        93        99
        12        49        55        93        94
         4        55        93        94       100
         4        55        93        99       100
         4        49        50        56        94
         4        49        55        56        94
         8        55        56        94       100
        12        50        56        94        95
         4        56        94        95       101
         4        56        94       100       101
         4        50        51        57        95
         4        50        56        57        95
         8        56        57        95       101
        12        51        57        95        96
         4        57        95        96       102
         4        57        95       101       102
         4        51        52        58        96
         4        51        57        58        96
         8        57        58        96       102
        16        52        58        96        97
        16        58        96        97       102
         8        58        96       102       102
         8        52        52        57        97
        12        52        57        58        97
        12        57        58        97       102
        12        52        57        96        97
         4        57        96        97       101
         4        57        97       101       102
         4        51        52        56        96
         4        52        56        57        96
         8        56        57        96       101
        12        51        56        95        96
         4        56        95        96       100
         4        56        96       100       101
         4        50        51        55        95
         4        51        55        56        95
         8        55        56        95       100
        12        50        55        94        95
         4        55        94        95        99
         4        55        95        99       100
         4        49        50        54        94
         4        50        54        55        94
        12        54        55        94        99
        12        49        54        93        94
         4        54        93        93        94
        16        54        93        94        99
        16        48        49        54        93
         8        48        54        93        93
        16        48        48        92        93
         4        48        48        93        93
        12        40        47        48        92
         8        40        48        48        92
         8        40        47        47        92
         4        20        40        47        92
         4        20        40        48        92
         4        13        39        47        47
         4        13        40        47        47
         8        13        20        40        47
        12        13        19        39        47
         4        13        19        47        65
         4        13        20        47        65
         4        12        19        39        59
         4        13        19        39        59
         8        13        19        59        65
        12        12        19        59        60
         4        19        59        60       103
         4        19        59        65       103
         4        12        53        60        60
         4        12        59        60        60
         4        59        60        60       103
         8        53        60        60        98
         8        60        60        98       103
         4        60        60       103       103
         4        53        53        59        98
        12        53        59        60        98
        12        59        60        98       103
         4        59        60        65        98
         4        59        65        98       103
         4        12        13        53        60
         4        13        53        59        60
         8        13        59        60        65
        12        12        13        19        60
         4        13        19        20        60
         4        13        20        60        65
         4        12        19        39        40
         4        12        13        19        40
         8        13        19        20        40
        16        19        39        40        47
         4        19        40        47        48
         4        19        20        40        48
         4        54        55        61        99
         8        55        61        99       100
         4        61        99       100       104
         4        55        56        62       100
         4        55        61        62       100
         8        61        62       100       104
         8        56        62       100       101
         4        62       100       101       105
         4        62       100       104       105
         4        56        57        63       101
         4        56        62        63       101
         8        62        63       101       105
         8        57        63       101       102
         4        63       101       102       106
         4        63       101       105       106
         8        57        58        63       102
         4        57        63        63       102
         8        63        63       102       106
         8        58        63       102       102
         4        63       102       102       105
         8        63       102       105       106
         4        57        58        62       102
         4        58        62        63       102
         8        62        63       102       105
         8        57        62       101       102
         4        62       101       102       104
         4        62       102       104       105
         4        56        57        61       101
         4        57        61        62       101
        12        61        62       101       104
         8        56        61       100       101
         4        61       100       100       101
        12        61       100       101       104
         4        55        55        56       100
         8        55        56        61       100
         8        55        61       100       100
         8        55        55        99       100
        16        55        94        99       100
         4        55        94       100       100
        12        49        54        55        99
         4        49        55        55        99
         8        49        55        94        99
        12        49        54        93        99
         4        49        49        93        99
         4        49        49        94        99
         4        41        48        54        93
         4        41        49        54        93
         4        41        49        49        93
         4        41        48        48        93
         4        21        41        48        93
         4        21        41        49        93
         4        14        40        48        48
         4        14        41        48        48
         8        14        21        41        48
         8        14        20        40        48
         4        14        20        48        69
         4        14        21        48        69
         4        13        20        40        64
         4        14        20        40        64
         8        14        20        64        69
         8        13        20        64        65
         4        20        64        65       107
         4        20        64        69       107
         4        13        59        65        65
         4        13        64        65        65
         4        64        65        65       107
         8        59        65        65       103
        12        65        65       103       108
         4        65        65       107       108
         8        59        60        65       103
         8        60        65       103       103
         4        65       103       103       107
         8        65       103       107       108
         4        59        60        64       103
         4        60        64        65       103
         8        64        65       103       107
         8        59        64        65       103
         4        64        65        69       103
         4        64        69       103       107
         4        13        14        59        65
         4        14        59        64        65
         8        14        64        65        69
         8        13        14        20        65
         4        14        20        21        65
         4        14        21        65        69
         4        13        20        40        41
         4        13        14        20        41
         8        14        20        21        41
        12        20        40        41        48
         4        20        41        48        49
         4        20        21        41        49
         4        61        62        66       104
         8        62        66       104       105
         4        66       104       105       109
         4        62        63        67       105
         4        62        66        67       105
         8        66        67       105       109
        12        63        67       105       106
        12        67       105       106       109
         4        67       105       109       109
         4        63        63        66       106