unknown system                          
            1
    -1.657927    1.657927    1.657927
     1.657927   -1.657927    1.657927
     1.657927    1.657927   -1.657927
   Ti
     1
Direct configuration=     1
   0.00000000  0.00000000  0.00000000
