   2   2   0   0
  0.2227642E+02  0.3979210E-09  0.3979210E-09  0.3979210E-09  0.1000000E-15
   1.0000000000000000E-004
  CAR 
 unknown system                          
     21.15647520    -23.85519572  301     -0.58041088      1.00000000
    -23.855  0.0000E+00  0.0000E+00
    -23.705  0.0000E+00  0.0000E+00
    -23.555  0.0000E+00  0.0000E+00
    -23.405  0.0000E+00  0.0000E+00
    -23.255  0.0000E+00  0.0000E+00
    -23.105  0.0000E+00  0.0000E+00
    -22.955  0.0000E+00  0.0000E+00
    -22.805  0.0000E+00  0.0000E+00
    -22.655  0.0000E+00  0.0000E+00
    -22.505  0.0000E+00  0.0000E+00
    -22.355  0.0000E+00  0.0000E+00
    -22.205  0.0000E+00  0.0000E+00
    -22.055  0.1100E-12  0.1650E-13
    -21.905  0.6253E-03  0.9381E-04
    -21.755  0.5701E+00  0.8564E-01
    -21.605  0.9573E-01  0.1000E+00
    -21.455  0.4849E-07  0.1000E+00
    -21.305  0.0000E+00  0.1000E+00
    -21.154  0.0000E+00  0.1000E+00
    -21.004  0.0000E+00  0.1000E+00
    -20.854  0.0000E+00  0.1000E+00
    -20.704  0.0000E+00  0.1000E+00
    -20.554  0.0000E+00  0.1000E+00
    -20.404  0.0000E+00  0.1000E+00
    -20.254  0.0000E+00  0.1000E+00
    -20.104  0.0000E+00  0.1000E+00
    -19.954  0.0000E+00  0.1000E+00
    -19.804  0.0000E+00  0.1000E+00
    -19.654  0.0000E+00  0.1000E+00
    -19.504  0.0000E+00  0.1000E+00
    -19.354  0.0000E+00  0.1000E+00
    -19.204  0.0000E+00  0.1000E+00
    -19.054  0.0000E+00  0.1000E+00
    -18.904  0.0000E+00  0.1000E+00
    -18.754  0.0000E+00  0.1000E+00
    -18.604  0.0000E+00  0.1000E+00
    -18.454  0.0000E+00  0.1000E+00
    -18.304  0.0000E+00  0.1000E+00
    -18.154  0.0000E+00  0.1000E+00
    -18.004  0.0000E+00  0.1000E+00
    -17.854  0.0000E+00  0.1000E+00
    -17.704  0.0000E+00  0.1000E+00
    -17.554  0.0000E+00  0.1000E+00
    -17.404  0.0000E+00  0.1000E+00
    -17.253  0.0000E+00  0.1000E+00
    -17.103  0.0000E+00  0.1000E+00
    -16.953  0.0000E+00  0.1000E+00
    -16.803  0.0000E+00  0.1000E+00
    -16.653  0.0000E+00  0.1000E+00
    -16.503  0.0000E+00  0.1000E+00
    -16.353  0.0000E+00  0.1000E+00
    -16.203  0.0000E+00  0.1000E+00
    -16.053  0.0000E+00  0.1000E+00
    -15.903  0.0000E+00  0.1000E+00
    -15.753  0.0000E+00  0.1000E+00
    -15.603  0.0000E+00  0.1000E+00
    -15.453  0.0000E+00  0.1000E+00
    -15.303  0.0000E+00  0.1000E+00
    -15.153  0.0000E+00  0.1000E+00
    -15.003  0.0000E+00  0.1000E+00
    -14.853  0.0000E+00  0.1000E+00
    -14.703  0.0000E+00  0.1000E+00
    -14.553  0.0000E+00  0.1000E+00
    -14.403  0.0000E+00  0.1000E+00
    -14.253  0.0000E+00  0.1000E+00
    -14.103  0.0000E+00  0.1000E+00
    -13.953  0.0000E+00  0.1000E+00
    -13.803  0.0000E+00  0.1000E+00
    -13.653  0.1281E-08  0.1000E+00
    -13.503  0.5915E-03  0.1001E+00
    -13.352  0.1812E-01  0.1028E+00
    -13.202  0.7992E-01  0.1148E+00
    -13.052  0.1232E+00  0.1333E+00
    -12.902  0.3831E-03  0.1333E+00
    -12.752  0.6156E-12  0.1333E+00
    -12.602  0.0000E+00  0.1333E+00
    -12.452  0.0000E+00  0.1333E+00
    -12.302  0.0000E+00  0.1333E+00
    -12.152  0.0000E+00  0.1333E+00
    -12.002  0.0000E+00  0.1333E+00
    -11.852  0.0000E+00  0.1333E+00
    -11.702  0.0000E+00  0.1333E+00
    -11.552  0.0000E+00  0.1333E+00
    -11.402  0.0000E+00  0.1333E+00
    -11.252  0.0000E+00  0.1333E+00
    -11.102  0.0000E+00  0.1333E+00
    -10.952  0.0000E+00  0.1333E+00
    -10.802  0.0000E+00  0.1333E+00
    -10.652  0.0000E+00  0.1333E+00
    -10.502  0.0000E+00  0.1333E+00
    -10.352  0.0000E+00  0.1333E+00
    -10.202  0.0000E+00  0.1333E+00
    -10.052  0.0000E+00  0.1333E+00
     -9.902  0.0000E+00  0.1333E+00
     -9.752  0.0000E+00  0.1333E+00
     -9.601  0.0000E+00  0.1333E+00
     -9.451  0.0000E+00  0.1333E+00
     -9.301  0.0000E+00  0.1333E+00
     -9.151  0.0000E+00  0.1333E+00
     -9.001  0.0000E+00  0.1333E+00
     -8.851  0.0000E+00  0.1333E+00
     -8.701  0.0000E+00  0.1333E+00
     -8.551  0.0000E+00  0.1333E+00
     -8.401  0.0000E+00  0.1333E+00
     -8.251  0.0000E+00  0.1333E+00
     -8.101  0.0000E+00  0.1333E+00
     -7.951  0.0000E+00  0.1333E+00
     -7.801  0.0000E+00  0.1333E+00
     -7.651  0.0000E+00  0.1333E+00
     -7.501  0.0000E+00  0.1333E+00
     -7.351  0.0000E+00  0.1333E+00
     -7.201  0.0000E+00  0.1333E+00
     -7.051  0.0000E+00  0.1333E+00
     -6.901  0.0000E+00  0.1333E+00
     -6.751  0.0000E+00  0.1333E+00
     -6.601  0.0000E+00  0.1333E+00
     -6.451  0.0000E+00  0.1333E+00
     -6.301  0.0000E+00  0.1333E+00
     -6.151  0.0000E+00  0.1333E+00
     -6.001  0.0000E+00  0.1333E+00
     -5.851  0.0000E+00  0.1333E+00
     -5.700  0.0000E+00  0.1333E+00
     -5.550  0.0000E+00  0.1333E+00
     -5.400  0.0000E+00  0.1333E+00
     -5.250  0.0000E+00  0.1333E+00
     -5.100  0.0000E+00  0.1333E+00
     -4.950  0.0000E+00  0.1333E+00
     -4.800  0.0000E+00  0.1333E+00
     -4.650  0.0000E+00  0.1333E+00
     -4.500  0.0000E+00  0.1333E+00
     -4.350  0.0000E+00  0.1333E+00
     -4.200  0.0000E+00  0.1333E+00
     -4.050  0.0000E+00  0.1333E+00
     -3.900  0.0000E+00  0.1333E+00
     -3.750  0.0000E+00  0.1333E+00
     -3.600  0.0000E+00  0.1333E+00
     -3.450  0.0000E+00  0.1333E+00
     -3.300  0.0000E+00  0.1333E+00
     -3.150  0.0000E+00  0.1333E+00
     -3.000  0.5101E-16  0.1333E+00
     -2.850  0.6573E-06  0.1333E+00
     -2.700  0.1665E-02  0.1336E+00
     -2.550  0.1556E-01  0.1359E+00
     -2.400  0.3917E-01  0.1418E+00
     -2.250  0.8939E-01  0.1552E+00
     -2.100  0.3905E-01  0.1611E+00
     -1.950  0.2166E-01  0.1643E+00
     -1.799  0.3558E-01  0.1697E+00
     -1.649  0.3604E-01  0.1751E+00
     -1.499  0.6169E-01  0.1843E+00
     -1.349  0.9655E-01  0.1988E+00
     -1.199  0.1085E+00  0.2151E+00
     -1.049  0.8887E-01  0.2284E+00
     -0.899  0.3135E-01  0.2331E+00
     -0.749  0.1386E-02  0.2333E+00
     -0.599  0.4671E-08  0.2333E+00
     -0.449  0.0000E+00  0.2333E+00
     -0.299  0.0000E+00  0.2333E+00
     -0.149  0.0000E+00  0.2333E+00
      0.001  0.0000E+00  0.2333E+00
      0.151  0.0000E+00  0.2333E+00
      0.301  0.0000E+00  0.2333E+00
      0.451  0.0000E+00  0.2333E+00
      0.601  0.0000E+00  0.2333E+00
      0.751  0.0000E+00  0.2333E+00
      0.901  0.0000E+00  0.2333E+00
      1.051  0.0000E+00  0.2333E+00
      1.201  0.0000E+00  0.2333E+00
      1.351  0.0000E+00  0.2333E+00
      1.501  0.0000E+00  0.2333E+00
      1.651  0.0000E+00  0.2333E+00
      1.801  0.0000E+00  0.2333E+00
      1.951  0.0000E+00  0.2333E+00
      2.102  0.0000E+00  0.2333E+00
      2.252  0.0000E+00  0.2333E+00
      2.402  0.0000E+00  0.2333E+00
      2.552  0.0000E+00  0.2333E+00
      2.702  0.0000E+00  0.2333E+00
      2.852  0.0000E+00  0.2333E+00
      3.002  0.0000E+00  0.2333E+00
      3.152  0.0000E+00  0.2333E+00
      3.302  0.0000E+00  0.2333E+00
      3.452  0.0000E+00  0.2333E+00
      3.602  0.0000E+00  0.2333E+00
      3.752  0.0000E+00  0.2333E+00
      3.902  0.1866E-10  0.2333E+00
      4.052  0.3590E-04  0.2333E+00
      4.202  0.1861E-03  0.2334E+00
      4.352  0.9977E-04  0.2334E+00
      4.502  0.2174E-02  0.2337E+00
      4.652  0.8363E-03  0.2338E+00
      4.802  0.7098E-04  0.2338E+00
      4.952  0.2567E-02  0.2342E+00
      5.102  0.2059E-02  0.2345E+00
      5.252  0.5074E-02  0.2353E+00
      5.402  0.9451E-05  0.2353E+00
      5.552  0.1302E-02  0.2355E+00
      5.702  0.5715E-02  0.2364E+00
      5.853  0.6642E-02  0.2374E+00
      6.003  0.5442E-02  0.2382E+00
      6.153  0.4143E-02  0.2388E+00
      6.303  0.6964E-02  0.2398E+00
      6.453  0.1288E-01  0.2418E+00
      6.603  0.2015E-01  0.2448E+00
      6.753  0.1622E-01  0.2472E+00
      6.903  0.1273E-01  0.2491E+00
      7.053  0.2397E-01  0.2527E+00
      7.203  0.2045E-01  0.2558E+00
      7.353  0.2610E-01  0.2597E+00
      7.503  0.1342E-01  0.2617E+00
      7.653  0.2100E-01  0.2649E+00
      7.803  0.2856E-01  0.2692E+00
      7.953  0.1890E-01  0.2720E+00
      8.103  0.9802E-02  0.2735E+00
      8.253  0.2247E-01  0.2768E+00
      8.403  0.4425E-01  0.2835E+00
      8.553  0.1273E-01  0.2854E+00
      8.703  0.2701E-01  0.2894E+00
      8.853  0.3961E-01  0.2954E+00
      9.003  0.4274E-01  0.3018E+00
      9.153  0.2928E-01  0.3062E+00
      9.303  0.4907E-01  0.3136E+00
      9.453  0.3604E-01  0.3190E+00
      9.603  0.1723E-01  0.3215E+00
      9.754  0.2212E-01  0.3249E+00
      9.904  0.1436E-01  0.3270E+00
     10.054  0.1126E-01  0.3287E+00
     10.204  0.1962E-01  0.3317E+00
     10.354  0.1890E-01  0.3345E+00
     10.504  0.2342E-01  0.3380E+00
     10.654  0.4001E-01  0.3440E+00
     10.804  0.1775E-01  0.3467E+00
     10.954  0.2991E-01  0.3512E+00
     11.104  0.3607E-01  0.3566E+00
     11.254  0.1357E-01  0.3586E+00
     11.404  0.2684E-01  0.3626E+00
     11.554  0.1682E-01  0.3652E+00
     11.704  0.1316E-01  0.3671E+00
     11.854  0.2721E-02  0.3675E+00
     12.004  0.2450E-01  0.3712E+00
     12.154  0.2110E-01  0.3744E+00
     12.304  0.1932E-02  0.3747E+00
     12.454  0.1451E-01  0.3769E+00
     12.604  0.2569E-01  0.3807E+00
     12.754  0.1327E-01  0.3827E+00
     12.904  0.2249E-01  0.3861E+00
     13.054  0.3647E-01  0.3915E+00
     13.204  0.3537E-01  0.3968E+00
     13.354  0.1888E-01  0.3997E+00
     13.504  0.6729E-02  0.4007E+00
     13.655  0.1317E-01  0.4027E+00
     13.805  0.1670E-01  0.4052E+00
     13.955  0.2755E-01  0.4093E+00
     14.105  0.2405E-01  0.4129E+00
     14.255  0.2706E-01  0.4170E+00
     14.405  0.7961E-02  0.4182E+00
     14.555  0.1401E-01  0.4203E+00
     14.705  0.1289E-01  0.4222E+00
     14.855  0.3317E-01  0.4272E+00
     15.005  0.1888E-01  0.4300E+00
     15.155  0.4445E-01  0.4367E+00
     15.305  0.2569E-01  0.4405E+00
     15.455  0.2065E-01  0.4436E+00
     15.605  0.4828E-01  0.4509E+00
     15.755  0.1613E-01  0.4533E+00
     15.905  0.2248E-01  0.4567E+00
     16.055  0.4808E-01  0.4639E+00
     16.205  0.2207E-01  0.4672E+00
     16.355  0.2854E-01  0.4715E+00
     16.505  0.2030E-01  0.4745E+00
     16.655  0.3527E-01  0.4798E+00
     16.805  0.2556E-01  0.4837E+00
     16.955  0.4303E-01  0.4901E+00
     17.105  0.3495E-01  0.4954E+00
     17.255  0.1317E-01  0.4973E+00
     17.406  0.2558E-01  0.5012E+00
     17.556  0.2835E-01  0.5054E+00
     17.706  0.3695E-01  0.5110E+00
     17.856  0.3305E-01  0.5159E+00
     18.006  0.3573E-01  0.5213E+00
     18.156  0.2485E-01  0.5250E+00
     18.306  0.2060E-01  0.5281E+00
     18.456  0.2237E-01  0.5315E+00
     18.606  0.3618E-02  0.5320E+00
     18.756  0.1737E-02  0.5323E+00
     18.906  0.4934E-02  0.5330E+00
     19.056  0.5425E-03  0.5331E+00
     19.206  0.1662E-02  0.5333E+00
     19.356  0.6152E-05  0.5333E+00
     19.506  0.3380E-14  0.5333E+00
     19.656  0.0000E+00  0.5333E+00
     19.806  0.0000E+00  0.5333E+00
     19.956  0.0000E+00  0.5333E+00
     20.106  0.0000E+00  0.5333E+00
     20.256  0.0000E+00  0.5333E+00
     20.406  0.0000E+00  0.5333E+00
     20.556  0.0000E+00  0.5333E+00
     20.706  0.0000E+00  0.5333E+00
     20.856  0.0000E+00  0.5333E+00
     21.006  0.0000E+00  0.5333E+00
     21.156  0.0000E+00  0.5333E+00
