unknown system                          
            1
     0.000000    2.813726    2.813726
     2.813726    0.000000    2.813726
     2.813726    2.813726    0.000000
   Na   Cl
     1     1
Direct configuration=     1
   0.50000000  0.50000000  0.50000000
   0.00000000  0.00000000  0.00000000
unknown system                          
            1
     0.000000    2.817171    2.817171
     2.817171    0.000000    2.817171
     2.817171    2.817171    0.000000
   Na   Cl
     1     1
Direct configuration=     2
   0.50000000  0.50000000  0.50000000
   1.00000000  1.00000000  0.00000000
unknown system                          
            1
     0.000000    2.827506    2.827506
     2.827506    0.000000    2.827506
     2.827506    2.827506    0.000000
   Na   Cl
     1     1
Direct configuration=     3
   0.50000000  0.50000000  0.50000000
   0.00000000  0.00000000  0.00000000
unknown system                          
            1
     0.000000    2.848176    2.848176
     2.848176    0.000000    2.848176
     2.848176    2.848176    0.000000
   Na   Cl
     1     1
Direct configuration=     4
   0.50000000  0.50000000  0.50000000
   1.00000000  1.00000000  0.00000000
