unknown system                          
            1
     0.000000    2.813726    2.813726
     2.813726    0.000000    2.813726
     2.813726    2.813726    0.000000
   Na   Cl
     1     1
Direct configuration=     1
   0.50000000  0.50000000  0.50000000
   0.00000000  0.00000000  0.00000000
unknown system                          
            1
    -0.000000    2.817240    2.817240
     2.817240   -0.000000    2.817240
     2.817240    2.817240    0.000000
   Na   Cl
     1     1
Direct configuration=     2
   0.50000000  0.50000000  0.50000000
  -0.00000000  0.00000000 -0.00000000
unknown system                          
            1
    -0.000000    2.827784    2.827784
     2.827784   -0.000000    2.827784
     2.827784    2.827784    0.000000
   Na   Cl
     1     1
Direct configuration=     3
   0.50000000  0.50000000  0.50000000
  -0.00000000  0.00000000 -0.00000000
unknown system                          
            1
    -0.000000    2.848871    2.848871
     2.848871   -0.000000    2.848871
     2.848871    2.848871    0.000000
   Na   Cl
     1     1
Direct configuration=     4
   0.50000000  0.50000000  0.50000000
  -0.00000000  0.00000000 -0.00000000
