   2   2   0   0
  0.2825358E+02  0.4307310E-09  0.4307310E-09  0.4307310E-09  0.0000000E+00
  1.000000000000000E-004
  CAR 
 unknown system                          
     11.84632929     -9.53796528  301      2.23230686      1.00000000
     -9.538  0.0000E+00  0.0000E+00
     -9.467  0.0000E+00  0.0000E+00
     -9.395  0.0000E+00  0.0000E+00
     -9.324  0.0000E+00  0.0000E+00
     -9.253  0.0000E+00  0.0000E+00
     -9.182  0.0000E+00  0.0000E+00
     -9.110  0.0000E+00  0.0000E+00
     -9.039  0.0000E+00  0.0000E+00
     -8.968  0.0000E+00  0.0000E+00
     -8.896  0.0000E+00  0.0000E+00
     -8.825  0.0000E+00  0.0000E+00
     -8.754  0.0000E+00  0.0000E+00
     -8.683  0.0000E+00  0.0000E+00
     -8.611  0.0000E+00  0.0000E+00
     -8.540  0.1204E+00  0.1466E-02
     -8.469  0.2532E+00  0.1519E-01
     -8.397  0.3563E+00  0.3727E-01
     -8.326  0.4493E+00  0.6587E-01
     -8.255  0.5288E+00  0.1006E+00
     -8.184  0.6170E+00  0.1415E+00
     -8.112  0.7071E+00  0.1886E+00
     -8.041  0.8071E+00  0.2425E+00
     -7.970  0.9192E+00  0.3040E+00
     -7.899  0.1050E+01  0.3739E+00
     -7.827  0.1213E+01  0.4545E+00
     -7.756  0.1418E+01  0.5477E+00
     -7.685  0.1728E+01  0.6591E+00
     -7.613  0.2287E+01  0.7988E+00
     -7.542  0.2751E+01  0.9918E+00
     -7.471  0.2864E+01  0.1192E+01
     -7.400  0.2969E+01  0.1398E+01
     -7.328  0.3188E+01  0.1616E+01
     -7.257  0.4165E+01  0.1868E+01
     -7.186  0.0000E+00  0.2000E+01
     -7.114  0.0000E+00  0.2000E+01
     -7.043  0.0000E+00  0.2000E+01
     -6.972  0.0000E+00  0.2000E+01
     -6.901  0.0000E+00  0.2000E+01
     -6.829  0.0000E+00  0.2000E+01
     -6.758  0.0000E+00  0.2000E+01
     -6.687  0.0000E+00  0.2000E+01
     -6.615  0.0000E+00  0.2000E+01
     -6.544  0.0000E+00  0.2000E+01
     -6.473  0.0000E+00  0.2000E+01
     -6.402  0.0000E+00  0.2000E+01
     -6.330  0.0000E+00  0.2000E+01
     -6.259  0.0000E+00  0.2000E+01
     -6.188  0.0000E+00  0.2000E+01
     -6.116  0.0000E+00  0.2000E+01
     -6.045  0.0000E+00  0.2000E+01
     -5.974  0.0000E+00  0.2000E+01
     -5.903  0.0000E+00  0.2000E+01
     -5.831  0.0000E+00  0.2000E+01
     -5.760  0.0000E+00  0.2000E+01
     -5.689  0.0000E+00  0.2000E+01
     -5.618  0.0000E+00  0.2000E+01
     -5.546  0.0000E+00  0.2000E+01
     -5.475  0.0000E+00  0.2000E+01
     -5.404  0.0000E+00  0.2000E+01
     -5.332  0.0000E+00  0.2000E+01
     -5.261  0.0000E+00  0.2000E+01
     -5.190  0.0000E+00  0.2000E+01
     -5.119  0.0000E+00  0.2000E+01
     -5.047  0.0000E+00  0.2000E+01
     -4.976  0.0000E+00  0.2000E+01
     -4.905  0.0000E+00  0.2000E+01
     -4.833  0.0000E+00  0.2000E+01
     -4.762  0.0000E+00  0.2000E+01
     -4.691  0.0000E+00  0.2000E+01
     -4.620  0.0000E+00  0.2000E+01
     -4.548  0.0000E+00  0.2000E+01
     -4.477  0.0000E+00  0.2000E+01
     -4.406  0.0000E+00  0.2000E+01
     -4.334  0.0000E+00  0.2000E+01
     -4.263  0.0000E+00  0.2000E+01
     -4.192  0.0000E+00  0.2000E+01
     -4.121  0.0000E+00  0.2000E+01
     -4.049  0.0000E+00  0.2000E+01
     -3.978  0.0000E+00  0.2000E+01
     -3.907  0.0000E+00  0.2000E+01
     -3.835  0.0000E+00  0.2000E+01
     -3.764  0.0000E+00  0.2000E+01
     -3.693  0.0000E+00  0.2000E+01
     -3.622  0.0000E+00  0.2000E+01
     -3.550  0.0000E+00  0.2000E+01
     -3.479  0.0000E+00  0.2000E+01
     -3.408  0.0000E+00  0.2000E+01
     -3.337  0.0000E+00  0.2000E+01
     -3.265  0.0000E+00  0.2000E+01
     -3.194  0.0000E+00  0.2000E+01
     -3.123  0.0000E+00  0.2000E+01
     -3.051  0.0000E+00  0.2000E+01
     -2.980  0.0000E+00  0.2000E+01
     -2.909  0.0000E+00  0.2000E+01
     -2.838  0.0000E+00  0.2000E+01
     -2.766  0.0000E+00  0.2000E+01
     -2.695  0.0000E+00  0.2000E+01
     -2.624  0.0000E+00  0.2000E+01
     -2.552  0.0000E+00  0.2000E+01
     -2.481  0.8963E+00  0.2022E+01
     -2.410  0.2147E+01  0.2128E+01
     -2.339  0.5920E+01  0.2372E+01
     -2.267  0.3276E+01  0.2760E+01
     -2.196  0.2016E+01  0.2941E+01
     -2.125  0.1542E+01  0.3067E+01
     -2.053  0.1216E+01  0.3163E+01
     -1.982  0.1043E+01  0.3244E+01
     -1.911  0.8808E+00  0.3312E+01
     -1.840  0.7739E+00  0.3371E+01
     -1.768  0.6970E+00  0.3423E+01
     -1.697  0.6215E+00  0.3470E+01
     -1.626  0.5481E+00  0.3512E+01
     -1.554  0.5071E+00  0.3549E+01
     -1.483  0.4679E+00  0.3584E+01
     -1.412  0.4301E+00  0.3616E+01
     -1.341  0.3888E+00  0.3645E+01
     -1.269  0.3555E+00  0.3671E+01
     -1.198  0.3343E+00  0.3696E+01
     -1.127  0.3130E+00  0.3719E+01
     -1.056  0.2900E+00  0.3741E+01
     -0.984  0.2677E+00  0.3761E+01
     -0.913  0.2430E+00  0.3779E+01
     -0.842  0.2289E+00  0.3795E+01
     -0.770  0.2159E+00  0.3811E+01
     -0.699  0.2030E+00  0.3826E+01
     -0.628  0.1899E+00  0.3840E+01
     -0.557  0.1748E+00  0.3853E+01
     -0.485  0.1885E+00  0.3865E+01
     -0.414  0.8362E+00  0.3905E+01
     -0.343  0.1456E+01  0.3984E+01
     -0.271  0.1850E+01  0.4113E+01
     -0.200  0.1565E+01  0.4238E+01
     -0.129  0.1509E+01  0.4347E+01
     -0.058  0.1459E+01  0.4452E+01
      0.014  0.1350E+01  0.4551E+01
      0.085  0.1342E+01  0.4647E+01
      0.156  0.1411E+01  0.4745E+01
      0.228  0.1531E+01  0.4850E+01
      0.299  0.1556E+01  0.4960E+01
      0.370  0.1681E+01  0.5077E+01
      0.441  0.1915E+01  0.5206E+01
      0.513  0.2325E+01  0.5360E+01
      0.584  0.2232E+01  0.5519E+01
      0.655  0.2179E+01  0.5677E+01
      0.726  0.2177E+01  0.5832E+01
      0.798  0.2146E+01  0.5986E+01
      0.869  0.2100E+01  0.6137E+01
      0.940  0.2103E+01  0.6287E+01
      1.012  0.2072E+01  0.6436E+01
      1.083  0.2044E+01  0.6583E+01
      1.154  0.2025E+01  0.6728E+01
      1.225  0.1988E+01  0.6871E+01
      1.297  0.1998E+01  0.7013E+01
      1.368  0.2002E+01  0.7156E+01
      1.439  0.1986E+01  0.7298E+01
      1.511  0.1973E+01  0.7439E+01
      1.582  0.1455E+01  0.7558E+01
      1.653  0.1197E+01  0.7653E+01
      1.724  0.1005E+01  0.7730E+01
      1.796  0.8581E+00  0.7797E+01
      1.867  0.7397E+00  0.7853E+01
      1.938  0.6170E+00  0.7902E+01
      2.010  0.5061E+00  0.7942E+01
      2.081  0.3790E+00  0.7974E+01
      2.152  0.1866E+00  0.7994E+01
      2.223  0.0000E+00  0.8000E+01
      2.295  0.0000E+00  0.8000E+01
      2.366  0.0000E+00  0.8000E+01
      2.437  0.0000E+00  0.8000E+01
      2.509  0.0000E+00  0.8000E+01
      2.580  0.0000E+00  0.8000E+01
      2.651  0.0000E+00  0.8000E+01
      2.722  0.6510E-04  0.8000E+01
      2.794  0.4004E-03  0.8000E+01
      2.865  0.1021E-02  0.8000E+01
      2.936  0.1927E-02  0.8000E+01
      3.007  0.3118E-02  0.8000E+01
      3.079  0.4594E-02  0.8001E+01
      3.150  0.6355E-02  0.8001E+01
      3.221  0.9986E-02  0.8002E+01
      3.293  0.1316E-01  0.8002E+01
      3.364  0.1598E-01  0.8003E+01
      3.435  0.1898E-01  0.8005E+01
      3.506  0.2217E-01  0.8006E+01
      3.578  0.2591E-01  0.8008E+01
      3.649  0.5001E-01  0.8010E+01
      3.720  0.1067E+00  0.8016E+01
      3.792  0.1820E+00  0.8026E+01
      3.863  0.2319E+00  0.8041E+01
      3.934  0.2872E+00  0.8059E+01
      4.005  0.4297E+00  0.8084E+01
      4.077  0.5868E+00  0.8121E+01
      4.148  0.6603E+00  0.8166E+01
      4.219  0.7496E+00  0.8216E+01
      4.291  0.8575E+00  0.8273E+01
      4.362  0.9691E+00  0.8338E+01
      4.433  0.1090E+01  0.8412E+01
      4.504  0.1270E+01  0.8495E+01
      4.576  0.1427E+01  0.8592E+01
      4.647  0.1622E+01  0.8700E+01
      4.718  0.2016E+01  0.8828E+01
      4.790  0.2369E+01  0.8986E+01
      4.861  0.2357E+01  0.9157E+01
      4.932  0.2203E+01  0.9319E+01
      5.003  0.1820E+01  0.9463E+01
      5.075  0.1627E+01  0.9586E+01
      5.146  0.1361E+01  0.9692E+01
      5.217  0.1211E+01  0.9784E+01
      5.288  0.1336E+01  0.9874E+01
      5.360  0.1125E+01  0.9961E+01
      5.431  0.1113E+01  0.1004E+02
      5.502  0.1016E+01  0.1012E+02
      5.574  0.9544E+00  0.1019E+02
      5.645  0.9256E+00  0.1026E+02
      5.716  0.9402E+00  0.1032E+02
      5.787  0.9248E+00  0.1039E+02
      5.859  0.8630E+00  0.1045E+02
      5.930  0.8934E+00  0.1052E+02
      6.001  0.9301E+00  0.1058E+02
      6.073  0.9699E+00  0.1065E+02
      6.144  0.9405E+00  0.1072E+02
      6.215  0.1106E+01  0.1079E+02
      6.286  0.1368E+01  0.1088E+02
      6.358  0.2162E+01  0.1100E+02
      6.429  0.2633E+01  0.1119E+02
      6.500  0.2575E+01  0.1138E+02
      6.572  0.2267E+01  0.1155E+02
      6.643  0.2045E+01  0.1170E+02
      6.714  0.1559E+01  0.1184E+02
      6.785  0.1471E+01  0.1194E+02
      6.857  0.1438E+01  0.1204E+02
      6.928  0.1374E+01  0.1215E+02
      6.999  0.1218E+01  0.1224E+02
      7.071  0.1170E+01  0.1232E+02
      7.142  0.1344E+01  0.1241E+02
      7.213  0.1647E+01  0.1252E+02
      7.284  0.2049E+01  0.1265E+02
      7.356  0.2338E+01  0.1281E+02
      7.427  0.2478E+01  0.1298E+02
      7.498  0.2249E+01  0.1315E+02
      7.569  0.1980E+01  0.1330E+02
      7.641  0.1909E+01  0.1344E+02
      7.712  0.1684E+01  0.1357E+02
      7.783  0.1546E+01  0.1368E+02
      7.855  0.1519E+01  0.1379E+02
      7.926  0.1444E+01  0.1390E+02
      7.997  0.1403E+01  0.1400E+02
      8.068  0.1287E+01  0.1410E+02
      8.140  0.1152E+01  0.1418E+02
      8.211  0.1011E+01  0.1426E+02
      8.282  0.9886E+00  0.1433E+02
      8.354  0.9954E+00  0.1440E+02
      8.425  0.1030E+01  0.1447E+02
      8.496  0.1117E+01  0.1455E+02
      8.567  0.1190E+01  0.1463E+02
      8.639  0.1258E+01  0.1472E+02
      8.710  0.1342E+01  0.1481E+02
      8.781  0.1401E+01  0.1491E+02
      8.853  0.1528E+01  0.1501E+02
      8.924  0.1453E+01  0.1512E+02
      8.995  0.1257E+01  0.1522E+02
      9.066  0.1119E+01  0.1530E+02
      9.138  0.9858E+00  0.1538E+02
      9.209  0.9112E+00  0.1544E+02
      9.280  0.9599E+00  0.1551E+02
      9.351  0.8744E+00  0.1557E+02
      9.423  0.7695E+00  0.1563E+02
      9.494  0.4776E+00  0.1568E+02
      9.565  0.4462E+00  0.1572E+02
      9.637  0.4187E+00  0.1575E+02
      9.708  0.3872E+00  0.1578E+02
      9.779  0.3607E+00  0.1580E+02
      9.850  0.3354E+00  0.1583E+02
      9.922  0.3127E+00  0.1585E+02
      9.993  0.2826E+00  0.1587E+02
     10.064  0.2724E+00  0.1589E+02
     10.136  0.2432E+00  0.1591E+02
     10.207  0.2121E+00  0.1593E+02
     10.278  0.1827E+00  0.1594E+02
     10.349  0.1607E+00  0.1595E+02
     10.421  0.1430E+00  0.1596E+02
     10.492  0.1281E+00  0.1597E+02
     10.563  0.1125E+00  0.1598E+02
     10.635  0.1081E+00  0.1599E+02
     10.706  0.6197E-01  0.1600E+02
     10.777  0.2062E-01  0.1600E+02
     10.848  0.1464E-02  0.1600E+02
     10.920  0.0000E+00  0.1600E+02
     10.991  0.0000E+00  0.1600E+02
     11.062  0.0000E+00  0.1600E+02
     11.134  0.0000E+00  0.1600E+02
     11.205  0.0000E+00  0.1600E+02
     11.276  0.0000E+00  0.1600E+02
     11.347  0.0000E+00  0.1600E+02
     11.419  0.0000E+00  0.1600E+02
     11.490  0.0000E+00  0.1600E+02
     11.561  0.0000E+00  0.1600E+02
     11.632  0.0000E+00  0.1600E+02
     11.704  0.0000E+00  0.1600E+02
     11.775  0.0000E+00  0.1600E+02
     11.846  0.0000E+00  0.1600E+02
