    2    2    1    1
  0.2825358E+02  0.4307310E-09  0.4307310E-09  0.4307310E-09  0.0000000E+00
  1.000000000000000E-004
  CAR 
 unknown system                          
      8    195      8
 
  0.0000000E+00  0.0000000E+00  0.0000000E+00  0.1714678E-03
    1       -8.565952   1.000000
    2        2.206587   1.000000
    3        2.206587   1.000000
    4        2.206587   1.000000
    5        2.674204   0.000000
    6        6.125368   0.000000
    7        6.125368   0.000000
    8        6.125369   0.000000
 
  0.5555556E-01  0.0000000E+00  0.0000000E+00  0.1371742E-02
    1       -8.543460   1.000000
    2        1.654091   1.000000
    3        2.178951   1.000000
    4        2.178952   1.000000
    5        3.157888   0.000000
    6        6.138635   0.000000
    7        6.175771   0.000000
    8        6.175772   0.000000
 
  0.1111111E+00  0.0000000E+00  0.0000000E+00  0.1371742E-02
    1       -8.477085   1.000000
    2        0.907200   1.000000
    3        2.103197   1.000000
    4        2.103197   1.000000
    5        3.660672   0.000000
    6        6.249556   0.000000
    7        6.310943   0.000000
    8        6.310944   0.000000
 
  0.1666667E+00  0.0000000E+00  0.0000000E+00  0.1371742E-02
    1       -8.370499   1.000000
    2        0.166226   1.000000
    3        1.996547   1.000000
    4        1.996547   1.000000
    5        3.921320   0.000000
    6        6.486611   0.000000
    7        6.486612   0.000000
    8        6.586817   0.000000
 
  0.2222222E+00  0.0000000E+00  0.0000000E+00  0.1371742E-02
    1       -8.230387   1.000000
    2       -0.534978   1.000000
    3        1.878303   1.000000
    4        1.878303   1.000000
    5        3.956047   0.000000
    6        6.642887   0.000000
    7        6.642887   0.000000
    8        7.158278   0.000000
 
  0.2777778E+00  0.0000000E+00  0.0000000E+00  0.1371742E-02
    1       -8.067613   1.000000
    2       -1.171248   1.000000
    3        1.764558   1.000000
    4        1.764558   1.000000
    5        3.877704   0.000000
    6        6.731908   0.000000
    7        6.731908   0.000000
    8        7.857145   0.000000
 
  0.3333333E+00  0.0000000E+00  0.0000000E+00  0.1371742E-02
    1       -7.898495   1.000000
    2       -1.716829   1.000000
    3        1.666837   1.000000
    4        1.666837   1.000000
    5        3.770789   0.000000
    6        6.748364   0.000000
    7        6.748364   0.000000
    8        8.562707   0.000000
 
  0.3888889E+00  0.0000000E+00  0.0000000E+00  0.1371742E-02
    1       -7.745788   1.000000
    2       -2.142558   1.000000
    3        1.592660   1.000000
    4        1.592661   1.000000
    5        3.677021   0.000000
    6        6.723510   0.000000
    7        6.723511   0.000000
    8        9.115025   0.000000
 
  0.4444444E+00  0.0000000E+00  0.0000000E+00  0.1371742E-02
    1       -7.637063   1.000000
    2       -2.416682   1.000000
    3        1.546573   1.000000
    4        1.546573   1.000000
    5        3.615393   0.000000
    6        6.693355   0.000000
    7        6.693355   0.000000
    8        9.377248   0.000000
 
  0.5000000E+00  0.0000000E+00  0.0000000E+00  0.6858711E-03
    1       -7.597309   1.000000
    2       -2.511814   1.000000
    3        1.530966   1.000000
    4        1.530966   1.000000
    5        3.594080   0.000000
    6        6.680828   0.000000
    7        6.680828   0.000000
    8        9.436673   0.000000
 
  0.5555556E-01  0.5555556E-01  0.0000000E+00  0.1028807E-02
    1       -8.535948   1.000000
    2        1.595980   1.000000
    3        2.120099   1.000000
    4        2.120099   1.000000
    5        3.300933   0.000000
    6        5.998060   0.000000
    7        6.262486   0.000000
    8        6.262486   0.000000
 
  0.1111111E+00  0.5555556E-01  0.0000000E+00  0.4115226E-02
    1       -8.484151   1.000000
    2        1.034704   1.000000
    3        2.019089   1.000000
    4        2.060864   1.000000
    5        3.741949   0.000000
    6        5.931654   0.000000
    7        6.431563   0.000000
    8        6.435321   0.000000
 
  0.1666667E+00  0.5555556E-01  0.0000000E+00  0.4115226E-02
    1       -8.390867   1.000000
    2        0.347488   1.000000
    3        1.896267   1.000000
    4        1.978522   1.000000
    5        4.068119   0.000000
    6        6.013730   0.000000
    7        6.638005   0.000000
    8        6.709130   0.000000
 
  0.2222222E+00  0.5555556E-01  0.0000000E+00  0.4115226E-02
    1       -8.261660   1.000000
    2       -0.339317   1.000000
    3        1.771180   1.000000
    4        1.860542   1.000000
    5        4.170990   0.000000
    6        6.234881   0.000000
    7        6.821962   0.000000
    8        7.100851   0.000000
 
  0.2777778E+00  0.5555556E-01  0.0000000E+00  0.4115226E-02
    1       -8.105893   1.000000
    2       -0.981599   1.000000
    3        1.658900   1.000000
    4        1.726423   1.000000
    5        4.124436   0.000000
    6        6.447929   0.000000
    7        6.930329   0.000000
    8        7.613469   0.000000
 
  0.3333333E+00  0.5555556E-01  0.0000000E+00  0.4115226E-02
    1       -7.937841   1.000000
    2       -1.548423   1.000000
    3        1.569601   1.000000
    4        1.594790   1.000000
    5        4.026314   0.000000
    6        6.556212   0.000000
    7        6.948702   0.000000
    8        8.213090   0.000000
 
  0.3888889E+00  0.5555556E-01  0.0000000E+00  0.4115226E-02
    1       -7.778021   1.000000
    2       -2.009489   1.000000
    3        1.479194   1.000000
    4        1.509473   1.000000
    5        3.929718   0.000000
    6        6.584499   0.000000
    7        6.905387   0.000000
    8        8.812674   0.000000
 
  0.4444444E+00  0.5555556E-01  0.0000000E+00  0.4115226E-02
    1       -7.652631   1.000000
    2       -2.332473   1.000000
    3        1.388708   1.000000
    4        1.481695   1.000000
    5        3.858672   0.000000
    6        6.587827   0.000000
    7        6.840904   0.000000
    8        9.264431   0.000000
 
  0.5000000E+00  0.5555556E-01  0.0000000E+00  0.4115226E-02
    1       -7.588428   1.000000
    2       -2.487076   1.000000
    3        1.329186   1.000000
    4        1.487206   1.000000
    5        3.823792   0.000000
    6        6.602499   0.000000
    7        6.784861   0.000000
    8        9.459470   0.000000
 
 -0.4444444E+00  0.5555556E-01  0.0000000E+00  0.4115226E-02
    1       -7.601767   1.000000
    2       -2.455429   1.000000
    3        1.304222   1.000000
    4        1.525152   1.000000
    5        3.828988   0.000000
    6        6.642968   0.000000
    7        6.751062   0.000000
    8        9.440007   0.000000
 
 -0.3888889E+00  0.5555556E-01  0.0000000E+00  0.4115226E-02
    1       -7.689068   1.000000
    2       -2.241452   1.000000
    3        1.315699   1.000000
    4        1.592995   1.000000
    5        3.873571   0.000000
    6        6.705815   0.000000
    7        6.738206   0.000000
    8        9.188180   0.000000
 
 -0.3333333E+00  0.5555556E-01  0.0000000E+00  0.4115226E-02
    1       -7.829132   1.000000
    2       -1.868662   1.000000
    3        1.363932   1.000000
    4        1.686389   1.000000
    5        3.951743   0.000000
    6        6.729680   0.000000
    7        6.768876   0.000000
    8        8.672205   0.000000
 
 -0.2777778E+00  0.5555556E-01  0.0000000E+00  0.4115226E-02
    1       -7.994374   1.000000
    2       -1.369175   1.000000
    3        1.447499   1.000000
    4        1.798643   1.000000
    5        4.048898   0.000000
    6        6.694766   0.000000
    7        6.784051   0.000000
    8        8.034597   0.000000
 
 -0.2222222E+00  0.5555556E-01  0.0000000E+00  0.4115226E-02
    1       -8.160273   1.000000
    2       -0.775282   1.000000
    3        1.562838   1.000000
    4        1.919922   1.000000
    5        4.131998   0.000000
    6        6.603020   0.000000
    7        6.671461   0.000000
    8        7.448315   0.000000
 
 -0.1666667E+00  0.5555556E-01  0.0000000E+00  0.4115226E-02
    1       -8.308450   1.000000
    2       -0.118169   1.000000
    3        1.703757   1.000000
    4        2.036371   1.000000
    5        4.130769   0.000000
    6        6.398307   0.000000
    7        6.455979   0.000000
    8        7.021110   0.000000
 
 -0.1111111E+00  0.5555556E-01  0.0000000E+00  0.4115226E-02
    1       -8.426456   1.000000
    2        0.565878   1.000000
    3        1.861739   1.000000
    4        2.130147   1.000000
    5        3.940334   0.000000
    6        6.155883   0.000000
    7        6.298998   0.000000
    8        6.692234   0.000000
 
 -0.5555556E-01  0.5555556E-01  0.0000000E+00  0.2057613E-02
    1       -8.506307   1.000000
    2        1.212569   1.000000
    3        2.030030   1.000000
    4        2.182177   1.000000
    5        3.541169   0.000000
    6        6.092804   0.000000
    7        6.191620   0.000000
    8        6.401489   0.000000
 
  0.1111111E+00  0.1111111E+00  0.0000000E+00  0.1028807E-02
    1       -8.447284   1.000000
    2        0.833995   1.000000
    3        1.896234   1.000000
    4        1.896235   1.000000
    5        4.090348   0.000000
    6        5.686106   0.000000
    7        6.637128   0.000000
    8        6.637128   0.000000
 
  0.1666667E+00  0.1111111E+00  0.0000000E+00  0.4115226E-02
    1       -8.368431   1.000000
    2        0.348226   1.000000
    3        1.757390   1.000000
    4        1.779556   1.000000
    5        4.434429   0.000000
    6        5.585302   0.000000
    7        6.882851   0.000000
    8        6.906677   0.000000
 
  0.2222222E+00  0.1111111E+00  0.0000000E+00  0.4115226E-02
    1       -8.252204   1.000000
    2       -0.243409   1.000000
    3        1.622530   1.000000
    4        1.648181   1.000000
    5        4.609846   0.000000
    6        5.689406   0.000000
    7        7.109584   0.000000
    8        7.203148   0.000000
 
  0.2777778E+00  0.1111111E+00  0.0000000E+00  0.4115226E-02
    1       -8.106606   1.000000
    2       -0.841169   1.000000
    3        1.486138   1.000000
    4        1.506360   1.000000
    5        4.600063   0.000000
    6        5.966231   0.000000
    7        7.258273   0.000000
    8        7.450737   0.000000
 
  0.3333333E+00  0.1111111E+00  0.0000000E+00  0.4115226E-02
    1       -7.944053   1.000000
    2       -1.394067   1.000000
    3        1.312984   1.000000
    4        1.418565   1.000000
    5        4.512518   0.000000
    6        6.235962   0.000000
    7        7.301204   0.000000
    8        7.725311   0.000000
 
  0.3888889E+00  0.1111111E+00  0.0000000E+00  0.4115226E-02
    1       -7.782709   1.000000
    2       -1.864443   1.000000
    3        1.149681   1.000000
    4        1.364846   1.000000
    5        4.416293   0.000000
    6        6.378658   0.000000
    7        7.258742   0.000000
    8        8.163866   0.000000
 
  0.4444444E+00  0.1111111E+00  0.0000000E+00  0.4115226E-02
    1       -7.646575   1.000000
    2       -2.217078   1.000000
    3        1.011211   1.000000
    4        1.347897   1.000000
    5        4.339876   0.000000
    6        6.430250   0.000000
    7        7.174131   0.000000
    8        8.728973   0.000000
 
  0.5000000E+00  0.1111111E+00  0.0000000E+00  0.4115226E-02
    1       -7.562274   1.000000
    2       -2.418980   1.000000
    3        0.907402   1.000000
    4        1.368036   1.000000
    5        4.295526   0.000000
    6        6.464555   0.000000
    7        7.083710   0.000000
    8        9.247909   0.000000
 
 -0.4444444E+00  0.1111111E+00  0.0000000E+00  0.4115226E-02
    1       -7.549988   1.000000
    2       -2.446941   1.000000
    3        0.844765   1.000000
    4        1.423528   1.000000
    5        4.288013   0.000000
    6        6.518762   0.000000
    7        7.007489   0.000000
    8        9.453162   0.000000
 
 -0.3888889E+00  0.1111111E+00  0.0000000E+00  0.4115226E-02
    1       -7.612935   1.000000
    2       -2.297716   1.000000
    3        0.827831   1.000000
    4        1.510609   1.000000
    5        4.317211   0.000000
    6        6.600329   0.000000
    7        6.949473   0.000000
    8        9.195370   0.000000
 
 -0.3333333E+00  0.1111111E+00  0.0000000E+00  0.4115226E-02
    1       -7.735346   1.000000
    2       -1.990105   1.000000
    3        0.860058   1.000000
    4        1.623254   1.000000
    5        4.377814   0.000000
    6        6.692356   0.000000
    7        6.897974   0.000000
    8        8.639249   0.000000
 
 -0.2777778E+00  0.1111111E+00  0.0000000E+00  0.4115226E-02
    1       -7.891448   1.000000
    2       -1.556872   1.000000
    3        0.944477   1.000000
    4        1.752580   1.000000
    5        4.455851   0.000000
    6        6.738612   0.000000
    7        6.826648   0.000000
    8        8.038329   0.000000
 
 -0.2222222E+00  0.1111111E+00  0.0000000E+00  0.4115226E-02
    1       -8.055819   1.000000
    2       -1.036428   1.000000
    3        1.084457   1.000000
    4        1.886037   1.000000
    5        4.518646   0.000000
    6        6.619950   0.000000
    7        6.708161   0.000000
    8        7.595903   0.000000
 
 -0.1666667E+00  0.1111111E+00  0.0000000E+00  0.4115226E-02
    1       -8.208382   1.000000
    2       -0.471688   1.000000
    3        1.284609   1.000000
    4        2.006815   1.000000
    5        4.495433   0.000000
    6        6.338413   0.000000
    7        6.546663   0.000000
    8        7.340854   0.000000
 
 -0.1111111E+00  0.1111111E+00  0.0000000E+00  0.2057613E-02
    1       -8.335018   1.000000
    2        0.084341   1.000000
    3        1.549191   1.000000
    4        2.094624   1.000000
    5        4.293140   0.000000
    6        6.150908   0.000000
    7        6.390311   0.000000
    8        7.064199   0.000000
 
  0.1666667E+00  0.1666667E+00  0.0000000E+00  0.1028807E-02
    1       -8.304389   1.000000
    2        0.105179   1.000000
    3        1.604702   1.000000
    4        1.604702   1.000000
    5        4.768592   0.000000
    6        5.318706   0.000000
    7        7.176375   0.000000
    8        7.176375   0.000000
 
  0.2222222E+00  0.1666667E+00  0.0000000E+00  0.4115226E-02
    1       -8.202499   1.000000
    2       -0.318334   1.000000
    3        1.450277   1.000000
    4        1.459037   1.000000
    5        4.952860   0.000000
    6        5.267428   0.000000
    7        7.442800   0.000000
    8        7.460563   0.000000
 
  0.2777778E+00  0.1666667E+00  0.0000000E+00  0.4115226E-02
    1       -8.069559   1.000000
    2       -0.812886   1.000000
    3        1.262740   1.000000
    4        1.335376   1.000000
    5        4.940495   0.000000
    6        5.491873   0.000000
    7        7.510931   0.000000
    8        7.671029   0.000000
 
  0.3333333E+00  0.1666667E+00  0.0000000E+00  0.4115226E-02
    1       -7.916388   1.000000
    2       -1.305654   1.000000
    3        1.046026   1.000000
    4        1.243505   1.000000
    5        4.856270   0.000000
    6        5.859728   0.000000
    7        7.477697   0.000000
    8        7.763778   0.000000
 
  0.3888889E+00  0.1666667E+00  0.0000000E+00  0.4115226E-02
    1       -7.758902   1.000000
    2       -1.748292   1.000000
    3        0.828256   1.000000
    4        1.189198   1.000000
    5        4.768083   0.000000
    6        6.216486   0.000000
    7        7.573780   0.000000
    8        7.745006   0.000000
 
  0.4444444E+00  0.1666667E+00  0.0000000E+00  0.4115226E-02
    1       -7.618571   1.000000
    2       -2.100949   1.000000
    3        0.633692   1.000000
    4        1.175202   1.000000
    5        4.700944   0.000000
    6        6.418854   0.000000
    7        7.657707   0.000000
    8        7.952953   0.000000
 
  0.5000000E+00  0.1666667E+00  0.0000000E+00  0.4115226E-02
    1       -7.520424   1.000000
    2       -2.327925   1.000000
    3        0.478374   1.000000
    4        1.201819   1.000000
    5        4.667006   0.000000
    6        6.495694   0.000000
    7        7.545150   0.000000
    8        8.548660   0.000000
 
 -0.4444444E+00  0.1666667E+00  0.0000000E+00  0.4115226E-02
    1       -7.486198   1.000000
    2       -2.402199   1.000000
    3        0.372865   1.000000
    4        1.267140   1.000000
    5        4.670362   0.000000
    6        6.547347   0.000000
    7        7.433804   0.000000
    8        9.115518   0.000000
 
 -0.3888889E+00  0.1666667E+00  0.0000000E+00  0.4115226E-02
    1       -7.524409   1.000000
    2       -2.314750   1.000000
    3        0.325271   1.000000
    4        1.366958   1.000000
    5        4.708815   0.000000
    6        6.618172   0.000000
    7        7.331921   0.000000
    8        9.121521   0.000000
 
 -0.3333333E+00  0.1666667E+00  0.0000000E+00  0.4115226E-02
    1       -7.625457   1.000000
    2       -2.079888   1.000000
    3        0.343528   1.000000
    4        1.494366   1.000000
    5        4.773431   0.000000
    6        6.710845   0.000000
    7        7.230219   0.000000
    8        8.558570   0.000000
 
 -0.2777778E+00  0.1666667E+00  0.0000000E+00  0.4115226E-02
    1       -7.767169   1.000000
    2       -1.731279   1.000000
    3        0.437395   1.000000
    4        1.639047   1.000000
    5        4.844057   0.000000
    6        6.782210   0.000000
    7        7.103962   0.000000
    8        7.938574   0.000000
 
 -0.2222222E+00  0.1666667E+00  0.0000000E+00  0.4115226E-02
    1       -7.924690   1.000000
    2       -1.314244   1.000000
    3        0.619770   1.000000
    4        1.786309   1.000000
    5        4.875764   0.000000
    6        6.692263   0.000000
    7        6.930465   0.000000
    8        7.553544   0.000000
 
 -0.1666667E+00  0.1666667E+00  0.0000000E+00  0.2057613E-02
    1       -8.076945   1.000000
    2       -0.879298   1.000000
    3        0.903574   1.000000
    4        1.916572   1.000000
    5        4.780669   0.000000
    6        6.446510   0.000000
    7        6.725223   0.000000
    8        7.459458   0.000000
 
  0.2222222E+00  0.2222222E+00  0.0000000E+00  0.1028807E-02
    1       -8.115491   1.000000
    2       -0.574536   1.000000
    3        1.302852   1.000000
    4        1.302852   1.000000
    5        4.866341   0.000000
    6        5.259544   0.000000
    7        7.818192   0.000000
    8        7.818193   0.000000
 
  0.2777778E+00  0.2222222E+00  0.0000000E+00  0.4115226E-02
    1       -7.997011   1.000000
    2       -0.940312   1.000000
    3        1.130893   1.000000
    4        1.169784   1.000000
    5        4.790858   0.000000
    6        5.324155   0.000000
    7        7.931483   0.000000
    8        8.114445   0.000000
 
  0.3333333E+00  0.2222222E+00  0.0000000E+00  0.4115226E-02
    1       -7.856522   1.000000
    2       -1.338855   1.000000
    3        0.897752   1.000000
    4        1.070164   1.000000
    5        4.792853   0.000000
    6        5.489305   0.000000
    7        7.791043   0.000000
    8        8.287465   0.000000
 
  0.3888889E+00  0.2222222E+00  0.0000000E+00  0.4115226E-02
    1       -7.707949   1.000000
    2       -1.716611   1.000000
    3        0.631045   1.000000
    4        1.010191   1.000000
    5        4.765529   0.000000
    6        5.862028   0.000000
    7        7.658160   0.000000
    8        8.320979   0.000000
 
  0.4444444E+00  0.2222222E+00  0.0000000E+00  0.4115226E-02
    1       -7.570223   1.000000
    2       -2.032819   1.000000
    3        0.372517   1.000000
    4        0.992954   1.000000
    5        4.730547   0.000000
    6        6.346453   0.000000
    7        7.631377   0.000000
    8        8.251960   0.000000
 
  0.5000000E+00  0.2222222E+00  0.0000000E+00  0.4115226E-02
    1       -7.465901   1.000000
    2       -2.252482   1.000000
    3        0.153021   1.000000
    4        1.019056   1.000000
    5        4.723067   0.000000
    6        6.731645   0.000000
    7        7.864080   0.000000
    8        8.130790   0.000000
 
 -0.4444444E+00  0.2222222E+00  0.0000000E+00  0.4115226E-02
    1       -7.416151   1.000000
    2       -2.348442   1.000000
    3       -0.007405   1.000000
    4        1.086833   1.000000
    5        4.755839   0.000000
    6        6.890750   0.000000
    7        7.991390   0.000000
    8        8.413720   0.000000
 
 -0.3888889E+00  0.2222222E+00  0.0000000E+00  0.4115226E-02
    1       -7.432440   1.000000
    2       -2.309619   1.000000
    3       -0.093790   1.000000
    4        1.192201   1.000000
    5        4.827602   0.000000
    6        6.959790   0.000000
    7        7.845143   0.000000
    8        8.861277   0.000000
 
 -0.3333333E+00  0.2222222E+00  0.0000000E+00  0.4115226E-02
    1       -7.510683   1.000000
    2       -2.148202   1.000000
    3       -0.091092   1.000000
    4        1.328168   1.000000
    5        4.925190   0.000000
    6        7.027984   0.000000
    7        7.681399   0.000000
    8        8.472819   0.000000
 
 -0.2777778E+00  0.2222222E+00  0.0000000E+00  0.4115226E-02
    1       -7.633529   1.000000
    2       -1.898742   1.000000
    3        0.018795   1.000000
    4        1.483932   1.000000
    5        5.017335   0.000000
    6        7.093082   0.000000
    7        7.473624   0.000000
    8        7.831393   0.000000
 
 -0.2222222E+00  0.2222222E+00  0.0000000E+00  0.2057613E-02
    1       -7.778493   1.000000
    2       -1.607550   1.000000
    3        0.254297   1.000000
    4        1.643773   1.000000
    5        5.036628   0.000000
    6        6.966436   0.000000
    7        7.209872   0.000000
    8        7.499220   0.000000
 
  0.2777778E+00  0.2777778E+00  0.0000000E+00  0.1028807E-02
    1       -7.893990   1.000000
    2       -1.192796   1.000000
    3        1.026667   1.000000
    4        1.026667   1.000000
    5        4.553967   0.000000
    6        5.240213   0.000000
    7        8.520470   0.000000
    8        8.520576   0.000000
 
  0.3333333E+00  0.2777778E+00  0.0000000E+00  0.4115226E-02
    1       -7.768817   1.000000
    2       -1.499341   1.000000
    3        0.852351   1.000000
    4        0.917246   1.000000
    5        4.501499   0.000000
    6        5.188567   0.000000
    7        8.510779   0.000000
    8        8.811050   0.000000
 
  0.3888889E+00  0.2777778E+00  0.0000000E+00  0.4115226E-02
    1       -7.633790   1.000000
    2       -1.801489   1.000000
    3        0.589557   1.000000
    4        0.848378   1.000000
    5        4.544919   0.000000
    6        5.327172   0.000000
    7        8.348557   0.000000
    8        8.936494   0.000000
 
  0.4444444E+00  0.2777778E+00  0.0000000E+00  0.4115226E-02
    1       -7.505475   1.000000
    2       -2.058730   1.000000
    3        0.287559   1.000000
    4        0.823681   1.000000
    5        4.561736   0.000000
    6        5.742076   0.000000
    7        8.206341   0.000000
    8        8.914589   0.000000
 
  0.5000000E+00  0.2777778E+00  0.0000000E+00  0.4115226E-02
    1       -7.403559   1.000000
    2       -2.241018   1.000000
    3        0.002499   1.000000
    4        0.844223   1.000000
    5        4.578570   0.000000
    6        6.337774   0.000000
    7        8.119335   0.000000
    8        8.800764   0.000000
 
 -0.4444444E+00  0.2777778E+00  0.0000000E+00  0.4115226E-02
    1       -7.347010   1.000000
    2       -2.327651   1.000000
    3       -0.224425   1.000000
    4        0.908787   1.000000
    5        4.630983   0.000000
    6        6.969568   0.000000
    7        8.151731   0.000000
    8        8.638068   0.000000
 
 -0.3888889E+00  0.2777778E+00  0.0000000E+00  0.4115226E-02
    1       -7.347663   1.000000
    2       -2.313143   1.000000
    3       -0.362474   1.000000
    4        1.013716   1.000000
    5        4.726230   0.000000
    6        7.401333   0.000000
    7        8.426542   0.000000
    8        8.439359   0.000000
 
 -0.3333333E+00  0.2777778E+00  0.0000000E+00  0.4115226E-02
    1       -7.404956   1.000000
    2       -2.213678   1.000000
    3       -0.383483   1.000000
    4        1.152417   1.000000
    5        4.853207   0.000000
    6        7.559867   0.000000
    7        8.187930   0.000000
    8        8.404500   0.000000
 
 -0.2777778E+00  0.2777778E+00  0.0000000E+00  0.2057613E-02
    1       -7.506477   1.000000
    2       -2.064050   1.000000
    3       -0.260702   1.000000
    4        1.314396   1.000000
    5        4.977415   0.000000
    6        7.546324   0.000000
    7        7.859317   0.000000
    8        7.868053   0.000000
 
  0.3333333E+00  0.3333333E+00  0.0000000E+00  0.1028807E-02
    1       -7.660747   1.000000
    2       -1.731509   1.000000
    3        0.797154   1.000000
    4        0.797155   1.000000
    5        4.289537   0.000000
    6        4.981414   0.000000
    7        9.251627   0.000000
    8        9.262012   0.000000
 
  0.3888889E+00  0.3333333E+00  0.0000000E+00  0.4115226E-02
    1       -7.543286   1.000000
    2       -1.971448   1.000000
    3        0.632167   1.000000
    4        0.717586   1.000000
    5        4.271746   0.000000
    6        4.914458   0.000000
    7        9.232296   0.000000
    8        9.521265   0.000000
 
  0.4444444E+00  0.3333333E+00  0.0000000E+00  0.4115226E-02
    1       -7.430917   1.000000
    2       -2.173975   1.000000
    3        0.358202   1.000000
    4        0.682812   1.000000
    5        4.339605   0.000000
    6        5.106899   0.000000
    7        9.080236   0.000000
    8        9.591021   0.000000
 
  0.5000000E+00  0.3333333E+00  0.0000000E+00  0.4115226E-02
    1       -7.340352   1.000000
    2       -2.310756   1.000000
    3        0.044082   1.000000
    4        0.694455   1.000000
    5        4.388397   0.000000
    6        5.595512   0.000000
    7        8.940821   0.000000
    8        9.507213   0.000000
 
 -0.4444444E+00  0.3333333E+00  0.0000000E+00  0.4115226E-02
    1       -7.287315   1.000000
    2       -2.368214   1.000000
    3       -0.239654   1.000000
    4        0.751841   1.000000
    5        4.454256   0.000000
    6        6.267380   0.000000
    7        8.835626   0.000000
    8        9.322105   0.000000
 
 -0.3888889E+00  0.3333333E+00  0.0000000E+00  0.4115226E-02
    1       -7.281674   1.000000
    2       -2.351405   1.000000
    3       -0.436605   1.000000
    4        0.851891   1.000000
    5        4.561191   0.000000
    6        7.011588   0.000000
    7        8.775346   0.000000
    8        9.048314   0.000000
 
 -0.3333333E+00  0.3333333E+00  0.0000000E+00  0.2057613E-02
    1       -7.323845   1.000000
    2       -2.287417   1.000000
    3       -0.497291   1.000000
    4        0.988667   1.000000
    5        4.704515   0.000000
    6        7.630654   0.000000
    7        8.616760   0.000000
    8        8.667175   0.000000
 
  0.3888889E+00  0.3888889E+00  0.0000000E+00  0.1028807E-02
    1       -7.446384   1.000000
    2       -2.162559   1.000000
    3        0.626518   1.000000
    4        0.626518   1.000000
    5        4.099313   0.000000
    6        4.692894   0.000000
    7        9.972738   0.000000
    8        9.976980   0.000000
 
  0.4444444E+00  0.3888889E+00  0.0000000E+00  0.4115226E-02
    1       -7.355724   1.000000
    2       -2.322772   1.000000
    3        0.480604   1.000000
    4        0.580207   1.000000
    5        4.116736   0.000000
    6        4.672519   0.000000
    7        9.986908   0.000000
    8       10.194001   0.000000
 
  0.5000000E+00  0.3888889E+00  0.0000000E+00  0.4115226E-02
    1       -7.285042   1.000000
    2       -2.421118   1.000000
    3        0.215320   1.000000
    4        0.580896   1.000000
    5        4.207126   0.000000
    6        4.947882   0.000000
    7        9.843664   0.000000
    8       10.175833   0.000000
 
 -0.4444444E+00  0.3888889E+00  0.0000000E+00  0.4115226E-02
    1       -7.246148   1.000000
    2       -2.446612   1.000000
    3       -0.081823   1.000000
    4        0.628489   1.000000
    5        4.293226   0.000000
    6        5.509349   0.000000
    7        9.681133   0.000000
    8        9.965225   0.000000
 
 -0.3888889E+00  0.3888889E+00  0.0000000E+00  0.2057613E-02
    1       -7.245363   1.000000
    2       -2.411058   1.000000
    3       -0.324100   1.000000
    4        0.720549   1.000000
    5        4.408658   0.000000
    6        6.236410   0.000000
    7        9.409929   0.000000
    8        9.582443   0.000000
 
  0.4444444E+00  0.4444444E+00  0.0000000E+00  0.1028807E-02
    1       -7.290821   1.000000
    2       -2.447667   1.000000
    3        0.521740   1.000000
    4        0.521741   1.000000
    5        3.987862   0.000000
    6        4.487518   0.000000
    7       10.593248   0.000000
    8       10.593517   0.000000
 
  0.5000000E+00  0.4444444E+00  0.0000000E+00  0.4115226E-02
    1       -7.246874   1.000000
    2       -2.513379   1.000000
    3        0.403486   1.000000
    4        0.510341   1.000000
    5        4.039627   0.000000
    6        4.537726   0.000000
    7       10.598292   0.000000
    8       10.682010   0.000000
 
 -0.4444444E+00  0.4444444E+00  0.0000000E+00  0.2057613E-02
    1       -7.231349   1.000000
    2       -2.508515   1.000000
    3        0.167053   1.000000
    4        0.546517   1.000000
    5        4.161373   0.000000
    6        4.891868   0.000000
    7       10.324654   0.000000
    8       10.453771   0.000000
 
  0.5000000E+00  0.5000000E+00  0.0000000E+00  0.5144033E-03
    1       -7.233199   1.000000
    2       -2.548396   1.000000
    3        0.486443   1.000000
    4        0.486444   1.000000
    5        3.951853   0.000000
    6        4.413994   0.000000
    7       10.874225   0.000000
    8       10.874316   0.000000
 