 running on   48 total cores
 distrk:  each k-point on   12 cores,    4 groups
 distr:  one band on   12 cores,    1 groups
 using from now: INCAR     
 vasp.5.4.4.18Apr17-6-g9f103f2a35 (build Nov 04 2020 14:40:39) complex          
  
 POSCAR found type information on POSCAR  Al As
 POSCAR found :  2 types and       2 ions
 scaLAPACK will be used

 ----------------------------------------------------------------------------- 
|                                                                             |
|           W    W    AA    RRRRR   N    N  II  N    N   GGGG   !!!           |
|           W    W   A  A   R    R  NN   N  II  NN   N  G    G  !!!           |
|           W    W  A    A  R    R  N N  N  II  N N  N  G       !!!           |
|           W WW W  AAAAAA  RRRRR   N  N N  II  N  N N  G  GGG   !            |
|           WW  WW  A    A  R   R   N   NN  II  N   NN  G    G                |
|           W    W  A    A  R    R  N    N  II  N    N   GGGG   !!!           |
|                                                                             |
|      You have enabled k-point parallelism (KPAR>1).                         |
|      This developmental code was originally  written by Paul Kent at ORNL,  |
|      and carefully double checked in Vienna.                                |
|      GW as well as linear response parallelism added by Martijn Marsman     |
|      and Georg Kresse.                                                      |
|      Carefully verify results versus KPAR=1.                                |
|      Report problems to Paul Kent and Vienna.                               |
|                                                                             |
 ----------------------------------------------------------------------------- 

 LDA part: xc-table for Pade appr. of Perdew
 POSCAR found type information on POSCAR  Al As
 POSCAR found :  2 types and       2 ions
 generate k-points for:   18   18   18
 POSCAR, INCAR and KPOINTS ok, starting setup
 FFT: planning ...
 WAVECAR not read
 entering main loop
       N       E                     dE             d eps       ncg     rms          rms(c)
DAV:   1     0.139291051148E+02    0.13929E+02   -0.29280E+03  3128   0.729E+02
DAV:   2    -0.858399706892E+01   -0.22513E+02   -0.22224E+02  4328   0.851E+01
DAV:   3    -0.927793203462E+01   -0.69393E+00   -0.69393E+00  3856   0.197E+01
DAV:   4    -0.928175181842E+01   -0.38198E-02   -0.38198E-02  4880   0.165E+00
DAV:   5    -0.928176432167E+01   -0.12503E-04   -0.12503E-04  4016   0.803E-02    0.242E+00
RMM:   6    -0.910875449119E+01    0.17301E+00   -0.22180E-01  3137   0.233E+00    0.130E+00
RMM:   7    -0.909094990973E+01    0.17805E-01   -0.81620E-02  3310   0.152E+00    0.500E-01
RMM:   8    -0.909164554677E+01   -0.69564E-03   -0.58443E-03  3308   0.625E-01    0.458E-02
RMM:   9    -0.909195614851E+01   -0.31060E-03   -0.56845E-04  3587   0.156E-01    0.282E-02
RMM:  10    -0.909200666350E+01   -0.50515E-04   -0.12909E-04  3419   0.799E-02    0.551E-03
RMM:  11    -0.909201126766E+01   -0.46042E-05   -0.20963E-05  3673   0.257E-02    0.586E-03
RMM:  12    -0.909200915356E+01    0.21141E-05   -0.55861E-06  3598   0.122E-02    0.596E-04
RMM:  13    -0.909200925783E+01   -0.10427E-06   -0.89887E-08  2280   0.246E-03
   1 F= -.90920093E+01 E0= -.90920093E+01  d E =0.000000E+00
