   3   3   0   0
  0.2872625E+02  0.4957983E-09  0.4957983E-09  0.4957983E-09  0.5000000E-15
  1.000000000000000E-004
  CAR
 unknown system
     10.68064391    -38.51934756  301      7.97410769      1.00000000
    -38.519  0.0000E+00  0.0000E+00
    -38.355  0.0000E+00  0.0000E+00
    -38.191  0.0000E+00  0.0000E+00
    -38.027  0.0000E+00  0.0000E+00
    -37.863  0.0000E+00  0.0000E+00
    -37.699  0.0000E+00  0.0000E+00
    -37.535  0.0000E+00  0.0000E+00
    -37.371  0.0000E+00  0.0000E+00
    -37.207  0.0000E+00  0.0000E+00
    -37.043  0.0000E+00  0.0000E+00
    -36.879  0.0000E+00  0.0000E+00
    -36.715  0.0000E+00  0.0000E+00
    -36.551  0.0000E+00  0.0000E+00
    -36.387  0.0000E+00  0.0000E+00
    -36.223  0.1220E+02  0.2000E+01
    -36.059  0.0000E+00  0.2000E+01
    -35.895  0.0000E+00  0.2000E+01
    -35.731  0.0000E+00  0.2000E+01
    -35.567  0.0000E+00  0.2000E+01
    -35.403  0.0000E+00  0.2000E+01
    -35.239  0.0000E+00  0.2000E+01
    -35.075  0.0000E+00  0.2000E+01
    -34.911  0.0000E+00  0.2000E+01
    -34.747  0.0000E+00  0.2000E+01
    -34.583  0.0000E+00  0.2000E+01
    -34.419  0.0000E+00  0.2000E+01
    -34.255  0.0000E+00  0.2000E+01
    -34.091  0.0000E+00  0.2000E+01
    -33.927  0.0000E+00  0.2000E+01
    -33.763  0.0000E+00  0.2000E+01
    -33.599  0.0000E+00  0.2000E+01
    -33.435  0.0000E+00  0.2000E+01
    -33.271  0.0000E+00  0.2000E+01
    -33.107  0.0000E+00  0.2000E+01
    -32.943  0.0000E+00  0.2000E+01
    -32.779  0.0000E+00  0.2000E+01
    -32.615  0.0000E+00  0.2000E+01
    -32.451  0.0000E+00  0.2000E+01
    -32.287  0.0000E+00  0.2000E+01
    -32.123  0.0000E+00  0.2000E+01
    -31.959  0.0000E+00  0.2000E+01
    -31.795  0.0000E+00  0.2000E+01
    -31.631  0.0000E+00  0.2000E+01
    -31.467  0.0000E+00  0.2000E+01
    -31.303  0.0000E+00  0.2000E+01
    -31.139  0.0000E+00  0.2000E+01
    -30.975  0.0000E+00  0.2000E+01
    -30.811  0.0000E+00  0.2000E+01
    -30.647  0.0000E+00  0.2000E+01
    -30.483  0.0000E+00  0.2000E+01
    -30.319  0.0000E+00  0.2000E+01
    -30.155  0.0000E+00  0.2000E+01
    -29.991  0.0000E+00  0.2000E+01
    -29.827  0.0000E+00  0.2000E+01
    -29.663  0.0000E+00  0.2000E+01
    -29.499  0.0000E+00  0.2000E+01
    -29.335  0.0000E+00  0.2000E+01
    -29.171  0.0000E+00  0.2000E+01
    -29.007  0.0000E+00  0.2000E+01
    -28.843  0.0000E+00  0.2000E+01
    -28.679  0.0000E+00  0.2000E+01
    -28.515  0.0000E+00  0.2000E+01
    -28.351  0.0000E+00  0.2000E+01
    -28.187  0.0000E+00  0.2000E+01
    -28.023  0.0000E+00  0.2000E+01
    -27.859  0.0000E+00  0.2000E+01
    -27.695  0.0000E+00  0.2000E+01
    -27.531  0.0000E+00  0.2000E+01
    -27.367  0.0000E+00  0.2000E+01
    -27.203  0.0000E+00  0.2000E+01
    -27.039  0.0000E+00  0.2000E+01
    -26.875  0.0000E+00  0.2000E+01
    -26.711  0.0000E+00  0.2000E+01
    -26.547  0.0000E+00  0.2000E+01
    -26.383  0.0000E+00  0.2000E+01
    -26.219  0.0000E+00  0.2000E+01
    -26.055  0.0000E+00  0.2000E+01
    -25.891  0.0000E+00  0.2000E+01
    -25.727  0.0000E+00  0.2000E+01
    -25.563  0.0000E+00  0.2000E+01
    -25.399  0.0000E+00  0.2000E+01
    -25.235  0.0000E+00  0.2000E+01
    -25.071  0.0000E+00  0.2000E+01
    -24.907  0.0000E+00  0.2000E+01
    -24.743  0.0000E+00  0.2000E+01
    -24.579  0.0000E+00  0.2000E+01
    -24.415  0.0000E+00  0.2000E+01
    -24.251  0.0000E+00  0.2000E+01
    -24.087  0.0000E+00  0.2000E+01
    -23.923  0.0000E+00  0.2000E+01
    -23.759  0.0000E+00  0.2000E+01
    -23.595  0.0000E+00  0.2000E+01
    -23.431  0.0000E+00  0.2000E+01
    -23.267  0.0000E+00  0.2000E+01
    -23.103  0.0000E+00  0.2000E+01
    -22.939  0.0000E+00  0.2000E+01
    -22.775  0.0000E+00  0.2000E+01
    -22.611  0.0000E+00  0.2000E+01
    -22.447  0.0000E+00  0.2000E+01
    -22.283  0.0000E+00  0.2000E+01
    -22.119  0.0000E+00  0.2000E+01
    -21.955  0.0000E+00  0.2000E+01
    -21.791  0.0000E+00  0.2000E+01
    -21.627  0.0000E+00  0.2000E+01
    -21.463  0.0000E+00  0.2000E+01
    -21.299  0.0000E+00  0.2000E+01
    -21.135  0.0000E+00  0.2000E+01
    -20.971  0.0000E+00  0.2000E+01
    -20.807  0.0000E+00  0.2000E+01
    -20.643  0.0000E+00  0.2000E+01
    -20.479  0.0000E+00  0.2000E+01
    -20.315  0.0000E+00  0.2000E+01
    -20.151  0.0000E+00  0.2000E+01
    -19.987  0.0000E+00  0.2000E+01
    -19.823  0.0000E+00  0.2000E+01
    -19.659  0.0000E+00  0.2000E+01
    -19.495  0.0000E+00  0.2000E+01
    -19.331  0.0000E+00  0.2000E+01
    -19.167  0.0000E+00  0.2000E+01
    -19.003  0.0000E+00  0.2000E+01
    -18.839  0.0000E+00  0.2000E+01
    -18.675  0.0000E+00  0.2000E+01
    -18.511  0.0000E+00  0.2000E+01
    -18.347  0.0000E+00  0.2000E+01
    -18.183  0.0000E+00  0.2000E+01
    -18.019  0.0000E+00  0.2000E+01
    -17.855  0.0000E+00  0.2000E+01
    -17.691  0.0000E+00  0.2000E+01
    -17.527  0.0000E+00  0.2000E+01
    -17.363  0.0000E+00  0.2000E+01
    -17.199  0.0000E+00  0.2000E+01
    -17.035  0.0000E+00  0.2000E+01
    -16.871  0.0000E+00  0.2000E+01
    -16.707  0.0000E+00  0.2000E+01
    -16.543  0.0000E+00  0.2000E+01
    -16.379  0.0000E+00  0.2000E+01
    -16.215  0.0000E+00  0.2000E+01
    -16.051  0.0000E+00  0.2000E+01
    -15.887  0.0000E+00  0.2000E+01
    -15.723  0.0000E+00  0.2000E+01
    -15.559  0.0000E+00  0.2000E+01
    -15.395  0.0000E+00  0.2000E+01
    -15.231  0.0000E+00  0.2000E+01
    -15.067  0.0000E+00  0.2000E+01
    -14.903  0.0000E+00  0.2000E+01
    -14.739  0.8470E-02  0.2001E+01
    -14.575  0.0000E+00  0.1200E+02
    -14.411  0.0000E+00  0.1200E+02
    -14.247  0.0000E+00  0.1200E+02
    -14.083  0.0000E+00  0.1200E+02
    -13.919  0.0000E+00  0.1200E+02
    -13.755  0.0000E+00  0.1200E+02
    -13.591  0.0000E+00  0.1200E+02
    -13.427  0.0000E+00  0.1200E+02
    -13.263  0.0000E+00  0.1200E+02
    -13.099  0.0000E+00  0.1200E+02
    -12.935  0.0000E+00  0.1200E+02
    -12.771  0.0000E+00  0.1200E+02
    -12.607  0.0000E+00  0.1200E+02
    -12.443  0.0000E+00  0.1200E+02
    -12.279  0.0000E+00  0.1200E+02
    -12.115  0.0000E+00  0.1200E+02
    -11.951  0.0000E+00  0.1200E+02
    -11.787  0.0000E+00  0.1200E+02
    -11.623  0.1536E-14  0.1200E+02
    -11.459  0.2344E+02  0.1675E+02
    -11.295  0.0000E+00  0.1800E+02
    -11.131  0.0000E+00  0.1800E+02
    -10.967  0.0000E+00  0.1800E+02
    -10.803  0.0000E+00  0.1800E+02
    -10.639  0.0000E+00  0.1800E+02
    -10.475  0.0000E+00  0.1800E+02
    -10.311  0.0000E+00  0.1800E+02
    -10.147  0.0000E+00  0.1800E+02
     -9.983  0.0000E+00  0.1800E+02
     -9.819  0.0000E+00  0.1800E+02
     -9.655  0.0000E+00  0.1800E+02
     -9.491  0.0000E+00  0.1800E+02
     -9.327  0.0000E+00  0.1800E+02
     -9.163  0.0000E+00  0.1800E+02
     -8.999  0.0000E+00  0.1800E+02
     -8.835  0.0000E+00  0.1800E+02
     -8.671  0.0000E+00  0.1800E+02
     -8.507  0.0000E+00  0.1800E+02
     -8.343  0.0000E+00  0.1800E+02
     -8.179  0.0000E+00  0.1800E+02
     -8.015  0.0000E+00  0.1800E+02
     -7.851  0.0000E+00  0.1800E+02
     -7.687  0.0000E+00  0.1800E+02
     -7.523  0.0000E+00  0.1800E+02
     -7.359  0.0000E+00  0.1800E+02
     -7.195  0.0000E+00  0.1800E+02
     -7.031  0.0000E+00  0.1800E+02
     -6.867  0.0000E+00  0.1800E+02
     -6.703  0.0000E+00  0.1800E+02
     -6.539  0.0000E+00  0.1800E+02
     -6.375  0.0000E+00  0.1800E+02
     -6.211  0.0000E+00  0.1800E+02
     -6.047  0.0000E+00  0.1800E+02
     -5.883  0.0000E+00  0.1800E+02
     -5.719  0.0000E+00  0.1800E+02
     -5.555  0.0000E+00  0.1800E+02
     -5.391  0.0000E+00  0.1800E+02
     -5.227  0.0000E+00  0.1800E+02
     -5.063  0.0000E+00  0.1800E+02
     -4.899  0.0000E+00  0.1800E+02
     -4.735  0.0000E+00  0.1800E+02
     -4.571  0.0000E+00  0.1800E+02
     -4.407  0.0000E+00  0.1800E+02
     -4.243  0.0000E+00  0.1800E+02
     -4.079  0.0000E+00  0.1800E+02
     -3.915  0.0000E+00  0.1800E+02
     -3.751  0.0000E+00  0.1800E+02
     -3.587  0.7952E-01  0.1801E+02
     -3.423  0.2809E+00  0.1810E+02
     -3.259  0.5519E+00  0.1824E+02
     -3.095  0.1368E+01  0.1855E+02
     -2.931  0.4644E+01  0.1988E+02
     -2.767  0.0000E+00  0.2000E+02
     -2.603  0.0000E+00  0.2000E+02
     -2.439  0.0000E+00  0.2000E+02
     -2.275  0.0000E+00  0.2000E+02
     -2.111  0.0000E+00  0.2000E+02
     -1.947  0.0000E+00  0.2000E+02
     -1.783  0.0000E+00  0.2000E+02
     -1.619  0.0000E+00  0.2000E+02
     -1.455  0.0000E+00  0.2000E+02
     -1.291  0.0000E+00  0.2000E+02
     -1.127  0.0000E+00  0.2000E+02
     -0.963  0.0000E+00  0.2000E+02
     -0.799  0.0000E+00  0.2000E+02
     -0.635  0.0000E+00  0.2000E+02
     -0.471  0.0000E+00  0.2000E+02
     -0.307  0.0000E+00  0.2000E+02
     -0.143  0.0000E+00  0.2000E+02
      0.021  0.0000E+00  0.2000E+02
      0.185  0.0000E+00  0.2000E+02
      0.349  0.0000E+00  0.2000E+02
      0.513  0.0000E+00  0.2000E+02
      0.677  0.0000E+00  0.2000E+02
      0.841  0.0000E+00  0.2000E+02
      1.005  0.0000E+00  0.2000E+02
      1.169  0.0000E+00  0.2000E+02
      1.333  0.0000E+00  0.2000E+02
      1.497  0.0000E+00  0.2000E+02
      1.661  0.0000E+00  0.2000E+02
      1.825  0.0000E+00  0.2000E+02
      1.989  0.0000E+00  0.2000E+02
      2.153  0.0000E+00  0.2000E+02
      2.317  0.0000E+00  0.2000E+02
      2.481  0.9545E-02  0.2000E+02
      2.645  0.4439E+00  0.2012E+02
      2.809  0.2772E+01  0.2073E+02
      2.973  0.5924E+00  0.2110E+02
      3.137  0.4647E+00  0.2149E+02
      3.301  0.7566E+00  0.2178E+02
      3.465  0.4510E-04  0.2195E+02
      3.629  0.1614E+01  0.2223E+02
      3.793  0.3104E+01  0.2362E+02
      3.957  0.3121E+01  0.2466E+02
      4.121  0.3724E+01  0.2594E+02
      4.285  0.7179E-01  0.2602E+02
      4.449  0.2844E+01  0.2656E+02
      4.613  0.5884E+01  0.2909E+02
      4.777  0.2949E+01  0.3061E+02
      4.941  0.1544E+01  0.3133E+02
      5.105  0.5793E+00  0.3165E+02
      5.269  0.7107E+00  0.3189E+02
      5.433  0.1591E+00  0.3207E+02
      5.597  0.1135E+01  0.3244E+02
      5.761  0.3798E+00  0.3264E+02
      5.925  0.9948E+00  0.3298E+02
      6.089  0.6321E+00  0.3319E+02
      6.253  0.9429E+00  0.3349E+02
      6.417  0.2737E+00  0.3365E+02
      6.581  0.5114E+01  0.3523E+02
      6.745  0.1130E+01  0.3580E+02
      6.909  0.1395E+00  0.3595E+02
      7.073  0.1698E+00  0.3600E+02
      7.237  0.8514E-01  0.3602E+02
      7.401  0.5283E+00  0.3613E+02
      7.565  0.1907E+01  0.3659E+02
      7.729  0.2532E+01  0.3743E+02
      7.893  0.7151E+00  0.3799E+02
      8.057  0.1495E+02  0.4153E+02
      8.221  0.1671E+02  0.4571E+02
      8.385  0.2484E+01  0.4799E+02
      8.549  0.0000E+00  0.4800E+02
      8.713  0.0000E+00  0.4800E+02
      8.877  0.0000E+00  0.4800E+02
      9.041  0.0000E+00  0.4800E+02
      9.205  0.0000E+00  0.4800E+02
      9.369  0.0000E+00  0.4800E+02
      9.533  0.0000E+00  0.4800E+02
      9.697  0.0000E+00  0.4800E+02
      9.861  0.0000E+00  0.4800E+02
     10.025  0.0000E+00  0.4800E+02
     10.189  0.0000E+00  0.4800E+02
     10.353  0.0000E+00  0.4800E+02
     10.517  0.0000E+00  0.4800E+02
     10.681  0.0000E+00  0.4800E+02
