    3    3    1    1
  0.2872625E+02  0.4957983E-09  0.4957983E-09  0.4957983E-09  0.5000000E-15
  1.000000000000000E-004
  CAR
 unknown system
     39     84     24

  0.0000000E+00  0.0000000E+00  0.0000000E+00  0.4551661E-03
    1      -36.282984   1.000000
    2      -14.707743   1.000000
    3      -14.707743   1.000000
    4      -14.687485   1.000000
    5      -14.687485   1.000000
    6      -14.687485   1.000000
    7      -11.465490   1.000000
    8      -11.465490   1.000000
    9      -11.465490   1.000000
   10       -3.685390   1.000000
   11        4.053816   1.000000
   12        4.053816   1.000000
   13        4.053816   1.000000
   14        4.407774   1.000000
   15        4.407774   1.000000
   16        5.884105   1.000000
   17        7.064954   1.000000
   18        7.064954   1.000000
   19        7.064954   1.000000
   20        7.942694   0.999996
   21        8.086649   0.000000
   22        8.092198   0.000000
   23        8.129926   0.000000
   24        8.129929   0.000000

  0.7692308E-01  0.2252922E-17 -0.3245336E-17  0.3641329E-02
    1      -36.282890   1.000000
    2      -14.708397   1.000000
    3      -14.708397   1.000000
    4      -14.687586   1.000000
    5      -14.687382   1.000000
    6      -14.687382   1.000000
    7      -11.472047   1.000000
    8      -11.464243   1.000000
    9      -11.464243   1.000000
   10       -3.642075   1.000000
   11        3.917078   1.000000
   12        3.994582   1.000000
   13        3.994582   1.000000
   14        4.463613   1.000000
   15        4.463613   1.000000
   16        5.787526   1.000000
   17        7.017207   1.000000
   18        7.017207   1.000000
   19        7.134423   1.000000
   20        7.896344   1.000000
   21        8.015642   0.000000
   22        8.015642   0.000000
   23        8.130544   0.000000
   24        8.130867   0.000000

  0.1538462E+00 -0.1878155E-16  0.4633454E-17  0.3641329E-02
    1      -36.282635   1.000000
    2      -14.710219   1.000000
    3      -14.710219   1.000000
    4      -14.687890   1.000000
    5      -14.687089   1.000000
    6      -14.687089   1.000000
    7      -11.489898   1.000000
    8      -11.460806   1.000000
    9      -11.460806   1.000000
   10       -3.520708   1.000000
   11        3.591782   1.000000
   12        3.890313   1.000000
   13        3.890313   1.000000
   14        4.551351   1.000000
   15        4.551351   1.000000
   16        5.519949   1.000000
   17        6.905860   1.000000
   18        6.905860   1.000000
   19        7.204545   1.000000
   20        7.970803   0.679865
   21        7.970803   0.679864
   22        8.017405   0.000000
   23        8.132545   0.000000
   24        8.183247   0.000000

  0.2307692E+00 -0.2650840E-17 -0.3264007E-18  0.3641329E-02
    1      -36.282277   1.000000
    2      -14.712804   1.000000
    3      -14.712804   1.000000
    4      -14.688367   1.000000
    5      -14.686643   1.000000
    6      -14.686643   1.000000
    7      -11.514270   1.000000
    8      -11.455973   1.000000
    9      -11.455973   1.000000
   10       -3.346037   1.000000
   11        3.214168   1.000000
   12        3.804713   1.000000
   13        3.804713   1.000000
   14        4.594813   1.000000
   15        4.594813   1.000000
   16        5.176223   1.000000
   17        6.792278   1.000000
   18        6.792278   1.000000
   19        7.226835   1.000000
   20        7.957689   0.989881
   21        7.957689   0.989881
   22        8.135257   0.000000
   23        8.168091   0.000000
   24        8.365604   0.000000

  0.3076923E+00 -0.3756310E-16  0.9266908E-17  0.3641329E-02
    1      -36.281897   1.000000
    2      -14.715562   1.000000
    3      -14.715562   1.000000
    4      -14.688942   1.000000
    5      -14.686146   1.000000
    6      -14.686146   1.000000
    7      -11.539170   1.000000
    8      -11.450870   1.000000
    9      -11.450870   1.000000
   10       -3.155549   1.000000
   11        2.873248   1.000000
   12        3.755952   1.000000
   13        3.755952   1.000000
   14        4.574466   1.000000
   15        4.574466   1.000000
   16        4.863334   1.000000
   17        6.717125   1.000000
   18        6.717125   1.000000
   19        7.269858   1.000000
   20        7.965520   0.887708
   21        7.965520   0.887708
   22        8.138260   0.000000
   23        8.210992   0.000000
   24        8.318754   0.000000

  0.3846154E+00 -0.7554602E-17  0.2592534E-17  0.3641329E-02
    1      -36.281584   1.000000
    2      -14.717850   1.000000
    3      -14.717850   1.000000
    4      -14.689468   1.000000
    5      -14.685719   1.000000
    6      -14.685719   1.000000
    7      -11.559077   1.000000
    8      -11.446655   1.000000
    9      -11.446655   1.000000
   10       -2.993240   1.000000
   11        2.620351   1.000000
   12        3.741700   1.000000
   13        3.741700   1.000000
   14        4.513917   1.000000
   15        4.513917   1.000000
   16        4.640144   1.000000
   17        6.683858   1.000000
   18        6.683858   1.000000
   19        7.332916   1.000000
   20        7.986970   0.034454
   21        7.986970   0.034453
   22        8.247742   0.000000
   23        8.250391   0.000000
   24        8.250584   0.000000

  0.4615385E+00 -0.5977369E-16  0.5166131E-17  0.3641329E-02
    1      -36.281405   1.000000
    2      -14.719143   1.000000
    3      -14.719143   1.000000
    4      -14.689793   1.000000
    5      -14.685473   1.000000
    6      -14.685473   1.000000
    7      -11.570027   1.000000
    8      -11.444278   1.000000
    9      -11.444278   1.000000
   10       -2.899666   1.000000
   11        2.486227   1.000000
   12        3.744817   1.000000
   13        3.744817   1.000000
   14        4.462512   1.000000
   15        4.462512   1.000000
   16        4.526809   1.000000
   17        6.674694   1.000000
   18        6.674694   1.000000
   19        7.381861   1.000000
   20        8.009899   0.000000
   21        8.009899   0.000000
   22        8.142075   0.000000
   23        8.199864   0.000000
   24        8.199865   0.000000

  0.7692308E-01  0.7692308E-01 -0.2162721E-17  0.2730997E-02
    1      -36.282860   1.000000
    2      -14.709537   1.000000
    3      -14.707574   1.000000
    4      -14.687699   1.000000
    5      -14.687309   1.000000
    6      -14.687308   1.000000
    7      -11.469053   1.000000
    8      -11.466490   1.000000
    9      -11.466490   1.000000
   10       -3.628601   1.000000
   11        3.751369   1.000000
   12        4.068125   1.000000
   13        4.068125   1.000000
   14        4.420627   1.000000
   15        4.484615   1.000000
   16        5.783311   1.000000
   17        6.941935   1.000000
   18        6.941935   1.000000
   19        7.274183   1.000000
   20        7.856170   1.000000
   21        8.009180   0.000000
   22        8.009180   0.000000
   23        8.137878   0.000000
   24        8.144024   0.000000

  0.1538462E+00  0.7692308E-01 -0.1044931E-17  0.1092399E-01
    1      -36.282660   1.000000
    2      -14.711567   1.000000
    3      -14.708084   1.000000
    4      -14.687952   1.000000
    5      -14.687087   1.000000
    6      -14.687033   1.000000
    7      -11.482665   1.000000
    8      -11.466147   1.000000
    9      -11.462272   1.000000
   10       -3.536157   1.000000
   11        3.488678   1.000000
   12        3.987671   1.000000
   13        4.030252   1.000000
   14        4.473913   1.000000
   15        4.547804   1.000000
   16        5.618188   1.000000
   17        6.805960   1.000000
   18        6.820662   1.000000
   19        7.397811   1.000000
   20        7.910314   1.000000
   21        7.979127   0.238905
   22        7.989858   0.012957
   23        8.142116   0.000000
   24        8.177468   0.000000

  0.2307692E+00  0.7692308E-01 -0.9514642E-17  0.1092399E-01
    1      -36.282338   1.000000
    2      -14.714024   1.000000
    3      -14.709842   1.000000
    4      -14.688312   1.000000
    5      -14.686774   1.000000
    6      -14.686593   1.000000
    7      -11.505008   1.000000
    8      -11.463310   1.000000
    9      -11.456751   1.000000
   10       -3.383996   1.000000
   11        3.198485   1.000000
   12        3.838733   1.000000
   13        3.955635   1.000000
   14        4.528712   1.000000
   15        4.615871   1.000000
   16        5.320752   1.000000
   17        6.657001   1.000000
   18        6.712770   1.000000
   19        7.405612   1.000000
   20        7.953892   0.997875
   21        7.962772   0.945552
   22        8.141953   0.000000
   23        8.143907   0.000000
   24        8.270271   0.000000

  0.3076923E+00  0.7692308E-01 -0.3350371E-17  0.1092399E-01
    1      -36.281966   1.000000
    2      -14.716363   1.000000
    3      -14.712435   1.000000
    4      -14.688768   1.000000
    5      -14.686393   1.000000
    6      -14.686088   1.000000
    7      -11.529693   1.000000
    8      -11.458640   1.000000
    9      -11.451922   1.000000
   10       -3.204956   1.000000
   11        2.919100   1.000000
   12        3.732115   1.000000
   13        3.892904   1.000000
   14        4.528253   1.000000
   15        4.630817   1.000000
   16        4.995501   1.000000
   17        6.561392   1.000000
   18        6.651649   1.000000
   19        7.399165   1.000000
   20        7.963071   0.940714
   21        7.965774   0.880723
   22        8.145250   0.000000
   23        8.189545   0.000000
   24        8.304555   0.000000

  0.3846154E+00  0.7692308E-01  0.3853043E-17  0.1092399E-01
    1      -36.281630   1.000000
    2      -14.718050   1.000000
    3      -14.715251   1.000000
    4      -14.689233   1.000000
    5      -14.686003   1.000000
    6      -14.685643   1.000000
    7      -11.551096   1.000000
    8      -11.453211   1.000000
    9      -11.448852   1.000000
   10       -3.039673   1.000000
   11        2.694783   1.000000
   12        3.690275   1.000000
   13        3.845103   1.000000
   14        4.489182   1.000000
   15        4.587308   1.000000
   16        4.733426   1.000000
   17        6.518348   1.000000
   18        6.633437   1.000000
   19        7.420517   1.000000
   20        7.978557   0.264578
   21        7.988661   0.019786
   22        8.145367   0.000000
   23        8.209667   0.000000
   24        8.267312   0.000000

  0.4615385E+00  0.7692308E-01 -0.4314359E-18  0.1092399E-01
    1      -36.281410   1.000000
    2      -14.718707   1.000000
    3      -14.717627   1.000000
    4      -14.689569   1.000000
    5      -14.685709   1.000000
    6      -14.685387   1.000000
    7      -11.564836   1.000000
    8      -11.448261   1.000000
    9      -11.448194   1.000000
   10       -2.927677   1.000000
   11        2.556510   1.000000
   12        3.704884   1.000000
   13        3.795957   1.000000
   14        4.464003   1.000000
   15        4.516610   1.000000
   16        4.575896   1.000000
   17        6.503584   1.000000
   18        6.635806   1.000000
   19        7.455449   1.000000
   20        8.004897   0.000007
   21        8.010936   0.000000
   22        8.142378   0.000000
   23        8.192917   0.000000
   24        8.251972   0.000000

 -0.4615385E+00  0.7692308E-01  0.6381491E-17  0.1092399E-01
    1      -36.281349   1.000000
    2      -14.719024   1.000000
    3      -14.718173   1.000000
    4      -14.689648   1.000000
    5      -14.685585   1.000000
    6      -14.685375   1.000000
    7      -11.568361   1.000000
    8      -11.450044   1.000000
    9      -11.444906   1.000000
   10       -2.896956   1.000000
   11        2.520428   1.000000
   12        3.735689   1.000000
   13        3.755250   1.000000
   14        4.464171   1.000000
   15        4.490689   1.000000
   16        4.533770   1.000000
   17        6.491241   1.000000
   18        6.644379   1.000000
   19        7.469620   1.000000
   20        8.010192   0.000000
   21        8.025677   0.000000
   22        8.138753   0.000000
   23        8.197374   0.000000
   24        8.225676   0.000000

 -0.3846154E+00  0.7692308E-01 -0.1332026E-17  0.1092399E-01
    1      -36.281467   1.000000
    2      -14.719133   1.000000
    3      -14.716564   1.000000
    4      -14.689440   1.000000
    5      -14.685677   1.000000
    6      -14.685610   1.000000
    7      -11.561089   1.000000
    8      -11.453949   1.000000
    9      -11.443908   1.000000
   10       -2.955439   1.000000
   11        2.591921   1.000000
   12        3.680351   1.000000
   13        3.817613   1.000000
   14        4.455104   1.000000
   15        4.560195   1.000000
   16        4.614112   1.000000
   17        6.467323   1.000000
   18        6.662682   1.000000
   19        7.448352   1.000000
   20        7.987657   0.027675
   21        8.014348   0.000000
   22        8.139756   0.000000
   23        8.218414   0.000000
   24        8.230355   0.000000

 -0.3076923E+00  0.7692308E-01 -0.4577362E-17  0.1092399E-01
    1      -36.281735   1.000000
    2      -14.717938   1.000000
    3      -14.714234   1.000000
    4      -14.689022   1.000000
    5      -14.686024   1.000000
    6      -14.685963   1.000000
    7      -11.544381   1.000000
    8      -11.458972   1.000000
    9      -11.445503   1.000000
   10       -3.088361   1.000000
   11        2.767210   1.000000
   12        3.655399   1.000000
   13        3.881887   1.000000
   14        4.485865   1.000000
   15        4.632631   1.000000
   16        4.808927   1.000000
   17        6.440096   1.000000
   18        6.707358   1.000000
   19        7.413724   1.000000
   20        7.966505   0.858852
   21        7.987015   0.033970
   22        8.143261   0.000000
   23        8.215303   0.000000
   24        8.271029   0.000000

 -0.2307692E+00  0.7692308E-01  0.1203566E-16  0.1092399E-01
    1      -36.282093   1.000000
    2      -14.715721   1.000000
    3      -14.711722   1.000000
    4      -14.688526   1.000000
    5      -14.686507   1.000000
    6      -14.686374   1.000000
    7      -11.521554   1.000000
    8      -11.463891   1.000000
    9      -11.449337   1.000000
   10       -3.262845   1.000000
   11        3.031053   1.000000
   12        3.677335   1.000000
   13        3.955845   1.000000
   14        4.510497   1.000000
   15        4.666201   1.000000
   16        5.097442   1.000000
   17        6.446468   1.000000
   18        6.792583   1.000000
   19        7.394358   1.000000
   20        7.956991   0.992255
   21        7.966192   0.868528
   22        8.142192   0.000000
   23        8.182792   0.000000
   24        8.328255   0.000000

 -0.1538462E+00  0.7692308E-01 -0.1658426E-17  0.1092399E-01
    1      -36.282456   1.000000
    2      -14.712985   1.000000
    3      -14.709611   1.000000
    4      -14.688086   1.000000
    5      -14.686950   1.000000
    6      -14.686803   1.000000
    7      -11.497716   1.000000
    8      -11.467355   1.000000
    9      -11.454541   1.000000
   10       -3.437662   1.000000
   11        3.351702   1.000000
   12        3.750238   1.000000
   13        4.040001   1.000000
   14        4.487807   1.000000
   15        4.639173   1.000000
   16        5.417139   1.000000
   17        6.546737   1.000000
   18        6.906643   1.000000
   19        7.387068   1.000000
   20        7.960102   0.976186
   21        7.961440   0.963388
   22        8.111159   0.000000
   23        8.139298   0.000000
   24        8.226761   0.000000

 -0.7692308E-01  0.7692308E-01  0.4505845E-17  0.5461994E-02
    1      -36.282745   1.000000
    2      -14.710346   1.000000
    3      -14.708416   1.000000
    4      -14.687765   1.000000
    5      -14.687256   1.000000
    6      -14.687156   1.000000
    7      -11.479489   1.000000
    8      -11.467629   1.000000
    9      -11.459929   1.000000
   10       -3.573739   1.000000
   11        3.675795   1.000000
   12        3.865323   1.000000
   13        4.080344   1.000000
   14        4.448113   1.000000
   15        4.559901   1.000000
   16        5.664033   1.000000
   17        6.777061   1.000000
   18        7.000985   1.000000
   19        7.303118   1.000000
   20        7.913662   1.000000
   21        7.980573   0.180275
   22        7.993724   0.002767
   23        8.135132   0.000000
   24        8.162261   0.000000

  0.1538462E+00  0.1538462E+00 -0.4325443E-17  0.2730997E-02
    1      -36.282524   1.000000
    2      -14.713326   1.000000
    3      -14.707096   1.000000
    4      -14.688294   1.000000
    5      -14.686788   1.000000
    6      -14.686788   1.000000
    7      -11.479848   1.000000
    8      -11.469336   1.000000
    9      -11.469336   1.000000
   10       -3.480960   1.000000
   11        3.243500   1.000000
   12        4.101818   1.000000
   13        4.101818   1.000000
   14        4.456698   1.000000
   15        4.497208   1.000000
   16        5.612565   1.000000
   17        6.699869   1.000000
   18        6.699869   1.000000
   19        7.512807   1.000000
   20        7.891731   1.000000
   21        7.974614   0.471484
   22        7.974614   0.471484
   23        8.161418   0.000000
   24        8.194339   0.000000

  0.2307692E+00  0.1538462E+00 -0.8072249E-17  0.1092399E-01
    1      -36.282259   1.000000
    2      -14.715079   1.000000
    3      -14.707527   1.000000
    4      -14.688668   1.000000
    5      -14.686469   1.000000
    6      -14.686373   1.000000
    7      -11.496542   1.000000
    8      -11.469642   1.000000
    9      -11.465523   1.000000
   10       -3.368088   1.000000
   11        3.020104   1.000000
   12        4.019383   1.000000
   13        4.081706   1.000000
   14        4.494622   1.000000
   15        4.533453   1.000000
   16        5.449846   1.000000
   17        6.525261   1.000000
   18        6.599879   1.000000
   19        7.534655   1.000000
   20        7.949148   0.999792
   21        7.968295   0.794491
   22        8.089291   0.000000
   23        8.170872   0.000000
   24        8.256476   0.000000

  0.3076923E+00  0.1538462E+00  0.6637999E-18  0.1092399E-01
    1      -36.281925   1.000000
    2      -14.716437   1.000000
    3      -14.709277   1.000000
    4      -14.688975   1.000000
    5      -14.686209   1.000000
    6      -14.685859   1.000000
    7      -11.519192   1.000000
    8      -11.467012   1.000000
    9      -11.460949   1.000000
   10       -3.223567   1.000000
   11        2.850290   1.000000
   12        3.862457   1.000000
   13        4.028245   1.000000
   14        4.510678   1.000000
   15        4.593120   1.000000
   16        5.181025   1.000000
   17        6.336860   1.000000
   18        6.550778   1.000000
   19        7.545210   1.000000
   20        7.960528   0.972603
   21        7.969244   0.754237
   22        8.149066   0.000000
   23        8.172007   0.000000
   24        8.304690   0.000000

  0.3846154E+00  0.1538462E+00 -0.4296055E-17  0.1092399E-01
    1      -36.281600   1.000000
    2      -14.717107   1.000000
    3      -14.711920   1.000000
    4      -14.689192   1.000000
    5      -14.686047   1.000000
    6      -14.685403   1.000000
    7      -11.540075   1.000000
    8      -11.462062   1.000000
    9      -11.459014   1.000000
   10       -3.080682   1.000000
   11        2.742679   1.000000
   12        3.743917   1.000000
   13        3.962518   1.000000
   14        4.496253   1.000000
   15        4.602823   1.000000
   16        4.900636   1.000000
   17        6.224098   1.000000
   18        6.544243   1.000000
   19        7.552150   1.000000
   20        7.981746   0.140014
   21        7.985530   0.053112
   22        8.163077   0.000000
   23        8.168376   0.000000
   24        8.287531   0.000000

  0.4615385E+00  0.1538462E+00  0.5297254E-17  0.1092399E-01
    1      -36.281357   1.000000
    2      -14.716943   1.000000
    3      -14.714817   1.000000
    4      -14.689288   1.000000
    5      -14.685964   1.000000
    6      -14.685124   1.000000
    7      -11.554679   1.000000
    8      -11.460183   1.000000
    9      -11.455921   1.000000
   10       -2.971749   1.000000
   11        2.687417   1.000000
   12        3.698434   1.000000
   13        3.875298   1.000000
   14        4.496528   1.000000
   15        4.552682   1.000000
   16        4.702458   1.000000
   17        6.170250   1.000000
   18        6.553362   1.000000
   19        7.570457   1.000000
   20        8.007013   0.000002
   21        8.007721   0.000001
   22        8.158517   0.000000
   23        8.171370   0.000000
   24        8.274154   0.000000

 -0.4615385E+00  0.1538462E+00  0.2614961E-16  0.1092399E-01
    1      -36.281252   1.000000
    2      -14.717300   1.000000
    3      -14.715999   1.000000
    4      -14.689237   1.000000
    5      -14.685951   1.000000
    6      -14.685100   1.000000
    7      -11.560329   1.000000
    8      -11.464006   1.000000
    9      -11.449984   1.000000
   10       -2.920720   1.000000
   11        2.665605   1.000000
   12        3.729088   1.000000
   13        3.770030   1.000000
   14        4.482728   1.000000
   15        4.540471   1.000000
   16        4.625272   1.000000
   17        6.134967   1.000000
   18        6.563446   1.000000
   19        7.588291   1.000000
   20        8.007119   0.000002
   21        8.040297   0.000000
   22        8.137343   0.000000
   23        8.190649   0.000000
   24        8.248649   0.000000

 -0.3846154E+00  0.1538462E+00  0.4396664E-17  0.1092399E-01
    1      -36.281310   1.000000
    2      -14.718816   1.000000
    3      -14.714467   1.000000
    4      -14.689037   1.000000
    5      -14.686008   1.000000
    6      -14.685321   1.000000
    7      -11.556295   1.000000
    8      -11.469327   1.000000
    9      -11.445601   1.000000
   10       -2.938933   1.000000
   11        2.672408   1.000000
   12        3.672665   1.000000
   13        3.818410   1.000000
   14        4.447690   1.000000
   15        4.615231   1.000000
   16        4.664729   1.000000
   17        6.087107   1.000000
   18        6.581811   1.000000
   19        7.586866   1.000000
   20        7.986682   0.037683
   21        8.054308   0.000000
   22        8.125363   0.000000
   23        8.214218   0.000000
   24        8.220229   0.000000

 -0.3076923E+00  0.1538462E+00 -0.2277709E-17  0.1092399E-01
    1      -36.281515   1.000000
    2      -14.719049   1.000000
    3      -14.712682   1.000000
    4      -14.688763   1.000000
    5      -14.686124   1.000000
    6      -14.685723   1.000000
    7      -11.543809   1.000000
    8      -11.474458   1.000000
    9      -11.443768   1.000000
   10       -3.023366   1.000000
   11        2.728395   1.000000
   12        3.610205   1.000000
   13        3.936290   1.000000
   14        4.440448   1.000000
   15        4.686785   1.000000
   16        4.830070   1.000000
   17        6.026287   1.000000
   18        6.628229   1.000000
   19        7.567800   1.000000
   20        7.966954   0.844173
   21        8.025537   0.000000
   22        8.145344   0.000000
   23        8.208216   0.000000
   24        8.234606   0.000000

 -0.2307692E+00  0.1538462E+00 -0.6562189E-17  0.1092399E-01
    1      -36.281823   1.000000
    2      -14.717945   1.000000
    3      -14.711030   1.000000
    4      -14.688508   1.000000
    5      -14.686293   1.000000
    6      -14.686199   1.000000
    7      -11.526213   1.000000
    8      -11.477279   1.000000
    9      -11.444920   1.000000
   10       -3.155870   1.000000
   11        2.860713   1.000000
   12        3.599752   1.000000
   13        4.048631   1.000000
   14        4.444564   1.000000
   15        4.721571   1.000000
   16        5.076687   1.000000
   17        6.009059   1.000000
   18        6.715261   1.000000
   19        7.543889   1.000000
   20        7.957053   0.992064
   21        7.992592   0.004473
   22        8.152510   0.000000
   23        8.189016   0.000000
   24        8.286763   0.000000

 -0.1538462E+00  0.1538462E+00 -0.1323656E-16  0.5461994E-02
    1      -36.282163   1.000000
    2      -14.715770   1.000000
    3      -14.709913   1.000000
    4      -14.688295   1.000000
    5      -14.686640   1.000000
    6      -14.686516   1.000000
    7      -11.509157   1.000000
    8      -11.475126   1.000000
    9      -11.448806   1.000000
   10       -3.305807   1.000000
   11        3.076993   1.000000
   12        3.647769   1.000000
   13        4.109923   1.000000
   14        4.445840   1.000000
   15        4.703389   1.000000
   16        5.293487   1.000000
   17        6.167409   1.000000
   18        6.825475   1.000000
   19        7.506415   1.000000
   20        7.955724   0.995336
   21        7.968996   0.765115
   22        8.148267   0.000000
   23        8.166123   0.000000
   24        8.295676   0.000000

  0.2307692E+00  0.2307692E+00 -0.6488164E-17  0.2730997E-02
    1      -36.282059   1.000000
    2      -14.715707   1.000000
    3      -14.706436   1.000000
    4      -14.689167   1.000000
    5      -14.685992   1.000000
    6      -14.685992   1.000000
    7      -11.497382   1.000000
    8      -11.473520   1.000000
    9      -11.473520   1.000000
   10       -3.304003   1.000000
   11        2.859066   1.000000
   12        4.131586   1.000000
   13        4.131586   1.000000
   14        4.421597   1.000000
   15        4.508731   1.000000
   16        5.426659   1.000000
   17        6.508062   1.000000
   18        6.508062   1.000000
   19        7.522755   1.000000
   20        7.971073   0.666110
   21        7.971073   0.666110
   22        8.059648   0.000000
   23        8.199092   0.000000
   24        8.319106   0.000000

  0.3076923E+00  0.2307692E+00 -0.1023896E-16  0.1092399E-01
    1      -36.281782   1.000000
    2      -14.715747   1.000000
    3      -14.706838   1.000000
    4      -14.689544   1.000000
    5      -14.685619   1.000000
    6      -14.685495   1.000000
    7      -11.513331   1.000000
    8      -11.474060   1.000000
    9      -11.472526   1.000000
   10       -3.209220   1.000000
   11        2.773075   1.000000
   12        4.030136   1.000000
   13        4.114401   1.000000
   14        4.455662   1.000000
   15        4.531471   1.000000
   16        5.271527   1.000000
   17        6.338421   1.000000
   18        6.467454   1.000000
   19        7.581274   1.000000
   20        7.962405   0.951036
   21        7.975941   0.397721
   22        8.094678   0.000000
   23        8.212427   0.000000
   24        8.344661   0.000000

  0.3846154E+00  0.2307692E+00 -0.1176978E-16  0.1092399E-01
    1      -36.281496   1.000000
    2      -14.715213   1.000000
    3      -14.708638   1.000000
    4      -14.689694   1.000000
    5      -14.685496   1.000000
    6      -14.685034   1.000000
    7      -11.531256   1.000000
    8      -11.472044   1.000000
    9      -11.471161   1.000000
   10       -3.107007   1.000000
   11        2.772682   1.000000
   12        3.869004   1.000000
   13        4.057122   1.000000
   14        4.527504   1.000000
   15        4.535950   1.000000
   16        5.051766   1.000000
   17        6.095799   1.000000
   18        6.467791   1.000000
   19        7.640053   1.000000
   20        7.974118   0.499405
   21        7.987922   0.025374
   22        8.113930   0.000000
   23        8.211438   0.000000
   24        8.318211   0.000000

  0.4615385E+00  0.2307692E+00 -0.1433974E-16  0.1092399E-01
    1      -36.281263   1.000000
    2      -14.714237   1.000000
    3      -14.711362   1.000000
    4      -14.689558   1.000000
    5      -14.685637   1.000000
    6      -14.684737   1.000000
    7      -11.544108   1.000000
    8      -11.475244   1.000000
    9      -11.465492   1.000000
   10       -3.019544   1.000000
   11        2.832243   1.000000
   12        3.754299   1.000000
   13        3.961417   1.000000
   14        4.541689   1.000000
   15        4.550472   1.000000
   16        4.848330   1.000000
   17        5.910841   1.000000
   18        6.477319   1.000000
   19        7.665464   1.000000
   20        7.995560   0.001207
   21        8.010083   0.000000
   22        8.138891   0.000000
   23        8.198760   0.000000
   24        8.295107   0.000000

 -0.4615385E+00  0.2307692E+00  0.9941652E-17  0.1092399E-01
    1      -36.281137   1.000000
    2      -14.714375   1.000000
    3      -14.713078   1.000000
    4      -14.689146   1.000000
    5      -14.685996   1.000000
    6      -14.684698   1.000000
    7      -11.549104   1.000000
    8      -11.481585   1.000000
    9      -11.458340   1.000000
   10       -2.963205   1.000000
   11        2.885879   1.000000
   12        3.715058   1.000000
   13        3.838359   1.000000
   14        4.482514   1.000000
   15        4.596748   1.000000
   16        4.759095   1.000000
   17        5.794236   1.000000
   18        6.480229   1.000000
   19        7.680642   1.000000
   20        7.998236   0.000322
   21        8.042078   0.000000
   22        8.170245   0.000000
   23        8.178038   0.000000
   24        8.267871   0.000000

 -0.3846154E+00  0.2307692E+00 -0.1866937E-16  0.1092399E-01
    1      -36.281146   1.000000
    2      -14.716999   1.000000
    3      -14.711999   1.000000
    4      -14.688585   1.000000
    5      -14.686427   1.000000
    6      -14.684911   1.000000
    7      -11.546095   1.000000
    8      -11.488890   1.000000
    9      -11.451333   1.000000
   10       -2.948132   1.000000
   11        2.868208   1.000000
   12        3.716780   1.000000
   13        3.762351   1.000000
   14        4.439327   1.000000
   15        4.662833   1.000000
   16        4.784712   1.000000
   17        5.714353   1.000000
   18        6.488570   1.000000
   19        7.683473   1.000000
   20        7.981923   0.134538
   21        8.078640   0.000000
   22        8.127574   0.000000