       N       E                     dE             d eps       ncg     rms          rms(c)
DAV:   1     0.421393765396E+03    0.42139E+03   -0.22104E+04  4032   0.221E+03
DAV:   2     0.275899244915E+02   -0.39380E+03   -0.38702E+03  4688   0.483E+02
DAV:   3    -0.198625712390E+02   -0.47452E+02   -0.46362E+02  4904   0.172E+02
DAV:   4    -0.251207620324E+02   -0.52582E+01   -0.52248E+01  7816   0.435E+01
DAV:   5    -0.253161275870E+02   -0.19537E+00   -0.19474E+00  5528   0.731E+00    0.151E+01
DAV:   6    -0.370315317679E+02   -0.11715E+02   -0.27504E+02  6040   0.999E+01    0.223E+01
DAV:   7    -0.251753511996E+02    0.11856E+02   -0.28153E+01  5760   0.288E+01    0.133E+01
DAV:   8    -0.239973703958E+02    0.11780E+01   -0.48677E+01  6024   0.238E+01    0.940E+00
DAV:   9    -0.231352829112E+02    0.86209E+00   -0.87336E+00  6128   0.159E+01    0.237E+00
DAV:  10    -0.232504646112E+02   -0.11518E+00   -0.24864E+00  6168   0.618E+00    0.318E+00
DAV:  11    -0.231368151981E+02    0.11365E+00   -0.61481E-01  6000   0.329E+00    0.962E-01
DAV:  12    -0.231331820740E+02    0.36331E-02   -0.23696E-01  7296   0.175E+00    0.608E-01
DAV:  13    -0.231397098893E+02   -0.65278E-02   -0.21494E-02  6440   0.531E-01    0.920E-01
DAV:  14    -0.231304211023E+02    0.92888E-02   -0.75452E-02  6120   0.116E+00    0.446E-02
DAV:  15    -0.231305978860E+02   -0.17678E-03   -0.22005E-03  6832   0.219E-01    0.311E-02
DAV:  16    -0.231306544378E+02   -0.56552E-04   -0.61614E-04  6464   0.868E-02    0.762E-02
DAV:  17    -0.231310331624E+02   -0.37872E-03   -0.29502E-03  5936   0.133E-01    0.179E-02
DAV:  18    -0.231310667354E+02   -0.33573E-04   -0.41770E-04  6784   0.512E-02    0.155E-02
DAV:  19    -0.231310679222E+02   -0.11868E-05   -0.47151E-05  6240   0.168E-02    0.950E-03
DAV:  20    -0.231310680356E+02   -0.11342E-06   -0.96362E-06  6440   0.899E-03    0.413E-03
DAV:  21    -0.231310679623E+02    0.73303E-07   -0.55658E-07  4096   0.308E-03
   1 F= -.23131068E+02 E0= -.23129850E+02  d E =-.243674E-02
