 vasp.6.0.8 29Jun18 (build Jun 13 2019 12:54:44) complex

 executed on      IFC18_CrayMPICH date 2021.12.05  14:21:49
 running   64 mpi-ranks, with    1 threads/rank
 distrk:  each k-point on   16 cores,    4 groups
 distr:  one band on NCORES_PER_BAND=   4 cores,    4 groups


--------------------------------------------------------------------------------------------------------


 INCAR:
 POTCAR:    PAW_PBE U 06Sep2000
 POTCAR:    PAW_PBE Bi_d 06Sep2000
 POTCAR:    PAW_PBE Pt 04Feb2005
 POTCAR:    PAW_PBE U 06Sep2000
   VRHFIN =U:  [Xe,5d,4f]
   LEXCH  = PE
   EATOM  =  1405.3058 eV,  103.2871 Ry

   TITEL  = PAW_PBE U 06Sep2000
   LULTRA =        F    use ultrasoft PP ?
   IUNSCR =        1    unscreen: 0-lin 1-nonlin 2-no
   RPACOR =    2.200    partial core radius
   POMASS =  238.029; ZVAL   =   14.000    mass and valenz
   RCORE  =    2.800    outmost cutoff radius
   RWIGS  =    3.000; RWIGS  =    1.588    wigner-seitz radius (au A)
   ENMAX  =  252.502; ENMIN  =  189.376 eV
   RCLOC  =    1.811    cutoff for local pot
   LCOR   =        T    correct aug charges
   LPAW   =        T    paw PP
   EAUG   =  526.410
   DEXC   =    0.000
   RMAX   =    2.863    core radius for proj-oper
   RAUG   =    1.300    factor for augmentation sphere
   RDEP   =    2.950    radius for radial grids
   RDEPT  =    2.270    core radius for aug-charge

   Atomic configuration
   18 entries
     n  l   j            E        occ.
     1  0  0.50   -116038.1941   2.0000
     2  0  0.50    -21694.8835   2.0000
     2  1  1.50    -18009.1553   6.0000
     3  0  0.50     -5481.2929   2.0000
     3  1  1.50     -4458.9283   6.0000
     3  2  2.50     -3575.9978  10.0000
     4  0  0.50     -1400.5351   2.0000
     4  1  1.50     -1066.7807   6.0000
     4  2  2.50      -732.1336  10.0000
     4  3  3.50      -377.4393  14.0000
     5  0  0.50      -314.7366   2.0000
     5  1  1.50      -211.6057   6.0000
     5  2  2.50      -103.2045  10.0000
     6  0  0.50       -50.6026   2.0000
     7  0  0.50        -4.5896   2.0000
     6  1  1.50       -25.2884   6.0000
     6  2  1.50        -3.1039   2.0000
     5  3  2.50        -6.3670   2.0000
   Description
     l       E           TYP  RCUT    TYP  RCUT
     0    -50.6026097     23  2.600
     0     -4.5896371     23  2.600
     1    -25.2883770     23  2.500
     1     27.2116520     23  2.500
     2     -3.1038686     23  2.500
     2      0.8290654     23  2.500
     3     -6.3670133     23  2.800
     3     -7.7275959     23  2.800
  local pseudopotential read in
  partial core-charges read in
  partial kinetic energy density read in
  atomic valenz-charges read in
  non local Contribution for L=           0  read in
    real space projection operators read in
  non local Contribution for L=           0  read in
    real space projection operators read in
  non local Contribution for L=           1  read in
    real space projection operators read in
  non local Contribution for L=           1  read in
    real space projection operators read in
  non local Contribution for L=           2  read in
    real space projection operators read in
  non local Contribution for L=           2  read in
    real space projection operators read in
  non local Contribution for L=           3  read in
    real space projection operators read in
  non local Contribution for L=           3  read in
    real space projection operators read in
    PAW grid and wavefunctions read in

   number of l-projection  operators is LMAX  =           8
   number of lm-projection operators is LMMAX =          32

 POTCAR:    PAW_PBE Bi_d 06Sep2000
   VRHFIN =Bi:
   LEXCH  = PE
   EATOM  =  1959.2045 eV,  143.9975 Ry

   TITEL  = PAW_PBE Bi_d 06Sep2000
   LULTRA =        F    use ultrasoft PP ?
   IUNSCR =        1    unscreen: 0-lin 1-nonlin 2-no
   RPACOR =    2.200    partial core radius
   POMASS =  208.980; ZVAL   =   15.000    mass and valenz
   RCORE  =    2.500    outmost cutoff radius
   RWIGS  =    3.090; RWIGS  =    1.635    wigner-seitz radius (au A)
   ENMAX  =  242.839; ENMIN  =  182.129 eV
   ICORE  =        3    local potential
   LCOR   =        T    correct aug charges
   LPAW   =        T    paw PP
   EAUG   =  442.899
   DEXC   =    0.000
   RMAX   =    2.551    core radius for proj-oper
   RAUG   =    1.300    factor for augmentation sphere
   RDEP   =    2.650    radius for radial grids
   RDEPT  =    2.039    core radius for aug-charge

   Atomic configuration
   16 entries
     n  l   j            E        occ.
     1  0  0.50    -90639.6581   2.0000
     2  0  0.50    -16282.4666   2.0000
     2  1  1.50    -13922.8286   6.0000
     3  0  0.50     -3930.4763   2.0000
     3  1  1.50     -3256.7013   6.0000
     3  2  2.50     -2581.6168  10.0000
     4  0  0.50      -902.2614   2.0000
     4  1  1.50      -681.5915   6.0000
     4  2  2.50      -429.8249  10.0000
     4  3  3.50      -152.6004  14.0000
     5  0  0.50      -157.7156   2.0000
     5  1  1.50       -95.8054   6.0000
     5  2  2.50       -27.0806  10.0000
     6  0  0.50       -14.4732   2.0000
     6  1  1.50        -4.5702   3.0000
     5  3  2.50        -2.7212   0.0000
   Description
     l       E           TYP  RCUT    TYP  RCUT
     2    -27.0805982     23  2.500
     2     -1.3605826     23  2.500
     0    -14.4732271     23  2.500
     0      6.8029130     23  2.500
     1     -4.5701651     23  2.500
     1     13.6058260     23  2.500
     3     -1.3605826      7  2.500
  local pseudopotential read in
  partial core-charges read in
  partial kinetic energy density read in
  atomic valenz-charges read in
  non local Contribution for L=           2  read in
    real space projection operators read in
  non local Contribution for L=           2  read in
    real space projection operators read in
  non local Contribution for L=           0  read in
    real space projection operators read in
  non local Contribution for L=           0  read in
    real space projection operators read in
  non local Contribution for L=           1  read in
    real space projection operators read in
  non local Contribution for L=           1  read in
    real space projection operators read in
    PAW grid and wavefunctions read in

   number of l-projection  operators is LMAX  =           6
   number of lm-projection operators is LMMAX =          18

 POTCAR:    PAW_PBE Pt 04Feb2005
   VRHFIN =Pt: s1d9
   LEXCH  = PE
   EATOM  =   729.1176 eV,   53.5886 Ry

   TITEL  = PAW_PBE Pt 04Feb2005
   LULTRA =        F    use ultrasoft PP ?
   IUNSCR =        1    unscreen: 0-lin 1-nonlin 2-no
   RPACOR =    2.330    partial core radius
   POMASS =  195.080; ZVAL   =   10.000    mass and valenz
   RCORE  =    2.600    outmost cutoff radius
   RWIGS  =    2.750; RWIGS  =    1.455    wigner-seitz radius (au A)
   ENMAX  =  230.283; ENMIN  =  172.712 eV
   ICORE  =        3    local potential
   LCOR   =        T    correct aug charges
   LPAW   =        T    paw PP
   EAUG   =  358.966
   DEXC   =    0.000
   RMAX   =    2.658    core radius for proj-oper
   RAUG   =    1.300    factor for augmentation sphere
   RDEP   =    2.761    radius for radial grids
   RDEPT  =    2.203    core radius for aug-charge

   Atomic configuration
   16 entries
     n  l   j            E        occ.
     1  0  0.50    -78401.1885   2.0000
     2  0  0.50    -13770.7750   2.0000
     2  1  1.50    -11931.0468   6.0000
     3  0  0.50     -3234.7234   2.0000
     3  1  1.50     -2699.2216   6.0000
     3  2  2.50     -2119.5714  10.0000
     4  0  0.50      -695.1528   2.0000
     4  1  1.50      -519.6034   6.0000
     4  2  2.50      -306.6786  10.0000
     4  3  3.50       -70.1041  14.0000
     5  0  0.50      -101.7747   2.0000
     5  1  1.50       -55.9873   6.0000
     5  2  2.50        -6.1423   9.0000
     6  0  0.50        -5.6573   1.0000
     6  1  1.50        -6.8029   0.0000
     5  3  2.50        -1.3606   0.0000
   Description
     l       E           TYP  RCUT    TYP  RCUT
     2     -6.1423404     23  2.500
     2     -7.5029230     23  2.500
     0     -5.6573207     23  2.500
     0      0.7416693     23  2.500
     1     -2.7211652     23  2.600
     1     20.4087390     23  2.600
     3     -1.3605826     23  2.500
  local pseudopotential read in
  partial core-charges read in
  partial kinetic energy density read in
  atomic valenz-charges read in
  non local Contribution for L=           2  read in
    real space projection operators read in
  non local Contribution for L=           2  read in
    real space projection operators read in
  non local Contribution for L=           0  read in
    real space projection operators read in
  non local Contribution for L=           0  read in
    real space projection operators read in
  non local Contribution for L=           1  read in
    real space projection operators read in
  non local Contribution for L=           1  read in
    real space projection operators read in
    PAW grid and wavefunctions read in

   number of l-projection  operators is LMAX  =           6
   number of lm-projection operators is LMMAX =          18

 WARNING: PSMAXN for non-local potential too small
          PSMAXN should be >   13.5545592237991       NTYP=           1

 -----------------------------------------------------------------------------
|                                                                             |
|  ADVICE TO THIS USER RUNNING 'VASP/VAMP'   (HEAR YOUR MASTER'S VOICE ...):  |
|                                                                             |
|      You enforced a specific xc-type in the INCAR file,                     |
|      a different type was found on the POTCAR file                          |
|          I HOPE YOU KNOW, WHAT YOU ARE  DOING                               |
|                                                                             |
 -----------------------------------------------------------------------------

  PAW_PBE U 06Sep2000                   :
 energy of atom  1       EATOM=-1405.3058
 kinetic energy error for atom=    0.0006 (will be added to EATOM!!)
  PAW_PBE Bi_d 06Sep2000                :
 energy of atom  2       EATOM=-1959.2045
 kinetic energy error for atom=    0.0012 (will be added to EATOM!!)
  PAW_PBE Pt 04Feb2005                  :
 energy of atom  3       EATOM= -729.1176
 kinetic energy error for atom=    0.0010 (will be added to EATOM!!)


 POSCAR: U1 Bi1 Pt1
  positions in direct lattice
  No initial velocities read in
 exchange correlation table for  LEXCH =       14
   RHO(1)=    0.500       N(1)  =     2000
   RHO(2)=  100.500       N(2)  =     4000



--------------------------------------------------------------------------------------------------------


 ion  position               nearest neighbor table
   1  0.250  0.250  0.250-   3 3.04   3 3.04   3 3.04   3 3.04   2 3.51   2 3.51   2 3.51   2 3.51
                             2 3.51   2 3.51
   2  0.750  0.750  0.750-   3 3.04   3 3.04   3 3.04   3 3.04   1 3.51   1 3.51   1 3.51   1 3.51
                             1 3.51   1 3.51
   3  0.000  0.000  0.000-   2 3.04   2 3.04   2 3.04   1 3.04   2 3.04   1 3.04   1 3.04   1 3.04


  LATTYP: Found a face centered cubic cell.
 ALAT       =     7.0116471734

  Lattice vectors:

 A1 = (   0.0000000000,   3.5058235867,   3.5058235867)
 A2 = (   3.5058235867,   0.0000000000,   3.5058235867)
 A3 = (   3.5058235867,   3.5058235867,   0.0000000000)


Analysis of symmetry for initial positions (statically):
=====================================================================
 Subroutine PRICEL returns:
 Original cell was already a primitive cell.


 Routine SETGRP: Setting up the symmetry group for a
 face centered cubic supercell.


 Subroutine GETGRP returns: Found 24 space group operations
 (whereof 24 operations were pure point group operations)
 out of a pool of 48 trial point group operations.


The static configuration has the point symmetry T_d .


Analysis of symmetry for dynamics (positions and initial velocities):
=====================================================================
 Subroutine PRICEL returns:
 Original cell was already a primitive cell.


 Routine SETGRP: Setting up the symmetry group for a
 face centered cubic supercell.


 Subroutine GETGRP returns: Found 24 space group operations
 (whereof 24 operations were pure point group operations)
 out of a pool of 48 trial point group operations.


The dynamic configuration has the point symmetry T_d .


 Subroutine INISYM returns: Found 24 space group operations
 (whereof 24 operations are pure point group operations),
 and found     1 'primitive' translations


----------------------------------------------------------------------------------------

                                     Primitive cell

  volume of cell :      86.1787

  direct lattice vectors                    reciprocal lattice vectors
     0.000000000  3.505823587  3.505823587    -0.142619840  0.142619840  0.142619840
     3.505823587  0.000000000  3.505823587     0.142619840 -0.142619840  0.142619840
     3.505823587  3.505823587  0.000000000     0.142619840  0.142619840 -0.142619840

  length of vectors
     4.957983264  4.957983264  4.957983264     0.247024810  0.247024810  0.247024810

  position of ions in fractional coordinates (direct lattice)
     0.250000000  0.250000000  0.250000000
     0.750000000  0.750000000  0.750000000
     0.000000000  0.000000000  0.000000000

  ion indices of the primitive-cell ions
   primitive index   ion index
                 1           1
                 2           2
                 3           3

----------------------------------------------------------------------------------------



 KPOINTS: KPOINTS

Automatic generation of k-mesh.
Space group operators:
 irot       det(A)        alpha          n_x          n_y          n_z        tau_x        tau_y        tau_z
    1     1.000000     0.000001     1.000000     0.000000     0.000000     0.000000     0.000000     0.000000
    2     1.000000   120.000000    -0.577350    -0.577350    -0.577350     0.000000     0.000000     0.000000
    3     1.000000   120.000000     0.577350     0.577350     0.577350     0.000000     0.000000     0.000000
    4    -1.000000    90.000000    -0.000000     0.000000    -1.000000     0.000000     0.000000     0.000000
    5    -1.000000   179.999999     0.000000     0.707107     0.707107     0.000000     0.000000     0.000000
    6    -1.000000    90.000000    -0.000000     1.000000    -0.000000     0.000000     0.000000     0.000000
    7     1.000000   179.999999    -0.000000     0.000000     1.000000     0.000000     0.000000     0.000000
    8     1.000000   120.000000    -0.577350     0.577350     0.577350     0.000000     0.000000     0.000000
    9     1.000000   120.000000    -0.577350     0.577350    -0.577350     0.000000     0.000000     0.000000
   10    -1.000000    90.000000     0.000000     0.000000     1.000000     0.000000     0.000000     0.000000
   11    -1.000000    90.000000    -1.000000     0.000000     0.000000     0.000000     0.000000     0.000000
   12    -1.000000   179.999999     0.707107     0.000000     0.707107     0.000000     0.000000     0.000000
   13     1.000000   120.000000     0.577350    -0.577350     0.577350     0.000000     0.000000     0.000000
   14     1.000000   120.000000    -0.577350    -0.577350     0.577350     0.000000     0.000000     0.000000
   15     1.000000   179.999999     1.000000     0.000000     0.000000     0.000000     0.000000     0.000000
   16    -1.000000    90.000000     0.000000    -1.000000     0.000000     0.000000     0.000000     0.000000
   17    -1.000000   179.999999     0.707107     0.707107    -0.000000     0.000000     0.000000     0.000000
   18    -1.000000    90.000000     1.000000     0.000000     0.000000     0.000000     0.000000     0.000000
   19     1.000000   120.000000     0.577350    -0.577350    -0.577350     0.000000     0.000000     0.000000
   20     1.000000   179.999999     0.000000     1.000000     0.000000     0.000000     0.000000     0.000000
   21     1.000000   120.000000     0.577350     0.577350    -0.577350     0.000000     0.000000     0.000000
   22    -1.000000   179.999999    -0.000000    -0.707107     0.707107     0.000000     0.000000     0.000000
   23    -1.000000   179.999999     0.707107    -0.707107     0.000000     0.000000     0.000000     0.000000
   24    -1.000000   180.000000     0.707107     0.000000    -0.707107     0.000000     0.000000     0.000000

 Subroutine IBZKPT returns following result:
 ===========================================

 Found     84 irreducible k-points:

 Following reciprocal coordinates:
            Coordinates               Weight
  0.000000  0.000000  0.000000      1.000000
  0.076923  0.000000 -0.000000      8.000000
  0.153846 -0.000000  0.000000      8.000000
  0.230769 -0.000000 -0.000000      8.000000
  0.307692 -0.000000  0.000000      8.000000
  0.384615 -0.000000  0.000000      8.000000
  0.461538 -0.000000  0.000000      8.000000
  0.076923  0.076923 -0.000000      6.000000
  0.153846  0.076923 -0.000000     24.000000
  0.230769  0.076923 -0.000000     24.000000
  0.307692  0.076923 -0.000000     24.000000
  0.384615  0.076923  0.000000     24.000000
  0.461538  0.076923 -0.000000     24.000000
 -0.461538  0.076923  0.000000     24.000000
 -0.384615  0.076923 -0.000000     24.000000
 -0.307692  0.076923 -0.000000     24.000000
 -0.230769  0.076923  0.000000     24.000000
 -0.153846  0.076923 -0.000000     24.000000
 -0.076923  0.076923  0.000000     12.000000
  0.153846  0.153846 -0.000000      6.000000
  0.230769  0.153846 -0.000000     24.000000
  0.307692  0.153846  0.000000     24.000000
  0.384615  0.153846 -0.000000     24.000000
  0.461538  0.153846  0.000000     24.000000
 -0.461538  0.153846  0.000000     24.000000
 -0.384615  0.153846  0.000000     24.000000
 -0.307692  0.153846 -0.000000     24.000000
 -0.230769  0.153846 -0.000000     24.000000
 -0.153846  0.153846 -0.000000     12.000000
  0.230769  0.230769 -0.000000      6.000000
  0.307692  0.230769 -0.000000     24.000000
  0.384615  0.230769 -0.000000     24.000000
  0.461538  0.230769 -0.000000     24.000000
 -0.461538  0.230769  0.000000     24.000000
 -0.384615  0.230769 -0.000000     24.000000
 -0.307692  0.230769  0.000000     24.000000
 -0.230769  0.230769 -0.000000     12.000000
  0.307692  0.307692 -0.000000      6.000000
  0.384615  0.307692 -0.000000     24.000000
  0.461538  0.307692 -0.000000     24.000000
 -0.461538  0.307692 -0.000000     24.000000
 -0.384615  0.307692  0.000000     24.000000
 -0.307692  0.307692 -0.000000     12.000000
  0.384615  0.384615 -0.000000      6.000000
  0.461538  0.384615 -0.000000     24.000000
 -0.461538  0.384615  0.000000     24.000000
 -0.384615  0.384615 -0.000000     12.000000
  0.461538  0.461538 -0.000000      6.000000
 -0.461538  0.461538 -0.000000     12.000000
  0.230769  0.153846  0.076923     24.000000
  0.307692  0.153846  0.076923     48.000000
  0.384615  0.153846  0.076923     48.000000
  0.461538  0.153846  0.076923     48.000000
 -0.461538  0.153846  0.076923     48.000000
  0.307692  0.230769  0.076923     24.000000
  0.384615  0.230769  0.076923     48.000000
  0.461538  0.230769  0.076923     48.000000
 -0.461538  0.230769  0.076923     48.000000
 -0.384615  0.230769  0.076923     48.000000
 -0.307692  0.230769  0.076923     48.000000
 -0.230769  0.230769  0.076923     48.000000
 -0.153846  0.230769  0.076923     24.000000
  0.384615  0.307692  0.076923     24.000000
  0.461538  0.307692  0.076923     48.000000
 -0.461538  0.307692  0.076923     48.000000
 -0.384615  0.307692  0.076923     48.000000
 -0.307692  0.307692  0.076923     48.000000
 -0.230769  0.307692  0.076923     24.000000
  0.461538  0.384615  0.076923     24.000000
 -0.461538  0.384615  0.076923     48.000000
 -0.384615  0.384615  0.076923     48.000000
 -0.307692  0.384615  0.076923     24.000000
 -0.461538  0.461538  0.076923     24.000000
 -0.384615  0.461538  0.076923     24.000000
  0.461538  0.307692  0.153846     24.000000
 -0.461538  0.307692  0.153846     48.000000
 -0.384615  0.307692  0.153846     48.000000
 -0.461538  0.384615  0.153846     24.000000
 -0.384615  0.384615  0.153846     48.000000
 -0.307692  0.384615  0.153846     48.000000
 -0.230769  0.384615  0.153846     24.000000
 -0.384615  0.461538  0.153846     24.000000
 -0.307692  0.461538  0.153846     24.000000
 -0.307692  0.461538  0.230769     24.000000

 Following cartesian coordinates:
            Coordinates               Weight
  0.000000  0.000000  0.000000      1.000000
 -0.011593  0.011593  0.011593      8.000000
 -0.023186  0.023186  0.023186      8.000000
 -0.034779  0.034779  0.034779      8.000000
 -0.046372  0.046372  0.046372      8.000000
 -0.057965  0.057965  0.057965      8.000000
 -0.069558  0.069558  0.069558      8.000000
 -0.000000  0.000000  0.023186      6.000000
 -0.011593  0.011593  0.034779     24.000000
 -0.023186  0.023186  0.046372     24.000000
 -0.034779  0.034779  0.057965     24.000000
 -0.046372  0.046372  0.069558     24.000000
 -0.057965  0.057965  0.081151     24.000000
  0.081151 -0.081151 -0.057965     24.000000
  0.069558 -0.069558 -0.046372     24.000000
  0.057965 -0.057965 -0.034779     24.000000
  0.046372 -0.046372 -0.023186     24.000000
  0.034779 -0.034779 -0.011593     24.000000
  0.023186 -0.023186  0.000000     12.000000
  0.000000 -0.000000  0.046372      6.000000
 -0.011593  0.011593  0.057965     24.000000
 -0.023186  0.023186  0.069558     24.000000
 -0.034779  0.034779  0.081151     24.000000
 -0.046372  0.046372  0.092744     24.000000
  0.092744 -0.092744 -0.046372     24.000000
  0.081151 -0.081151 -0.034779     24.000000
  0.069558 -0.069558 -0.023186     24.000000
  0.057965 -0.057965 -0.011593     24.000000
  0.046372 -0.046372  0.000000     12.000000
 -0.000000  0.000000  0.069558      6.000000
 -0.011593  0.011593  0.081151     24.000000
 -0.023186  0.023186  0.092744     24.000000
 -0.034779  0.034779  0.104337     24.000000
  0.104337 -0.104337 -0.034779     24.000000
  0.092744 -0.092744 -0.023186     24.000000
  0.081151 -0.081151 -0.011593     24.000000
  0.069558 -0.069558 -0.000000     12.000000
  0.000000 -0.000000  0.092744      6.000000
 -0.011593  0.011593  0.104337     24.000000
 -0.023186  0.023186  0.115930     24.000000
  0.115930 -0.115930 -0.023186     24.000000
  0.104337 -0.104337 -0.011593     24.000000
  0.092744 -0.092744  0.000000     12.000000
 -0.000000 -0.000000  0.115930      6.000000
 -0.011593  0.011593  0.127523     24.000000
  0.127523 -0.127523 -0.011593     24.000000
  0.115930 -0.115930  0.000000     12.000000
 -0.000000  0.000000  0.139116      6.000000
  0.139116 -0.139116  0.000000     12.000000
 -0.000000  0.023186  0.046372     24.000000
 -0.011593  0.034779  0.057965     48.000000
 -0.023186  0.046372  0.069558     48.000000
 -0.034779  0.057965  0.081151     48.000000
  0.104337 -0.081151 -0.057965     48.000000
  0.000000  0.023186  0.069558     24.000000
 -0.011593  0.034779  0.081151     48.000000
 -0.023186  0.046372  0.092744     48.000000
  0.115930 -0.092744 -0.046372     48.000000
  0.104337 -0.081151 -0.034779     48.000000
  0.092744 -0.069558 -0.023186     48.000000
  0.081151 -0.057965 -0.011593     48.000000
  0.069558 -0.046372 -0.000000     24.000000
 -0.000000  0.023186  0.092744     24.000000
 -0.011593  0.034779  0.104337     48.000000
  0.127523 -0.104337 -0.034779     48.000000
  0.115930 -0.092744 -0.023186     48.000000
  0.104337 -0.081151 -0.011593     48.000000
  0.092744 -0.069558 -0.000000     24.000000
  0.000000  0.023186  0.115930     24.000000
  0.139116 -0.115930 -0.023186     48.000000
  0.127523 -0.104337 -0.011593     48.000000
  0.115930 -0.092744  0.000000     24.000000
  0.150709 -0.127523 -0.011593     24.000000
  0.139116 -0.115930 -0.000000     24.000000
 -0.000000  0.046372  0.092744     24.000000
  0.139116 -0.092744 -0.046372     48.000000
  0.127523 -0.081151 -0.034779     48.000000
  0.150709 -0.104337 -0.034779     24.000000
  0.139116 -0.092744 -0.023186     48.000000
  0.127523 -0.081151 -0.011593     48.000000
  0.115930 -0.069558 -0.000000     24.000000
  0.150709 -0.104337 -0.011593     24.000000
  0.139116 -0.092744  0.000000     24.000000
  0.150709 -0.081151 -0.011593     24.000000



--------------------------------------------------------------------------------------------------------




 Dimension of arrays:
   k-points           NKPTS =     84   k-points in BZ     NKDIM =     84   number of bands    NBANDS=     24
   number of dos      NEDOS =    301   number of ions     NIONS =      3
   non local maximal  LDIM  =      8   non local SUM 2l+1 LMDIM =     32
   total plane-waves  NPLWV = 110592
   max r-space proj   IRMAX =      1   max aug-charges    IRDMAX= 626286
   dimension x,y,z NGX =    48 NGY =   48 NGZ =   48
   dimension x,y,z NGXF=    96 NGYF=   96 NGZF=   96
   support grid    NGXF=   192 NGYF=  192 NGZF=  192
   ions per type =               1   1   1
   NGX,Y,Z   is equivalent  to a cutoff of  16.09, 16.09, 16.09 a.u.
   NGXF,Y,Z  is equivalent  to a cutoff of  32.19, 32.19, 32.19 a.u.

 SYSTEM =  unknown system
 POSCAR =  U1 Bi1 Pt1

 Startparameter for this run:
   NWRITE =      2    write-flag & timer
   PREC   = acc       normal or accurate (medium, high low for compatibility)
   ISTART =      0    job   : 0-new  1-cont  2-samecut
   ICHARG =      2    charge: 1-file 2-atom 10-const
   ISPIN  =      1    spin polarized calculation?
   LNONCOLLINEAR =      F non collinear calculations
   LSORBIT =      F    spin-orbit coupling
   INIWAV =      1    electr: 0-lowe 1-rand  2-diag
   LASPH  =      F    aspherical Exc in radial PAW
   METAGGA=      F    non-selfconsistent MetaGGA calc.

 Electronic Relaxation 1
   ENCUT  =  700.0 eV  51.45 Ry    7.17 a.u.  10.70 10.70 10.70*2*pi/ulx,y,z
   ENINI  =  700.0     initial cutoff
   ENAUG  =  526.4 eV  augmentation charge cutoff
   NELM   =     60;   NELMIN=  5; NELMDL= -5     # of ELM steps
   EDIFF  = 0.1E-06   stopping-criterion for ELM
   LREAL  =      F    real-space projection
   NLSPLINE    = F    spline interpolate recip. space projectors
   LCOMPAT=      F    compatible to vasp.4.4
   GGA_COMPAT  = T    GGA compatible to vasp.4.4-vasp.4.6
   LMAXPAW     = -100 max onsite density
   LMAXMIX     =    2 max onsite mixed and CHGCAR
   VOSKOWN=      0    Vosko Wilk Nusair interpolation
   ROPT   =    0.00000   0.00000   0.00000
 Ionic relaxation
   EDIFFG = 0.1E-05   stopping-criterion for IOM
   NSW    =      0    number of steps for IOM
   NBLOCK =      1;   KBLOCK =      1    inner block; outer block
   IBRION =     -1    ionic relax: 0-MD 1-quasi-New 2-CG
   NFREE  =      0    steps in history (QN), initial steepest desc. (CG)
   ISIF   =      3    stress and relaxation
   IWAVPR =     10    prediction:  0-non 1-charg 2-wave 3-comb
   ISYM   =      2    0-nonsym 1-usesym 2-fastsym
   LCORR  =      T    Harris-Foulkes like correction to forces

   POTIM  = 0.5000    time-step for ionic-motion
   TEIN   =    0.0    initial temperature
   TEBEG  =    0.0;   TEEND  =   0.0 temperature during run
   SMASS  =  -3.00    Nose mass-parameter (am)
   estimated Nose-frequenzy (Omega)   =  0.10E-29 period in steps = 0.13E+47 mass=  -0.562E-27a.u.
   SCALEE = 1.0000    scale energy and forces
   NPACO  =    256;   APACO  = 16.0  distance and # of slots for P.C.
   PSTRESS=    0.0 pullay stress

  Mass of Ions in am
   POMASS = 238.03208.98195.08
  Ionic Valenz
   ZVAL   =  14.00 15.00 10.00
  Atomic Wigner-Seitz radii
   RWIGS  =  -1.00 -1.00 -1.00
  virtual crystal weights
   VCA    =   1.00  1.00  1.00
   NELECT =      39.0000    total number of electrons
   NUPDOWN=      -1.0000    fix difference up-down

 DOS related values:
   EMIN   =  10.00;   EMAX   =-10.00  energy-range for DOS
   EFERMI =   0.00
   ISMEAR =     0;   SIGMA  =   0.01  broadening in eV -4-tet -1-fermi 0-gaus

 Electronic relaxation 2 (details)
   IALGO  =     38    algorithm
   LDIAG  =      T    sub-space diagonalisation (order eigenvalues)
   LSUBROT=      F    optimize rotation matrix (better conditioning)
   TURBO    =      0    0=normal 1=particle mesh
   IRESTART =      0    0=no restart 2=restart with 2 vectors
   NREBOOT  =      0    no. of reboots
   NMIN     =      0    reboot dimension
   EREF     =   0.00    reference energy to select bands
   IMIX   =      4    mixing-type and parameters
     AMIX     =   0.40;   BMIX     =  1.00
     AMIX_MAG =   1.60;   BMIX_MAG =  1.00
     AMIN     =   0.10
     WC   =   100.;   INIMIX=   1;  MIXPRE=   1;  MAXMIX= -45

 Intra band minimization:
   WEIMIN = 0.0000     energy-eigenvalue tresh-hold
   EBREAK =  0.10E-08  absolut break condition
   DEPER  =   0.30     relativ break condition

   TIME   =   0.40     timestep for ELM

  volume/ion in A,a.u.               =      28.73       193.85
  Fermi-wavevector in a.u.,A,eV,Ry     =   1.256887  2.375172 21.494014  1.579765
  Thomas-Fermi vector in A             =   2.390573

 Write flags
   LWAVE        =      F    write WAVECAR
   LDOWNSAMPLE  =      F    k-point downsampling of WAVECAR
   LCHARG       =      F    write CHGCAR
   LVTOT        =      F    write LOCPOT, total local potential
   LVHAR        =      F    write LOCPOT, Hartree potential only
   LELF         =      F    write electronic localiz. function (ELF)
   LORBIT       =      0    0 simple, 1 ext, 2 COOP (PROOUT), +10 PAW based schemes


 Dipole corrections
   LMONO  =      F    monopole corrections only (constant potential shift)
   LDIPOL =      F    correct potential (dipole corrections)
   IDIPOL =      0    1-x, 2-y, 3-z, 4-all directions
   EPSILON=  1.0000000 bulk dielectric constant

 Exchange correlation treatment:
   GGA     =    PS    GGA type
   LEXCH   =    14    internal setting for exchange type
   VOSKOWN=      0    Vosko Wilk Nusair interpolation
   LHFCALC =     F    Hartree Fock is set to
   LHFONE  =     F    Hartree Fock one center treatment
   AEXX    =    0.0000 exact exchange contribution

 Linear response parameters
   LEPSILON=     F    determine dielectric tensor
   LRPA    =     F    only Hartree local field effects (RPA)
   LNABLA  =     F    use nabla operator in PAW spheres
   LVEL    =     F    velocity operator in full k-point grid
   LINTERFAST=   F  fast interpolation
   KINTER  =     0    interpolate to denser k-point grid
   CSHIFT  =0.1000    complex shift for real part using Kramers Kronig
   OMEGAMAX=  -1.0    maximum frequency
   DEG_THRESHOLD= 0.2000000E-02 threshold for treating states as degnerate
   RTIME   =   -0.100 relaxation time in fs
  (WPLASMAI=    0.000 imaginary part of plasma frequency in eV, 0.658/RTIME)
   DFIELD  = 0.0000000 0.0000000 0.0000000 field for delta impulse in time

 Orbital magnetization related:
   ORBITALMAG=     F  switch on orbital magnetization
   LCHIMAG   =     F  perturbation theory with respect to B field
   DQ        =  0.001000  dq finite difference perturbation B field
   LLRAUG    =     F  two centre corrections for induced B field



--------------------------------------------------------------------------------------------------------


 Static calculation
 charge density and potential will be updated during run
 non-spin polarized calculation
 Variant of blocked Davidson
 Davidson routine will perform the subspace rotation
 perform sub-space diagonalisation
    after iterative eigenvector-optimisation
 modified Broyden-mixing scheme, WC =      100.0
 initial mixing is a Kerker type mixing with AMIX =  0.4000 and BMIX =      1.0000
 Hartree-type preconditioning will be used
 using additional bands            4
 reciprocal scheme for non local part
 use partial core corrections
 calculate Harris-corrections to forces
   (improved forces if not selfconsistent)
 use gradient corrections
 use of overlap-Matrix (Vanderbilt PP)
 Gauss-broadening in eV      SIGMA  =   0.01


--------------------------------------------------------------------------------------------------------


  energy-cutoff  :      700.00
  volume of cell :       86.18
      direct lattice vectors                 reciprocal lattice vectors
     0.000000000  3.505823587  3.505823587    -0.142619840  0.142619840  0.142619840
     3.505823587  0.000000000  3.505823587     0.142619840 -0.142619840  0.142619840
     3.505823587  3.505823587  0.000000000     0.142619840  0.142619840 -0.142619840

  length of vectors
     4.957983264  4.957983264  4.957983264     0.247024810  0.247024810  0.247024810



 k-points in units of 2pi/SCALE and weight: KPOINTS
   0.00000000  0.00000000  0.00000000       0.000
  -0.01159304  0.01159304  0.01159304       0.004
  -0.02318608  0.02318608  0.02318608       0.004
  -0.03477911  0.03477911  0.03477911       0.004
  -0.04637215  0.04637215  0.04637215       0.004
  -0.05796519  0.05796519  0.05796519       0.004
  -0.06955823  0.06955823  0.06955823       0.004
  -0.00000000  0.00000000  0.02318608       0.003
  -0.01159304  0.01159304  0.03477911       0.011
  -0.02318608  0.02318608  0.04637215       0.011
  -0.03477911  0.03477911  0.05796519       0.011
  -0.04637215  0.04637215  0.06955823       0.011
  -0.05796519  0.05796519  0.08115127       0.011
   0.08115127 -0.08115127 -0.05796519       0.011
   0.06955823 -0.06955823 -0.04637215       0.011
   0.05796519 -0.05796519 -0.03477911       0.011
   0.04637215 -0.04637215 -0.02318608       0.011
   0.03477911 -0.03477911 -0.01159304       0.011
   0.02318608 -0.02318608  0.00000000       0.005
   0.00000000 -0.00000000  0.04637215       0.003
  -0.01159304  0.01159304  0.05796519       0.011
  -0.02318608  0.02318608  0.06955823       0.011
  -0.03477911  0.03477911  0.08115127       0.011
  -0.04637215  0.04637215  0.09274430       0.011
   0.09274430 -0.09274430 -0.04637215       0.011
   0.08115127 -0.08115127 -0.03477911       0.011
   0.06955823 -0.06955823 -0.02318608       0.011
   0.05796519 -0.05796519 -0.01159304       0.011
   0.04637215 -0.04637215  0.00000000       0.005
  -0.00000000  0.00000000  0.06955823       0.003
  -0.01159304  0.01159304  0.08115127       0.011
  -0.02318608  0.02318608  0.09274430       0.011
  -0.03477911  0.03477911  0.10433734       0.011
   0.10433734 -0.10433734 -0.03477911       0.011
   0.09274430 -0.09274430 -0.02318608       0.011
   0.08115127 -0.08115127 -0.01159304       0.011
   0.06955823 -0.06955823 -0.00000000       0.005
   0.00000000 -0.00000000  0.09274430       0.003
  -0.01159304  0.01159304  0.10433734       0.011
  -0.02318608  0.02318608  0.11593038       0.011
   0.11593038 -0.11593038 -0.02318608       0.011
   0.10433734 -0.10433734 -0.01159304       0.011
   0.09274430 -0.09274430  0.00000000       0.005
  -0.00000000 -0.00000000  0.11593038       0.003
  -0.01159304  0.01159304  0.12752342       0.011
   0.12752342 -0.12752342 -0.01159304       0.011
   0.11593038 -0.11593038  0.00000000       0.005
  -0.00000000  0.00000000  0.13911646       0.003
   0.13911646 -0.13911646  0.00000000       0.005
  -0.00000000  0.02318608  0.04637215       0.011
  -0.01159304  0.03477911  0.05796519       0.022
  -0.02318608  0.04637215  0.06955823       0.022
  -0.03477911  0.05796519  0.08115127       0.022
   0.10433734 -0.08115127 -0.05796519       0.022
   0.00000000  0.02318608  0.06955823       0.011
  -0.01159304  0.03477911  0.08115127       0.022
  -0.02318608  0.04637215  0.09274430       0.022
   0.11593038 -0.09274430 -0.04637215       0.022
   0.10433734 -0.08115127 -0.03477911       0.022
   0.09274430 -0.06955823 -0.02318608       0.022
   0.08115127 -0.05796519 -0.01159304       0.022
   0.06955823 -0.04637215 -0.00000000       0.011
  -0.00000000  0.02318608  0.09274430       0.011
  -0.01159304  0.03477911  0.10433734       0.022
   0.12752342 -0.10433734 -0.03477911       0.022
   0.11593038 -0.09274430 -0.02318608       0.022
   0.10433734 -0.08115127 -0.01159304       0.022
   0.09274430 -0.06955823 -0.00000000       0.011
   0.00000000  0.02318608  0.11593038       0.011
   0.13911646 -0.11593038 -0.02318608       0.022
   0.12752342 -0.10433734 -0.01159304       0.022
   0.11593038 -0.09274430  0.00000000       0.011
   0.15070950 -0.12752342 -0.01159304       0.011
   0.13911646 -0.11593038 -0.00000000       0.011
  -0.00000000  0.04637215  0.09274430       0.011
   0.13911646 -0.09274430 -0.04637215       0.022
   0.12752342 -0.08115127 -0.03477911       0.022
   0.15070950 -0.10433734 -0.03477911       0.011
   0.13911646 -0.09274430 -0.02318608       0.022
   0.12752342 -0.08115127 -0.01159304       0.022
   0.11593038 -0.06955823 -0.00000000       0.011
   0.15070950 -0.10433734 -0.01159304       0.011
   0.13911646 -0.09274430  0.00000000       0.011
   0.15070950 -0.08115127 -0.01159304       0.011

 k-points in reciprocal lattice and weights: KPOINTS
   0.00000000  0.00000000  0.00000000       0.000
   0.07692308  0.00000000 -0.00000000       0.004
   0.15384615 -0.00000000  0.00000000       0.004
   0.23076923 -0.00000000 -0.00000000       0.004
   0.30769231 -0.00000000  0.00000000       0.004
   0.38461538 -0.00000000  0.00000000       0.004
   0.46153846 -0.00000000  0.00000000       0.004
   0.07692308  0.07692308 -0.00000000       0.003
   0.15384615  0.07692308 -0.00000000       0.011
   0.23076923  0.07692308 -0.00000000       0.011
   0.30769231  0.07692308 -0.00000000       0.011
   0.38461538  0.07692308  0.00000000       0.011
   0.46153846  0.07692308 -0.00000000       0.011
  -0.46153846  0.07692308  0.00000000       0.011
  -0.38461538  0.07692308 -0.00000000       0.011
  -0.30769231  0.07692308 -0.00000000       0.011
  -0.23076923  0.07692308  0.00000000       0.011
  -0.15384615  0.07692308 -0.00000000       0.011
  -0.07692308  0.07692308  0.00000000       0.005
   0.15384615  0.15384615 -0.00000000       0.003
   0.23076923  0.15384615 -0.00000000       0.011
   0.30769231  0.15384615  0.00000000       0.011
   0.38461538  0.15384615 -0.00000000       0.011
   0.46153846  0.15384615  0.00000000       0.011
  -0.46153846  0.15384615  0.00000000       0.011
  -0.38461538  0.15384615  0.00000000       0.011
  -0.30769231  0.15384615 -0.00000000       0.011
  -0.23076923  0.15384615 -0.00000000       0.011
  -0.15384615  0.15384615 -0.00000000       0.005
   0.23076923  0.23076923 -0.00000000       0.003
   0.30769231  0.23076923 -0.00000000       0.011
   0.38461538  0.23076923 -0.00000000       0.011
   0.46153846  0.23076923 -0.00000000       0.011
  -0.46153846  0.23076923  0.00000000       0.011
  -0.38461538  0.23076923 -0.00000000       0.011
  -0.30769231  0.23076923  0.00000000       0.011
  -0.23076923  0.23076923 -0.00000000       0.005
   0.30769231  0.30769231 -0.00000000       0.003
   0.38461538  0.30769231 -0.00000000       0.011
   0.46153846  0.30769231 -0.00000000       0.011
  -0.46153846  0.30769231 -0.00000000       0.011
  -0.38461538  0.30769231  0.00000000       0.011
  -0.30769231  0.30769231 -0.00000000       0.005
   0.38461538  0.38461538 -0.00000000       0.003
   0.46153846  0.38461538 -0.00000000       0.011
  -0.46153846  0.38461538  0.00000000       0.011
  -0.38461538  0.38461538 -0.00000000       0.005
   0.46153846  0.46153846 -0.00000000       0.003
  -0.46153846  0.46153846 -0.00000000       0.005
   0.23076923  0.15384615  0.07692308       0.011
   0.30769231  0.15384615  0.07692308       0.022
   0.38461538  0.15384615  0.07692308       0.022
   0.46153846  0.15384615  0.07692308       0.022
  -0.46153846  0.15384615  0.07692308       0.022
   0.30769231  0.23076923  0.07692308       0.011
   0.38461538  0.23076923  0.07692308       0.022
   0.46153846  0.23076923  0.07692308       0.022
  -0.46153846  0.23076923  0.07692308       0.022
  -0.38461538  0.23076923  0.07692308       0.022
  -0.30769231  0.23076923  0.07692308       0.022
  -0.23076923  0.23076923  0.07692308       0.022
  -0.15384615  0.23076923  0.07692308       0.011
   0.38461538  0.30769231  0.07692308       0.011
   0.46153846  0.30769231  0.07692308       0.022
  -0.46153846  0.30769231  0.07692308       0.022
  -0.38461538  0.30769231  0.07692308       0.022
  -0.30769231  0.30769231  0.07692308       0.022
  -0.23076923  0.30769231  0.07692308       0.011
   0.46153846  0.38461538  0.07692308       0.011
  -0.46153846  0.38461538  0.07692308       0.022
  -0.38461538  0.38461538  0.07692308       0.022
  -0.30769231  0.38461538  0.07692308       0.011
  -0.46153846  0.46153846  0.07692308       0.011
  -0.38461538  0.46153846  0.07692308       0.011
   0.46153846  0.30769231  0.15384615       0.011
  -0.46153846  0.30769231  0.15384615       0.022
  -0.38461538  0.30769231  0.15384615       0.022
  -0.46153846  0.38461538  0.15384615       0.011
  -0.38461538  0.38461538  0.15384615       0.022
  -0.30769231  0.38461538  0.15384615       0.022
  -0.23076923  0.38461538  0.15384615       0.011
  -0.38461538  0.46153846  0.15384615       0.011
  -0.30769231  0.46153846  0.15384615       0.011
  -0.30769231  0.46153846  0.23076923       0.011

 position of ions in fractional coordinates (direct lattice)
   0.25000000  0.25000000  0.25000000
   0.75000000  0.75000000  0.75000000
   0.00000000  0.00000000  0.00000000

 position of ions in cartesian coordinates  (Angst):
   1.75291179  1.75291179  1.75291179
   5.25873538  5.25873538  5.25873538
   0.00000000  0.00000000  0.00000000



--------------------------------------------------------------------------------------------------------


 k-point  1 :   0.0000 0.0000 0.0000  plane waves:    3695
 k-point  2 :   0.0769 0.0000-0.0000  plane waves:    3635
 k-point  3 :   0.1538-0.0000 0.0000  plane waves:    3620
 k-point  4 :   0.2308-0.0000-0.0000  plane waves:    3638
 k-point  5 :   0.3077-0.0000 0.0000  plane waves:    3636
 k-point  6 :   0.3846-0.0000 0.0000  plane waves:    3630
 k-point  7 :   0.4615-0.0000 0.0000  plane waves:    3624
 k-point  8 :   0.0769 0.0769-0.0000  plane waves:    3639
 k-point  9 :   0.1538 0.0769-0.0000  plane waves:    3631
 k-point 10 :   0.2308 0.0769-0.0000  plane waves:    3638
 k-point 11 :   0.3077 0.0769-0.0000  plane waves:    3627
 k-point 12 :   0.3846 0.0769 0.0000  plane waves:    3625
 k-point 13 :   0.4615 0.0769-0.0000  plane waves:    3634
 k-point 14 :  -0.4615 0.0769 0.0000  plane waves:    3636
 k-point 15 :  -0.3846 0.0769-0.0000  plane waves:    3633
 k-point 16 :  -0.3077 0.0769-0.0000  plane waves:    3636
 k-point 17 :  -0.2308 0.0769 0.0000  plane waves:    3634
 k-point 18 :  -0.1538 0.0769-0.0000  plane waves:    3640
 k-point 19 :  -0.0769 0.0769 0.0000  plane waves:    3633
 k-point 20 :   0.1538 0.1538-0.0000  plane waves:    3627
 k-point 21 :   0.2308 0.1538-0.0000  plane waves:    3624
 k-point 22 :   0.3077 0.1538 0.0000  plane waves:    3610
 k-point 23 :   0.3846 0.1538-0.0000  plane waves:    3632
 k-point 24 :   0.4615 0.1538 0.0000  plane waves:    3608
 k-point 25 :  -0.4615 0.1538 0.0000  plane waves:    3637
 k-point 26 :  -0.3846 0.1538 0.0000  plane waves:    3629
 k-point 27 :  -0.3077 0.1538-0.0000  plane waves:    3625
 k-point 28 :  -0.2308 0.1538-0.0000  plane waves:    3629
 k-point 29 :  -0.1538 0.1538-0.0000  plane waves:    3637
 k-point 30 :   0.2308 0.2308-0.0000  plane waves:    3611
 k-point 31 :   0.3077 0.2308-0.0000  plane waves:    3607
 k-point 32 :   0.3846 0.2308-0.0000  plane waves:    3611
 k-point 33 :   0.4615 0.2308-0.0000  plane waves:    3615
 k-point 34 :  -0.4615 0.2308 0.0000  plane waves:    3642
 k-point 35 :  -0.3846 0.2308-0.0000  plane waves:    3646
 k-point 36 :  -0.3077 0.2308 0.0000  plane waves:    3622
 k-point 37 :  -0.2308 0.2308-0.0000  plane waves:    3627
 k-point 38 :   0.3077 0.3077-0.0000  plane waves:    3607
 k-point 39 :   0.3846 0.3077-0.0000  plane waves:    3609
 k-point 40 :   0.4615 0.3077-0.0000  plane waves:    3612
 k-point 41 :  -0.4615 0.3077-0.0000  plane waves:    3622
 k-point 42 :  -0.3846 0.3077 0.0000  plane waves:    3620
 k-point 43 :  -0.3077 0.3077-0.0000  plane waves:    3611
 k-point 44 :   0.3846 0.3846-0.0000  plane waves:    3615
 k-point 45 :   0.4615 0.3846-0.0000  plane waves:    3618
 k-point 46 :  -0.4615 0.3846 0.0000  plane waves:    3624
 k-point 47 :  -0.3846 0.3846-0.0000  plane waves:    3612
 k-point 48 :   0.4615 0.4615-0.0000  plane waves:    3616
 k-point 49 :  -0.4615 0.4615-0.0000  plane waves:    3624
 k-point 50 :   0.2308 0.1538 0.0769  plane waves:    3636
 k-point 51 :   0.3077 0.1538 0.0769  plane waves:    3626
 k-point 52 :   0.3846 0.1538 0.0769  plane waves:    3625
 k-point 53 :   0.4615 0.1538 0.0769  plane waves:    3623
 k-point 54 :  -0.4615 0.1538 0.0769  plane waves:    3631
 k-point 55 :   0.3077 0.2308 0.0769  plane waves:    3616
 k-point 56 :   0.3846 0.2308 0.0769  plane waves:    3616
 k-point 57 :   0.4615 0.2308 0.0769  plane waves:    3616
 k-point 58 :  -0.4615 0.2308 0.0769  plane waves:    3624
 k-point 59 :  -0.3846 0.2308 0.0769  plane waves:    3631
 k-point 60 :  -0.3077 0.2308 0.0769  plane waves:    3623
 k-point 61 :  -0.2308 0.2308 0.0769  plane waves:    3623
 k-point 62 :  -0.1538 0.2308 0.0769  plane waves:    3624
 k-point 63 :   0.3846 0.3077 0.0769  plane waves:    3607
 k-point 64 :   0.4615 0.3077 0.0769  plane waves:    3612
 k-point 65 :  -0.4615 0.3077 0.0769  plane waves:    3619
 k-point 66 :  -0.3846 0.3077 0.0769  plane waves:    3618
 k-point 67 :  -0.3077 0.3077 0.0769  plane waves:    3621
 k-point 68 :  -0.2308 0.3077 0.0769  plane waves:    3619
 k-point 69 :   0.4615 0.3846 0.0769  plane waves:    3614
 k-point 70 :  -0.4615 0.3846 0.0769  plane waves:    3623
 k-point 71 :  -0.3846 0.3846 0.0769  plane waves:    3623
 k-point 72 :  -0.3077 0.3846 0.0769  plane waves:    3616
 k-point 73 :  -0.4615 0.4615 0.0769  plane waves:    3608
 k-point 74 :  -0.3846 0.4615 0.0769  plane waves:    3623
 k-point 75 :   0.4615 0.3077 0.1538  plane waves:    3629
 k-point 76 :  -0.4615 0.3077 0.1538  plane waves:    3621
 k-point 77 :  -0.3846 0.3077 0.1538  plane waves:    3625
 k-point 78 :  -0.4615 0.3846 0.1538  plane waves:    3619
 k-point 79 :  -0.3846 0.3846 0.1538  plane waves:    3621
 k-point 80 :  -0.3077 0.3846 0.1538  plane waves:    3636
 k-point 81 :  -0.2308 0.3846 0.1538  plane waves:    3627
 k-point 82 :  -0.3846 0.4615 0.1538  plane waves:    3616
 k-point 83 :  -0.3077 0.4615 0.1538  plane waves:    3626
 k-point 84 :  -0.3077 0.4615 0.2308  plane waves:    3637

 maximum and minimum number of plane-waves per node :       932      877

 maximum number of plane-waves:      3695
 maximum index in each direction:
   IXMAX=   11   IYMAX=   10   IZMAX=   10
   IXMIN=  -11   IYMIN=  -11   IZMIN=  -10


 parallel 3D FFT for wavefunctions:
    minimum data exchange during FFTs selected (reduces bandwidth)
 parallel 3D FFT for charge:
    minimum data exchange during FFTs selected (reduces bandwidth)


 total amount of memory used by VASP MPI-rank0   111652. kBytes
=======================================================================

   base      :      30000. kBytes
   nonl-proj :      60169. kBytes
   fftplans  :       8952. kBytes
   grid      :       4709. kBytes
   one-center:         49. kBytes
   wavefun   :       7773. kBytes

     INWAV:  cpu time    0.0002: real time    0.0005
 Broyden mixing: mesh for mixing (old mesh)
   NGX = 21   NGY = 21   NGZ = 21
  (NGX  = 96   NGY  = 96   NGZ  = 96)
  gives a total of   9261 points

 initial charge density was supplied:
 charge density of overlapping atoms calculated
 number of electron      39.0000000 magnetization
 keeping initial charge density in first step


--------------------------------------------------------------------------------------------------------


 Maximum index for augmentation-charges        38283 (set IRDMAX)


--------------------------------------------------------------------------------------------------------


 First call to EWALD:  gamma=   0.401
 Maximum number of real-space cells 3x 3x 3
 Maximum number of reciprocal cells 3x 3x 3

    FEWALD:  cpu time    0.0054: real time    0.0069


--------------------------------------- Iteration      1(   1)  ---------------------------------------


    POTLOK:  cpu time    0.0557: real time    0.1336
    SETDIJ:  cpu time    0.1297: real time    0.1304
     EDDAV:  cpu time    1.6888: real time    1.6984
       DOS:  cpu time    0.0037: real time    0.0045
    --------------------------------------------
      LOOP:  cpu time    1.8783: real time    1.9740

 eigenvalue-minimisations  :  4032
 total energy-change (2. order) : 0.4213938E+03  (-0.2210382E+04)
 number of electron      39.0000000 magnetization
 augmentation part       39.0000000 magnetization

 Free energy of the ion-electron system (eV)
  ---------------------------------------------------
  alpha Z        PSCENC =       182.46708572
  Ewald energy   TEWEN  =     -3400.43058212
  -Hartree energ DENC   =      -869.42739630
  -exchange      EXHF   =         0.00000000
  -V(xc)+E(xc)   XCENC  =        88.51419528
  PAW double counting   =      3513.29252893    -3436.88002192
  entropy T*S    EENTRO =        -0.00009884
  eigenvalues    EBANDS =       248.50596833
  atomic energy  EATOM  =      4095.35208632
  Solvation  Ediel_sol  =         0.00000000
  ---------------------------------------------------
  free energy    TOTEN  =       421.39376540 eV

  energy without entropy =      421.39386423  energy(sigma->0) =      421.39381482


--------------------------------------------------------------------------------------------------------




--------------------------------------- Iteration      1(   2)  ---------------------------------------


     EDDAV:  cpu time    1.8539: real time    1.8738
       DOS:  cpu time    0.0031: real time    0.0037
    --------------------------------------------
      LOOP:  cpu time    1.8569: real time    1.8724

 eigenvalue-minimisations  :  4688
 total energy-change (2. order) :-0.3938038E+03  (-0.3870200E+03)
 number of electron      39.0000000 magnetization
 augmentation part       39.0000000 magnetization

 Free energy of the ion-electron system (eV)
  ---------------------------------------------------
  alpha Z        PSCENC =       182.46708572
  Ewald energy   TEWEN  =     -3400.43058212
  -Hartree energ DENC   =      -869.42739630
  -exchange      EXHF   =         0.00000000
  -V(xc)+E(xc)   XCENC  =        88.51419528
  PAW double counting   =      3513.29252893    -3436.88002192
  entropy T*S    EENTRO =        -0.00062042
  eigenvalues    EBANDS =      -145.29735099
  atomic energy  EATOM  =      4095.35208632
  Solvation  Ediel_sol  =         0.00000000
  ---------------------------------------------------
  free energy    TOTEN  =        27.58992449 eV

  energy without entropy =       27.59054491  energy(sigma->0) =       27.59023470


--------------------------------------------------------------------------------------------------------




--------------------------------------- Iteration      1(   3)  ---------------------------------------


     EDDAV:  cpu time    1.9337: real time    1.9594
       DOS:  cpu time    0.0032: real time    0.0035
    --------------------------------------------
      LOOP:  cpu time    1.9370: real time    1.9622

 eigenvalue-minimisations  :  4904
 total energy-change (2. order) :-0.4745250E+02  (-0.4636226E+02)
 number of electron      39.0000000 magnetization
 augmentation part       39.0000000 magnetization

 Free energy of the ion-electron system (eV)
  ---------------------------------------------------
  alpha Z        PSCENC =       182.46708572
  Ewald energy   TEWEN  =     -3400.43058212
  -Hartree energ DENC   =      -869.42739630
  -exchange      EXHF   =         0.00000000
  -V(xc)+E(xc)   XCENC  =        88.51419528
  PAW double counting   =      3513.29252893    -3436.88002192
  entropy T*S    EENTRO =        -0.00170838
  eigenvalues    EBANDS =      -192.74875876
  atomic energy  EATOM  =      4095.35208632
  Solvation  Ediel_sol  =         0.00000000
  ---------------------------------------------------
  free energy    TOTEN  =       -19.86257124 eV

  energy without entropy =      -19.86086286  energy(sigma->0) =      -19.86171705


--------------------------------------------------------------------------------------------------------




--------------------------------------- Iteration      1(   4)  ---------------------------------------


     EDDAV:  cpu time    2.7770: real time    2.7962
       DOS:  cpu time    0.0031: real time    0.0034
    --------------------------------------------
      LOOP:  cpu time    2.7801: real time    2.8002

 eigenvalue-minimisations  :  7816
 total energy-change (2. order) :-0.5258191E+01  (-0.5224820E+01)
 number of electron      39.0000000 magnetization
 augmentation part       39.0000000 magnetization

 Free energy of the ion-electron system (eV)
  ---------------------------------------------------
  alpha Z        PSCENC =       182.46708572
  Ewald energy   TEWEN  =     -3400.43058212
  -Hartree energ DENC   =      -869.42739630
  -exchange      EXHF   =         0.00000000
  -V(xc)+E(xc)   XCENC  =        88.51419528
  PAW double counting   =      3513.29252893    -3436.88002192
  entropy T*S    EENTRO =        -0.00119874
  eigenvalues    EBANDS =      -198.00745920
  atomic energy  EATOM  =      4095.35208632
  Solvation  Ediel_sol  =         0.00000000
  ---------------------------------------------------
  free energy    TOTEN  =       -25.12076203 eV

  energy without entropy =      -25.11956330  energy(sigma->0) =      -25.12016266


--------------------------------------------------------------------------------------------------------




--------------------------------------- Iteration      1(   5)  ---------------------------------------


     EDDAV:  cpu time    2.1010: real time    2.1276
       DOS:  cpu time    0.0033: real time    0.0037
    CHARGE:  cpu time    0.4790: real time    0.4808
    MIXING:  cpu time    0.0082: real time    0.0085
    --------------------------------------------
      LOOP:  cpu time    2.5914: real time    2.6205

 eigenvalue-minimisations  :  5528
 total energy-change (2. order) :-0.1953656E+00  (-0.1947383E+00)
 number of electron      39.0000001 magnetization
 augmentation part        9.2336637 magnetization

 Broyden mixing:
  rms(total) = 0.15150E+01    rms(broyden)= 0.15150E+01
  rms(prec ) = 0.46645E+01
  weight for this iteration     100.00

 Free energy of the ion-electron system (eV)
  ---------------------------------------------------
  alpha Z        PSCENC =       182.46708572
  Ewald energy   TEWEN  =     -3400.43058212
  -Hartree energ DENC   =      -869.42739630
  -exchange      EXHF   =         0.00000000
  -V(xc)+E(xc)   XCENC  =        88.51419528
  PAW double counting   =      3513.29252893    -3436.88002192
  entropy T*S    EENTRO =        -0.00128969
  eigenvalues    EBANDS =      -198.20273380
  atomic energy  EATOM  =      4095.35208632
  Solvation  Ediel_sol  =         0.00000000
  ---------------------------------------------------
  free energy    TOTEN  =       -25.31612759 eV

  energy without entropy =      -25.31483790  energy(sigma->0) =      -25.31548274


--------------------------------------------------------------------------------------------------------




--------------------------------------- Iteration      1(   6)  ---------------------------------------


    POTLOK:  cpu time    0.0534: real time    0.0710
    SETDIJ:  cpu time    0.1169: real time    0.1177
     EDDAV:  cpu time    2.2894: real time    2.2897
       DOS:  cpu time    0.0031: real time    0.0039
    CHARGE:  cpu time    0.4679: real time    0.4682
    MIXING:  cpu time    0.0055: real time    0.0057
    --------------------------------------------
      LOOP:  cpu time    2.9363: real time    2.9578

 eigenvalue-minimisations  :  6040
 total energy-change (2. order) :-0.1171540E+02  (-0.2750415E+02)
 number of electron      39.0000000 magnetization
 augmentation part        7.0392432 magnetization

 Broyden mixing:
  rms(total) = 0.22269E+01    rms(broyden)= 0.22269E+01
  rms(prec ) = 0.64250E+01
  weight for this iteration     100.00

 eigenvalues of (default mixing * dielectric matrix)
  average eigenvalue GAMMA=   0.3831
  0.3831

 Free energy of the ion-electron system (eV)
  ---------------------------------------------------
  alpha Z        PSCENC =       182.46708572
  Ewald energy   TEWEN  =     -3400.43058212
  -Hartree energ DENC   =      -886.15174488
  -exchange      EXHF   =         0.00000000
  -V(xc)+E(xc)   XCENC  =        89.37310172
  PAW double counting   =      3707.51735542    -3629.65469426
  entropy T*S    EENTRO =        -0.00016248
  eigenvalues    EBANDS =      -195.50397719
  atomic energy  EATOM  =      4095.35208632
  Solvation  Ediel_sol  =         0.00000000
  ---------------------------------------------------
  free energy    TOTEN  =       -37.03153177 eV

  energy without entropy =      -37.03136929  energy(sigma->0) =      -37.03145053


--------------------------------------------------------------------------------------------------------




--------------------------------------- Iteration      1(   7)  ---------------------------------------


    POTLOK:  cpu time    0.0445: real time    0.0726
    SETDIJ:  cpu time    0.1201: real time    0.1207
     EDDAV:  cpu time    2.1518: real time    2.1523
       DOS:  cpu time    0.0031: real time    0.0035
    CHARGE:  cpu time    0.3956: real time    0.3961
    MIXING:  cpu time    0.0053: real time    0.0054
    --------------------------------------------
      LOOP:  cpu time    2.7203: real time    2.7508

 eigenvalue-minimisations  :  5760
 total energy-change (2. order) : 0.1185618E+02  (-0.2815277E+01)
 number of electron      39.0000000 magnetization
 augmentation part        7.2834757 magnetization

 Broyden mixing:
  rms(total) = 0.13281E+01    rms(broyden)= 0.13281E+01
  rms(prec ) = 0.40113E+01
  weight for this iteration     100.00

 eigenvalues of (default mixing * dielectric matrix)
  average eigenvalue GAMMA=   0.6997
  0.6997  0.6997

 Free energy of the ion-electron system (eV)
  ---------------------------------------------------
  alpha Z        PSCENC =       182.46708572
  Ewald energy   TEWEN  =     -3400.43058212
  -Hartree energ DENC   =      -870.13063440
  -exchange      EXHF   =         0.00000000
  -V(xc)+E(xc)   XCENC  =        88.63309884
  PAW double counting   =      3768.51937566    -3695.24273575
  entropy T*S    EENTRO =        -0.00039065
  eigenvalues    EBANDS =      -194.34265482
  atomic energy  EATOM  =      4095.35208632
  Solvation  Ediel_sol  =         0.00000000
  ---------------------------------------------------
  free energy    TOTEN  =       -25.17535120 eV

  energy without entropy =      -25.17496055  energy(sigma->0) =      -25.17515588


--------------------------------------------------------------------------------------------------------




--------------------------------------- Iteration      1(   8)  ---------------------------------------


    POTLOK:  cpu time    0.0442: real time    0.0754
    SETDIJ:  cpu time    0.1231: real time    0.1233
     EDDAV:  cpu time    2.2380: real time    2.2385
       DOS:  cpu time    0.0034: real time    0.0577
    CHARGE:  cpu time    0.4095: real time    0.4101
    MIXING:  cpu time    0.0056: real time    0.0069
    --------------------------------------------
      LOOP:  cpu time    2.8237: real time    2.9099

 eigenvalue-minimisations  :  6024
 total energy-change (2. order) : 0.1177981E+01  (-0.4867679E+01)
 number of electron      39.0000001 magnetization
 augmentation part        9.2889659 magnetization

 Broyden mixing:
  rms(total) = 0.93995E+00    rms(broyden)= 0.93995E+00
  rms(prec ) = 0.29349E+01
  weight for this iteration     100.00

 eigenvalues of (default mixing * dielectric matrix)
  average eigenvalue GAMMA=   0.8037
  1.3852  0.5129  0.5129

 Free energy of the ion-electron system (eV)
  ---------------------------------------------------
  alpha Z        PSCENC =       182.46708572
  Ewald energy   TEWEN  =     -3400.43058212
  -Hartree energ DENC   =      -856.54886602
  -exchange      EXHF   =         0.00000000
  -V(xc)+E(xc)   XCENC  =        88.05183876
  PAW double counting   =      3764.36257581    -3693.90974135
  entropy T*S    EENTRO =        -0.00181968
  eigenvalues    EBANDS =      -203.33994783
  atomic energy  EATOM  =      4095.35208632
  Solvation  Ediel_sol  =         0.00000000
  ---------------------------------------------------
  free energy    TOTEN  =       -23.99737040 eV

  energy without entropy =      -23.99555072  energy(sigma->0) =      -23.99646056


--------------------------------------------------------------------------------------------------------




--------------------------------------- Iteration      1(   9)  ---------------------------------------


    POTLOK:  cpu time    0.0437: real time    0.0907
    SETDIJ:  cpu time    0.1145: real time    0.1153
     EDDAV:  cpu time    2.2670: real time    2.2677
       DOS:  cpu time    0.0033: real time    0.0042
    CHARGE:  cpu time    0.4091: real time    0.4093
    MIXING:  cpu time    0.0052: real time    0.0054
    --------------------------------------------
      LOOP:  cpu time    2.8428: real time    2.8938

 eigenvalue-minimisations  :  6128
 total energy-change (2. order) : 0.8620875E+00  (-0.8733558E+00)
 number of electron      39.0000000 magnetization
 augmentation part        8.3548433 magnetization

 Broyden mixing:
  rms(total) = 0.23702E+00    rms(broyden)= 0.23702E+00
  rms(prec ) = 0.56873E+00
  weight for this iteration     100.00

 eigenvalues of (default mixing * dielectric matrix)
  average eigenvalue GAMMA=   0.8297
  1.7374  0.5717  0.5717  0.4382

 Free energy of the ion-electron system (eV)
  ---------------------------------------------------
  alpha Z        PSCENC =       182.46708572
  Ewald energy   TEWEN  =     -3400.43058212
  -Hartree energ DENC   =      -861.87596574
  -exchange      EXHF   =         0.00000000
  -V(xc)+E(xc)   XCENC  =        88.29998193
  PAW double counting   =      3832.35235436    -3762.21967864
  entropy T*S    EENTRO =        -0.00198140
  eigenvalues    EBANDS =      -197.07858334
  atomic energy  EATOM  =      4095.35208632
  Solvation  Ediel_sol  =         0.00000000
  ---------------------------------------------------
  free energy    TOTEN  =       -23.13528291 eV

  energy without entropy =      -23.13330152  energy(sigma->0) =      -23.13429221


--------------------------------------------------------------------------------------------------------




--------------------------------------- Iteration      1(  10)  ---------------------------------------


    POTLOK:  cpu time    0.0437: real time    0.0773
    SETDIJ:  cpu time    0.1169: real time    0.1182
     EDDAV:  cpu time    2.2833: real time    2.2843
       DOS:  cpu time    0.0033: real time    0.0040
    CHARGE:  cpu time    0.4079: real time    0.4091
    MIXING:  cpu time    0.0054: real time    0.0061
    --------------------------------------------
      LOOP:  cpu time    2.8606: real time    2.9011

 eigenvalue-minimisations  :  6168
 total energy-change (2. order) :-0.1151817E+00  (-0.2486368E+00)
 number of electron      39.0000000 magnetization
 augmentation part        7.9118039 magnetization

 Broyden mixing:
  rms(total) = 0.31814E+00    rms(broyden)= 0.31814E+00
  rms(prec ) = 0.10072E+01
  weight for this iteration     100.00

 eigenvalues of (default mixing * dielectric matrix)
  average eigenvalue GAMMA=   0.9370
  1.9017  1.1473  0.5058  0.5058  0.6244

 Free energy of the ion-electron system (eV)
  ---------------------------------------------------
  alpha Z        PSCENC =       182.46708572
  Ewald energy   TEWEN  =     -3400.43058212
  -Hartree energ DENC   =      -862.73068474
  -exchange      EXHF   =         0.00000000
  -V(xc)+E(xc)   XCENC  =        88.35679310
  PAW double counting   =      3898.00943029    -3828.58234398
  entropy T*S    EENTRO =        -0.00147411
  eigenvalues    EBANDS =      -195.69077508
  atomic energy  EATOM  =      4095.35208632
  Solvation  Ediel_sol  =         0.00000000
  ---------------------------------------------------
  free energy    TOTEN  =       -23.25046461 eV

  energy without entropy =      -23.24899050  energy(sigma->0) =      -23.24972756


--------------------------------------------------------------------------------------------------------




--------------------------------------- Iteration      1(  11)  ---------------------------------------


    POTLOK:  cpu time    0.0436: real time    0.0906
    SETDIJ:  cpu time    0.1166: real time    0.1175
     EDDAV:  cpu time    2.2263: real time    2.2269
       DOS:  cpu time    0.0033: real time    0.0053
    CHARGE:  cpu time    0.4081: real time    0.4083
    MIXING:  cpu time    0.0057: real time    0.0062
    --------------------------------------------
      LOOP:  cpu time    2.8038: real time    2.8522

 eigenvalue-minimisations  :  6000
 total energy-change (2. order) : 0.1136494E+00  (-0.6148052E-01)
 number of electron      39.0000000 magnetization
 augmentation part        8.1451257 magnetization

 Broyden mixing:
  rms(total) = 0.96157E-01    rms(broyden)= 0.96157E-01
  rms(prec ) = 0.30397E+00
  weight for this iteration     100.00

 eigenvalues of (default mixing * dielectric matrix)
  average eigenvalue GAMMA=   1.0043
  1.8266  1.8266  0.5148  0.5148  0.6715  0.6715

 Free energy of the ion-electron system (eV)
  ---------------------------------------------------
  alpha Z        PSCENC =       182.46708572
  Ewald energy   TEWEN  =     -3400.43058212
  -Hartree energ DENC   =      -860.90142433
  -exchange      EXHF   =         0.00000000
  -V(xc)+E(xc)   XCENC  =        88.28205153
  PAW double counting   =      3892.90156567    -3823.77252107
  entropy T*S    EENTRO =        -0.00214929
  eigenvalues    EBANDS =      -197.03292761
  atomic energy  EATOM  =      4095.35208632
  Solvation  Ediel_sol  =         0.00000000
  ---------------------------------------------------
  free energy    TOTEN  =       -23.13681520 eV

  energy without entropy =      -23.13466590  energy(sigma->0) =      -23.13574055


--------------------------------------------------------------------------------------------------------




--------------------------------------- Iteration      1(  12)  ---------------------------------------


    POTLOK:  cpu time    0.0439: real time    0.0781
    SETDIJ:  cpu time    0.1179: real time    0.1181
     EDDAV:  cpu time    2.6146: real time    2.6151
       DOS:  cpu time    0.0032: real time    0.0047
    CHARGE:  cpu time    0.4140: real time    0.4143
    MIXING:  cpu time    0.0057: real time    0.0058
    --------------------------------------------
      LOOP:  cpu time    3.1993: real time    3.2376

 eigenvalue-minimisations  :  7296
 total energy-change (2. order) : 0.3633124E-02  (-0.2369568E-01)
 number of electron      39.0000000 magnetization
 augmentation part        8.2801363 magnetization

 Broyden mixing:
  rms(total) = 0.60777E-01    rms(broyden)= 0.60776E-01
  rms(prec ) = 0.17135E+00
  weight for this iteration     100.00

 eigenvalues of (default mixing * dielectric matrix)
  average eigenvalue GAMMA=   1.1998
  2.4556  2.4556  0.9219  0.9219  0.5139  0.5139  0.6155

 Free energy of the ion-electron system (eV)
  ---------------------------------------------------
  alpha Z        PSCENC =       182.46708572
  Ewald energy   TEWEN  =     -3400.43058212
  -Hartree energ DENC   =      -860.20291790
  -exchange      EXHF   =         0.00000000
  -V(xc)+E(xc)   XCENC  =        88.25035783
  PAW double counting   =      3890.16106906    -3821.13193874
  entropy T*S    EENTRO =        -0.00252730
  eigenvalues    EBANDS =      -197.59581494
  atomic energy  EATOM  =      4095.35208632
  Solvation  Ediel_sol  =         0.00000000
  ---------------------------------------------------
  free energy    TOTEN  =       -23.13318207 eV

  energy without entropy =      -23.13065477  energy(sigma->0) =      -23.13191842


--------------------------------------------------------------------------------------------------------




--------------------------------------- Iteration      1(  13)  ---------------------------------------


    POTLOK:  cpu time    0.0440: real time    0.0828
    SETDIJ:  cpu time    0.1156: real time    0.1159
     EDDAV:  cpu time    2.3627: real time    2.3631
       DOS:  cpu time    0.0035: real time    0.0055
    CHARGE:  cpu time    0.4088: real time    0.4092
    MIXING:  cpu time    0.0058: real time    0.0059
    --------------------------------------------
      LOOP:  cpu time    2.9403: real time    2.9809

 eigenvalue-minimisations  :  6440
 total energy-change (2. order) :-0.6527815E-02  (-0.2149392E-02)
 number of electron      39.0000000 magnetization
 augmentation part        8.3094642 magnetization

 Broyden mixing:
  rms(total) = 0.92023E-01    rms(broyden)= 0.92023E-01
  rms(prec ) = 0.28204E+00
  weight for this iteration     100.00

 eigenvalues of (default mixing * dielectric matrix)
  average eigenvalue GAMMA=   1.1653
  2.2760  2.2760  1.3114  0.5152  0.5152  1.0125  0.8017  0.6144

 Free energy of the ion-electron system (eV)
  ---------------------------------------------------
  alpha Z        PSCENC =       182.46708572
  Ewald energy   TEWEN  =     -3400.43058212
  -Hartree energ DENC   =      -860.31864659
  -exchange      EXHF   =         0.00000000
  -V(xc)+E(xc)   XCENC  =        88.24892613
  PAW double counting   =      3888.54216215    -3819.46569429
  entropy T*S    EENTRO =        -0.00254591
  eigenvalues    EBANDS =      -197.53250130
  atomic energy  EATOM  =      4095.35208632
  Solvation  Ediel_sol  =         0.00000000
  ---------------------------------------------------
  free energy    TOTEN  =       -23.13970989 eV

  energy without entropy =      -23.13716398  energy(sigma->0) =      -23.13843694


--------------------------------------------------------------------------------------------------------




--------------------------------------- Iteration      1(  14)  ---------------------------------------


    POTLOK:  cpu time    0.0458: real time    0.0742
    SETDIJ:  cpu time    0.1196: real time    0.1201
     EDDAV:  cpu time    2.2754: real time    2.2758
       DOS:  cpu time    0.0033: real time    0.0045
    CHARGE:  cpu time    0.4136: real time    0.4138
    MIXING:  cpu time    0.0060: real time    0.0061
    --------------------------------------------
      LOOP:  cpu time    2.8637: real time    2.8952

 eigenvalue-minimisations  :  6120
 total energy-change (2. order) : 0.9288787E-02  (-0.7545230E-02)
 number of electron      39.0000000 magnetization
 augmentation part        8.2285280 magnetization

 Broyden mixing:
  rms(total) = 0.44625E-02    rms(broyden)= 0.44618E-02
  rms(prec ) = 0.10042E-01
  weight for this iteration     100.00

 eigenvalues of (default mixing * dielectric matrix)
  average eigenvalue GAMMA=   1.1934
  2.4705  2.4705  1.2832  1.2832  0.5150  0.5150  0.6066  0.7985  0.7985

 Free energy of the ion-electron system (eV)
  ---------------------------------------------------
  alpha Z        PSCENC =       182.46708572
  Ewald energy   TEWEN  =     -3400.43058212
  -Hartree energ DENC   =      -860.97576125
  -exchange      EXHF   =         0.00000000
  -V(xc)+E(xc)   XCENC  =        88.27373856
  PAW double counting   =      3893.71165718    -3824.51976504
  entropy T*S    EENTRO =        -0.00239801
  eigenvalues    EBANDS =      -197.00648245
  atomic energy  EATOM  =      4095.35208632
  Solvation  Ediel_sol  =         0.00000000
  ---------------------------------------------------
  free energy    TOTEN  =       -23.13042110 eV

  energy without entropy =      -23.12802309  energy(sigma->0) =      -23.12922210


--------------------------------------------------------------------------------------------------------




--------------------------------------- Iteration      1(  15)  ---------------------------------------


    POTLOK:  cpu time    0.0457: real time    0.0719
    SETDIJ:  cpu time    0.1200: real time    0.1202
     EDDAV:  cpu time    2.4645: real time    2.4648
       DOS:  cpu time    0.0034: real time    0.0037
    CHARGE:  cpu time    0.4090: real time    0.4093
    MIXING:  cpu time    0.0063: real time    0.0064
    --------------------------------------------
      LOOP:  cpu time    3.0489: real time    3.0745

 eigenvalue-minimisations  :  6832
 total energy-change (2. order) :-0.1767836E-03  (-0.2200517E-03)
 number of electron      39.0000000 magnetization
 augmentation part        8.2316454 magnetization

 Broyden mixing:
  rms(total) = 0.31086E-02    rms(broyden)= 0.31086E-02
  rms(prec ) = 0.57045E-02
  weight for this iteration     100.00

 eigenvalues of (default mixing * dielectric matrix)
  average eigenvalue GAMMA=   1.1403
  2.9033  1.9652  0.5150  0.5150  1.0335  1.0335  1.0620  1.0620  0.7024  0.6110

 Free energy of the ion-electron system (eV)
  ---------------------------------------------------
  alpha Z        PSCENC =       182.46708572
  Ewald energy   TEWEN  =     -3400.43058212
  -Hartree energ DENC   =      -861.04906444
  -exchange      EXHF   =         0.00000000
  -V(xc)+E(xc)   XCENC  =        88.27569357
  PAW double counting   =      3893.36352022    -3824.11624856
  entropy T*S    EENTRO =        -0.00243410
  eigenvalues    EBANDS =      -196.99065450
  atomic energy  EATOM  =      4095.35208632
  Solvation  Ediel_sol  =         0.00000000
  ---------------------------------------------------
  free energy    TOTEN  =       -23.13059789 eV

  energy without entropy =      -23.12816379  energy(sigma->0) =      -23.12938084


--------------------------------------------------------------------------------------------------------




--------------------------------------- Iteration      1(  16)  ---------------------------------------


    POTLOK:  cpu time    0.0494: real time    0.0683
    SETDIJ:  cpu time    0.1213: real time    0.1214
     EDDAV:  cpu time    2.3699: real time    2.3704
       DOS:  cpu time    0.0034: real time    0.0044
    CHARGE:  cpu time    0.4244: real time    0.4248
    MIXING:  cpu time    0.0067: real time    0.0080
    --------------------------------------------
      LOOP:  cpu time    2.9750: real time    2.9975

 eigenvalue-minimisations  :  6464
 total energy-change (2. order) :-0.5655183E-04  (-0.6161352E-04)
 number of electron      39.0000000 magnetization
 augmentation part        8.2245356 magnetization

 Broyden mixing:
  rms(total) = 0.76223E-02    rms(broyden)= 0.76223E-02
  rms(prec ) = 0.20553E-01
  weight for this iteration     100.00

 eigenvalues of (default mixing * dielectric matrix)
  average eigenvalue GAMMA=   1.2612
  2.8614  1.7343  1.7343  1.8940  0.5150  0.5150  1.3020  0.6090  0.8333  0.8333
  1.0415

 Free energy of the ion-electron system (eV)
  ---------------------------------------------------
  alpha Z        PSCENC =       182.46708572
  Ewald energy   TEWEN  =     -3400.43058212
  -Hartree energ DENC   =      -861.07383354
  -exchange      EXHF   =         0.00000000
  -V(xc)+E(xc)   XCENC  =        88.27729080
  PAW double counting   =      3893.84410878    -3824.60494259
  entropy T*S    EENTRO =        -0.00242253
  eigenvalues    EBANDS =      -196.95944527
  atomic energy  EATOM  =      4095.35208632
  Solvation  Ediel_sol  =         0.00000000
  ---------------------------------------------------
  free energy    TOTEN  =       -23.13065444 eV

  energy without entropy =      -23.12823191  energy(sigma->0) =      -23.12944317


--------------------------------------------------------------------------------------------------------




--------------------------------------- Iteration      1(  17)  ---------------------------------------


    POTLOK:  cpu time    0.0447: real time    0.0745
    SETDIJ:  cpu time    0.1215: real time    0.1217
     EDDAV:  cpu time    2.2105: real time    2.2108
       DOS:  cpu time    0.0034: real time    0.0040
    CHARGE:  cpu time    0.4088: real time    0.4090
    MIXING:  cpu time    0.0066: real time    0.0070
    --------------------------------------------
      LOOP:  cpu time    2.7956: real time    2.8270

 eigenvalue-minimisations  :  5936
 total energy-change (2. order) :-0.3787246E-03  (-0.2950247E-03)
 number of electron      39.0000000 magnetization
 augmentation part        8.2288049 magnetization

 Broyden mixing:
  rms(total) = 0.17940E-02    rms(broyden)= 0.17939E-02
  rms(prec ) = 0.46603E-02
  weight for this iteration     100.00

 eigenvalues of (default mixing * dielectric matrix)
  average eigenvalue GAMMA=   1.2045
  2.8130  1.9992  1.5631  1.5631  1.4240  0.5150  0.5150  1.0354  0.8462  0.8462
  0.6082  0.7254

 Free energy of the ion-electron system (eV)
  ---------------------------------------------------
  alpha Z        PSCENC =       182.46708572
  Ewald energy   TEWEN  =     -3400.43058212
  -Hartree energ DENC   =      -860.94427146
  -exchange      EXHF   =         0.00000000
  -V(xc)+E(xc)   XCENC  =        88.27375924
  PAW double counting   =      3893.21981997    -3824.01913513
  entropy T*S    EENTRO =        -0.00243698
  eigenvalues    EBANDS =      -197.04735871
  atomic energy  EATOM  =      4095.35208632
  Solvation  Ediel_sol  =         0.00000000
  ---------------------------------------------------
  free energy    TOTEN  =       -23.13103316 eV

  energy without entropy =      -23.12859618  energy(sigma->0) =      -23.12981467


--------------------------------------------------------------------------------------------------------




--------------------------------------- Iteration      1(  18)  ---------------------------------------


    POTLOK:  cpu time    0.0556: real time    0.0810
    SETDIJ:  cpu time    0.1210: real time    0.1212
     EDDAV:  cpu time    2.4711: real time    2.4715
       DOS:  cpu time    0.0033: real time    0.0036
    CHARGE:  cpu time    0.4147: real time    0.4150
    MIXING:  cpu time    0.0068: real time    0.0070
    --------------------------------------------
      LOOP:  cpu time    3.0724: real time    3.0991

 eigenvalue-minimisations  :  6784
 total energy-change (2. order) :-0.3357297E-04  (-0.4176964E-04)
 number of electron      39.0000000 magnetization
 augmentation part        8.2260714 magnetization

 Broyden mixing:
  rms(total) = 0.15507E-02    rms(broyden)= 0.15506E-02
  rms(prec ) = 0.46987E-02
  weight for this iteration     100.00

 eigenvalues of (default mixing * dielectric matrix)
  average eigenvalue GAMMA=   1.3073
  2.3353  2.3353  1.6473  1.6473  1.8780  1.8780  0.5150  0.5150  0.6088  1.0621
  0.8602  0.8602  0.8526

 Free energy of the ion-electron system (eV)
  ---------------------------------------------------
  alpha Z        PSCENC =       182.46708572
  Ewald energy   TEWEN  =     -3400.43058212
  -Hartree energ DENC   =      -860.97134754
  -exchange      EXHF   =         0.00000000
  -V(xc)+E(xc)   XCENC  =        88.27460346
  PAW double counting   =      3893.46053010    -3824.24810420
  entropy T*S    EENTRO =        -0.00243101
  eigenvalues    EBANDS =      -197.03290747
  atomic energy  EATOM  =      4095.35208632
  Solvation  Ediel_sol  =         0.00000000
  ---------------------------------------------------
  free energy    TOTEN  =       -23.13106674 eV

  energy without entropy =      -23.12863572  energy(sigma->0) =      -23.12985123


--------------------------------------------------------------------------------------------------------




[...]
  212              fftbas_plan_mpi                       0.098601                     12   6
  213                dfftw_execute                         0.039953                   36   7
  214                map_backward                          0.006884                   12   7
  215                  map_gather                            0.001626                  6   8
  216                  m_alltoallv_z                         0.002823                  6   8
  217                  map_scatter                           0.002138                  6   8
  218                map_forward                           0.048375                   12   7
  219                  map_gather                            0.028246                  6   8
  220                  m_alltoallv_z                         0.008392                  6   8
  221                  map_scatter                           0.011443                  6   8
  222            M_sumb_d                              0.003653                        6   5
  223          M_sumb_d                              0.000025                          1   4
  224        setdij_                               2.080282                           20   3
  225          fft3d_mpi                             0.348602                         40   4
  226            fftbas_plan_mpi                       0.320000                       40   5
  227              dfftw_execute                         0.134050                    120   6
  228              map_backward                          0.020733                     40   6
  229                map_gather                            0.005565                   20   7
  230                m_alltoallv_z                         0.006869                   20   7
  231                map_scatter                           0.007270                   20   7
  232              map_forward                           0.154557                     40   6
  233                map_gather                            0.084810                   20   7
  234                m_alltoallv_z                         0.028580                   20   7
  235                map_scatter                           0.040047                   20   7
  236          M_sumb_d                              0.007726                         20   4
  237        set_dd_magatom                        0.000004                            1   3
  238        set_dd_paw                            0.018136                            1   3
  239          set_rsgf_all                          0.000004                          1   4
  240          M_sumb_d                              0.017838                          8   4
  241        strkin                                0.001139                            1   3
  242          M_sumb_d                              0.000384                          1   4
  243        strelo                                0.003793                            1   3
  244          M_sumb_d                              0.000452                          2   4
  245        strenl                                1.266195                            1   3
  246          spher                                 0.953699                         19   4
  247          phase                                 0.014740                        189   4
  248          proj1                                 0.271466                       1134   4
  249            crexp_mul_wave                        0.035929                     3402   5
  250            M_sumb_d                              0.070185                     1134   5
  251          M_sumb_d                              0.002702                          1   4
  252        M_sumb_d                              0.000242                            6   3
  253        fft3d_mpi                             0.022241                           11   3
  254          fftbas_plan_mpi                       0.020517                         11   4
  255            dfftw_execute                         0.007542                       33   5
  256            map_forward                           0.004433                       10   5
  257              map_gather                            0.001510                      5   6
  258              m_alltoallv_z                         0.001525                      5   6
  259              map_scatter                           0.001134                      5   6
  260            map_backward                          0.005866                       12   5
  261              map_gather                            0.001560                      6   6
  262              m_alltoallv_z                         0.001868                      6   6
  263              map_scatter                           0.002137                      6   6
  264        ggaall_grid                           0.002654                            1   3
  265        forhar                                0.010449                            2   3
  266          M_sumb_d                              0.000130                          2   4
  267        strehar                               0.004183                            1   3
  268          M_sumb_d                              0.000183                          1   4
  269        chggra                                0.009475                            1   3
  270          fft3d_mpi                             0.005969                          3   4
  271            fftbas_plan_mpi                       0.005497                        3   5
  272              dfftw_execute                         0.002126                      9   6
  273              map_backward                          0.000992                      2   6
  274                map_gather                            0.000249                    1   7
  275                m_alltoallv_z                         0.000323                    1   7
  276                map_scatter                           0.000363                    1   7
  277              map_forward                           0.001617                      4   6
  278                map_gather                            0.000552                    2   7
  279                m_alltoallv_z                         0.000553                    2   7
  280                map_scatter                           0.000408                    2   7
  281          M_sumb_d                              0.000121                          3   4
  282        brmix                                 0.014012                            1   3
  283          M_sumb_d                              0.000259                          6   4
  284          brpre                                 0.000057                          1   4
  285          setg0                                 0.002321                          1   4
  286          broyd                                 0.003310                          1   4
  287            M_sumb_d                              0.000892                       23   5
  288            brget                                 0.000437                       89   5
  289            brsav                                 0.000099                       21   5
  290          M_bcast_z                             0.006500                          1   4
  291          M_bcast_d                             0.000061                          1   4
  292        M_bcast_d                             0.000040                            2   3
  293      potlok                                0.039950                              1   2
  294        fft3d_mpi                             0.026200                           13   3
  295          fftbas_plan_mpi                       0.024015                         13   4
  296            dfftw_execute                         0.008770                       39   5
  297            map_forward                           0.005661                       14   5
  298              map_gather                            0.001659                      8   6
  299              m_alltoallv_z                         0.002138                      8   6
  300              map_scatter                           0.001490                      8   6
  301            map_backward                          0.006441                       12   5
  302              map_gather                            0.001941                      6   6
  303              m_alltoallv_z                         0.002064                      6   6
  304              map_scatter                           0.002130                      6   6
  305        ggaall_grid                           0.002682                            1   3
  306        M_sumb_d                              0.000328                            6   3
  307        M_bcast_d                             0.000158                            1   3
  308      potlok_metagga                        0.000004                              1   2
  309      set_dd_magatom                        0.000004                              1   2
  310      set_dd_paw                            0.000523                              1   2
  311        set_rsgf_all                          0.000004                            1   3
  312        M_sumb_d                              0.000331                            8   3
  313      densta                                0.002682                              1   2
  314        M_sumb_d                              0.000923                           45   3
  315      lprj_proall                           0.000008                              1   2

 Flat profile
 ============

             routine name                   CPU           calls
 ---------------------------------------------------------------
 total_time                             14.010289           1
 dfftw_execute                          10.479147       70287
 eddav                                   7.669202          21
 fftbas_plan_mpi                         4.942286       23431
 set_charge                              4.140994          17
 setdij_                                 4.031635          45
 M_sumb_d                                3.796506       63479
 m_alltoallv_z                           2.892714       23464
 pdssyex_zheevx                          1.955607         441
 vhamil                                  1.782954       10522
 M_alltoall_d                            1.740235       76930
 elmin                                   1.495598           1
 fftwav_mpi                              1.484487       12534
 proj1                                   1.472879        9136
 map_forward                             1.456822       25426
 gemm                                    1.390857       31566
 orth1                                   1.360898       15804
 map_gather                              1.218612       23464
 map_scatter                             1.180742       23464
 spher                                   1.106673          20
 vnlac0                                  0.712110       10522
 redis_pw                                0.674015       29844
 hamiltmu                                0.597184        5261
 M_bcast_z                               0.594162        7822
 redis_proj                              0.578018       37741
 w1_copy                                 0.495118       31566
 fft3d_mpi                               0.429247       23429
 work_mul_crexp                          0.399634       31566
 eccp                                    0.393768        2646
 map_backward                            0.386751       21432
 fftext_mpi                              0.368288       10522
 crexp_mul_wave                          0.309722       27408
 pw_charge                               0.283828        2012
 crpa_reader                             0.256550           1
 kinhamil                                0.221332       10522
 overl                                   0.211092       18419
 potlok                                  0.179947          18
 M_bcast_d                               0.174392        5303
 overl1                                  0.128828       10522
 apply_precond                           0.118388        7876
 setup_precond                           0.092847        2646
 w1_projall                              0.086969        3938
 lincom                                  0.083996         462
 soft_charge                             0.059783          17
 fornl                                   0.054946           1
 force_and_stress                        0.053660           1
 phase                                   0.051713         673
 ggaall_grid                             0.050674          19
 truncate_high_frequency_w1              0.045332       13168
 densta                                  0.037120          22
 setg0                                   0.033579          18
 brmix                                   0.026972          17
 strenl                                  0.023588           1
 broyd                                   0.017831          17
 forhar                                  0.010319           2
 depsum                                  0.007378          17
 forloc                                  0.005099           1
 set_dd_paw                              0.004483          19
 strehar                                 0.004000           1
 brget                                   0.003963         827
 chggra                                  0.003385           1
 strelo                                  0.003341           1
 orthch                                  0.002234           1
 choleski                                0.001865          21
 brgrid                                  0.001701           1
 proj                                    0.001683          21
 brsav                                   0.001575         224
 brpre                                   0.001120          17
 strkin                                  0.000755           1
 fordep                                  0.000120           1
 vectorpot                               0.000092          18
 set_rsgf_all                            0.000086          19
 set_dd_magatom                          0.000068          19
 potlok_metagga                          0.000065          18
 set_kineden                             0.000062          16
 rotate_active_occupied_orbital          0.000015           1
 lprj_proall                             0.000008           1
 redis_pw_over_bands                     0.000003           1
 ---------------------------------------------------------------
  summed up times    77.8939449787140

 Accumulative profile
 ====================

             routine name                   CPU           calls
 ---------------------------------------------------------------
 total_time                             77.893945           1
 elmin                                  58.044011           1
 eddav                                  47.007749          21
 fft3d_mpi                              22.931713       23429
 fftbas_plan_mpi                        22.557074       23431
 hamiltmu                               15.392859        5261
 fftwav_mpi                             13.630125       12534
 dfftw_execute                          10.479147       70287
 kinhamil                                9.706724       10522
 fftext_mpi                              9.485392       10522
 set_charge                              7.081568          17
 setdij_                                 4.898218          45
 force_and_stress                        4.594693           1
 map_forward                             4.417732       25426
 M_sumb_d                                3.796506       63479
 vnlac0                                  3.177169       10522
 m_alltoallv_z                           2.892714       23464
 map_backward                            2.717909       21432
 soft_charge                             2.560745          17
 proj1                                   2.383208        9136
 w1_projall                              2.168650        3938
 pdssyex_zheevx                          1.955607         441
 vhamil                                  1.782954       10522
 M_alltoall_d                            1.740235       76930
 redis_pw                                1.675916       29844
 gemm                                    1.390857       31566
 orth1                                   1.360898       15804
 redis_proj                              1.316352       37741
 strenl                                  1.266195           1
 map_gather                              1.218612       23464
 map_scatter                             1.180742       23464
 spher                                   1.106673          20
 potlok                                  0.700452          18
 fordep                                  0.634134           1
 M_bcast_z                               0.594162        7822
 eccp                                    0.554281        2646
 w1_copy                                 0.495118       31566
 work_mul_crexp                          0.399634       31566
 crexp_mul_wave                          0.309722       27408
 pw_charge                               0.283828        2012
 crpa_reader                             0.256550           1
 overl                                   0.211092       18419
 set_dd_paw                              0.200642          19
 M_bcast_d                               0.174392        5303
 setup_precond                           0.155342        2646
 overl1                                  0.128828       10522
 apply_precond                           0.118388        7876
 brmix                                   0.114000          17
 lincom                                  0.083996         462
 fornl                                   0.071723           1
 densta                                  0.054824          22
 phase                                   0.051713         673
 ggaall_grid                             0.050674          19
 truncate_high_frequency_w1              0.045332       13168
 depsum                                  0.042709          17
 orthch                                  0.038417           1
 setg0                                   0.033579          18
 broyd                                   0.032659          17
 proj                                    0.031744          21
 forhar                                  0.010449           2
 chggra                                  0.009475           1
 forloc                                  0.005162           1
 strehar                                 0.004183           1
 brget                                   0.003963         827
 strelo                                  0.003793           1
 choleski                                0.001865          21
 brgrid                                  0.001701           1
 brsav                                   0.001575         224
 strkin                                  0.001139           1
 brpre                                   0.001120          17
 vectorpot                               0.000092          18
 set_rsgf_all                            0.000086          19
 set_dd_magatom                          0.000068          19
 potlok_metagga                          0.000065          18
 set_kineden                             0.000062          16
 rotate_active_occupied_orbital          0.000015           1
 lprj_proall                             0.000008           1
 redis_pw_over_bands                     0.000003           1
 ---------------------------------------------------------------

Profiling took   1.899249  2.222290  0.006571  0.005127 seconds
Profiling took   1.876230 seconds
