<?xml version="1.0" encoding="ISO-8859-1"?>
<modeling>
 <generator>
  <i name="program" type="string">vasp </i>
  <i name="version" type="string">6.0.8  </i>
  <i name="subversion" type="string">29Jun18 (build Jun 13 2019 12:54:44) complex                          parallel </i>
  <i name="platform" type="string">IFC18_CrayMPICH </i>
  <i name="date" type="string">2021 12 05 </i>
  <i name="time" type="string">14:21:49 </i>
 </generator>
 <incar>
  <i type="int" name="KPAR">     4</i>
  <i type="int" name="NPAR">     4</i>
  <i type="int" name="ISTART">     0</i>
  <i type="string" name="PREC"> ACC</i>
  <i type="string" name="ALGO"> Normal</i>
  <i type="logical" name="ADDGRID"> T  </i>
  <i type="int" name="ISPIN">     1</i>
  <i type="int" name="NELMIN">     5</i>
  <i type="int" name="IBRION">    -1</i>
  <i name="EDIFF">      0.00000010</i>
  <i type="int" name="NSW">     0</i>
  <i type="int" name="ISIF">     3</i>
  <i name="ENCUT">    700.00000000</i>
  <i type="logical" name="LREAL"> F  </i>
  <i type="int" name="ISMEAR">     0</i>
  <i name="SIGMA">      0.01000000</i>
  <i type="logical" name="LWAVE"> F  </i>
  <i type="logical" name="LCHARG"> F  </i>
  <i type="logical" name="LVTOT"> F  </i>
  <i type="string" name="ALGO"> Normal</i>
  <i type="string" name="GGA"> PS</i>
  <i name="EDIFF">      0.00000010</i>
  <i type="int" name="ISPIN">     1</i>
 </incar>
 <structure name="primitive_cell" >
  <crystal>
   <varray name="basis" >
    <v>       0.00000000       3.50582359       3.50582359 </v>
    <v>       3.50582359       0.00000000       3.50582359 </v>
    <v>       3.50582359       3.50582359       0.00000000 </v>
   </varray>
   <i name="volume">     86.17874622 </i>
   <varray name="rec_basis" >
    <v>      -0.14261984       0.14261984       0.14261984 </v>
    <v>       0.14261984      -0.14261984       0.14261984 </v>
    <v>       0.14261984       0.14261984      -0.14261984 </v>
   </varray>
  </crystal>
  <varray name="positions" >
   <v>       0.25000000       0.25000000       0.25000000 </v>
   <v>       0.75000000       0.75000000       0.75000000 </v>
   <v>       0.00000000       0.00000000       0.00000000 </v>
  </varray>
 </structure>
 <varray name="primitive_index" >
  <v type="int" >        1 </v>
  <v type="int" >        2 </v>
  <v type="int" >        3 </v>
 </varray>
 <kpoints>
  <generation param="Gamma">
   <v type="int" name="divisions">      13       13       13 </v>
   <v name="usershift">      0.00000000       0.00000000       0.00000000 </v>
   <v name="genvec1">      0.07692308      -0.00000000       0.00000000 </v>
   <v name="genvec2">     -0.00000000       0.07692308      -0.00000000 </v>
   <v name="genvec3">      0.00000000       0.00000000       0.07692308 </v>
   <v name="shift">      0.00000000       0.00000000       0.00000000 </v>
  </generation>
  <varray name="kpointlist" >
   <v>       0.00000000       0.00000000       0.00000000 </v>
   <v>       0.07692308       0.00000000      -0.00000000 </v>
   <v>       0.15384615      -0.00000000       0.00000000 </v>
   <v>       0.23076923      -0.00000000      -0.00000000 </v>
   <v>       0.30769231      -0.00000000       0.00000000 </v>
   <v>       0.38461538      -0.00000000       0.00000000 </v>
   <v>       0.46153846      -0.00000000       0.00000000 </v>
   <v>       0.07692308       0.07692308      -0.00000000 </v>
   <v>       0.15384615       0.07692308      -0.00000000 </v>
   <v>       0.23076923       0.07692308      -0.00000000 </v>
   <v>       0.30769231       0.07692308      -0.00000000 </v>
   <v>       0.38461538       0.07692308       0.00000000 </v>
   <v>       0.46153846       0.07692308      -0.00000000 </v>
   <v>      -0.46153846       0.07692308       0.00000000 </v>
   <v>      -0.38461538       0.07692308      -0.00000000 </v>
   <v>      -0.30769231       0.07692308      -0.00000000 </v>
   <v>      -0.23076923       0.07692308       0.00000000 </v>
   <v>      -0.15384615       0.07692308      -0.00000000 </v>
   <v>      -0.07692308       0.07692308       0.00000000 </v>
   <v>       0.15384615       0.15384615      -0.00000000 </v>
   <v>       0.23076923       0.15384615      -0.00000000 </v>
   <v>       0.30769231       0.15384615       0.00000000 </v>
   <v>       0.38461538       0.15384615      -0.00000000 </v>
   <v>       0.46153846       0.15384615       0.00000000 </v>
   <v>      -0.46153846       0.15384615       0.00000000 </v>
   <v>      -0.38461538       0.15384615       0.00000000 </v>
   <v>      -0.30769231       0.15384615      -0.00000000 </v>
   <v>      -0.23076923       0.15384615      -0.00000000 </v>
   <v>      -0.15384615       0.15384615      -0.00000000 </v>
   <v>       0.23076923       0.23076923      -0.00000000 </v>
   <v>       0.30769231       0.23076923      -0.00000000 </v>
   <v>       0.38461538       0.23076923      -0.00000000 </v>
   <v>       0.46153846       0.23076923      -0.00000000 </v>
   <v>      -0.46153846       0.23076923       0.00000000 </v>
   <v>      -0.38461538       0.23076923      -0.00000000 </v>
   <v>      -0.30769231       0.23076923       0.00000000 </v>
   <v>      -0.23076923       0.23076923      -0.00000000 </v>
   <v>       0.30769231       0.30769231      -0.00000000 </v>
   <v>       0.38461538       0.30769231      -0.00000000 </v>
   <v>       0.46153846       0.30769231      -0.00000000 </v>
   <v>      -0.46153846       0.30769231      -0.00000000 </v>
   <v>      -0.38461538       0.30769231       0.00000000 </v>
   <v>      -0.30769231       0.30769231      -0.00000000 </v>
   <v>       0.38461538       0.38461538      -0.00000000 </v>
   <v>       0.46153846       0.38461538      -0.00000000 </v>
   <v>      -0.46153846       0.38461538       0.00000000 </v>
   <v>      -0.38461538       0.38461538      -0.00000000 </v>
   <v>       0.46153846       0.46153846      -0.00000000 </v>
   <v>      -0.46153846       0.46153846      -0.00000000 </v>
   <v>       0.23076923       0.15384615       0.07692308 </v>
   <v>       0.30769231       0.15384615       0.07692308 </v>
   <v>       0.38461538       0.15384615       0.07692308 </v>
   <v>       0.46153846       0.15384615       0.07692308 </v>
   <v>      -0.46153846       0.15384615       0.07692308 </v>
   <v>       0.30769231       0.23076923       0.07692308 </v>
   <v>       0.38461538       0.23076923       0.07692308 </v>
   <v>       0.46153846       0.23076923       0.07692308 </v>
   <v>      -0.46153846       0.23076923       0.07692308 </v>
   <v>      -0.38461538       0.23076923       0.07692308 </v>
   <v>      -0.30769231       0.23076923       0.07692308 </v>
   <v>      -0.23076923       0.23076923       0.07692308 </v>
   <v>      -0.15384615       0.23076923       0.07692308 </v>
   <v>       0.38461538       0.30769231       0.07692308 </v>
   <v>       0.46153846       0.30769231       0.07692308 </v>
   <v>      -0.46153846       0.30769231       0.07692308 </v>
   <v>      -0.38461538       0.30769231       0.07692308 </v>
   <v>      -0.30769231       0.30769231       0.07692308 </v>
   <v>      -0.23076923       0.30769231       0.07692308 </v>
   <v>       0.46153846       0.38461538       0.07692308 </v>
   <v>      -0.46153846       0.38461538       0.07692308 </v>
   <v>      -0.38461538       0.38461538       0.07692308 </v>
   <v>      -0.30769231       0.38461538       0.07692308 </v>
   <v>      -0.46153846       0.46153846       0.07692308 </v>
   <v>      -0.38461538       0.46153846       0.07692308 </v>
   <v>       0.46153846       0.30769231       0.15384615 </v>
   <v>      -0.46153846       0.30769231       0.15384615 </v>
   <v>      -0.38461538       0.30769231       0.15384615 </v>
   <v>      -0.46153846       0.38461538       0.15384615 </v>
   <v>      -0.38461538       0.38461538       0.15384615 </v>
   <v>      -0.30769231       0.38461538       0.15384615 </v>
   <v>      -0.23076923       0.38461538       0.15384615 </v>
   <v>      -0.38461538       0.46153846       0.15384615 </v>
   <v>      -0.30769231       0.46153846       0.15384615 </v>
   <v>      -0.30769231       0.46153846       0.23076923 </v>
  </varray>
  <varray name="weights" >
   <v>       0.00045517 </v>
   <v>       0.00364133 </v>
   <v>       0.00364133 </v>
   <v>       0.00364133 </v>
   <v>       0.00364133 </v>
   <v>       0.00364133 </v>
   <v>       0.00364133 </v>
   <v>       0.00273100 </v>
   <v>       0.01092399 </v>
   <v>       0.01092399 </v>
   <v>       0.01092399 </v>
   <v>       0.01092399 </v>
   <v>       0.01092399 </v>
   <v>       0.01092399 </v>
   <v>       0.01092399 </v>
   <v>       0.01092399 </v>
   <v>       0.01092399 </v>
   <v>       0.01092399 </v>
   <v>       0.00546199 </v>
   <v>       0.00273100 </v>
   <v>       0.01092399 </v>
   <v>       0.01092399 </v>
   <v>       0.01092399 </v>
   <v>       0.01092399 </v>
   <v>       0.01092399 </v>
   <v>       0.01092399 </v>
   <v>       0.01092399 </v>
   <v>       0.01092399 </v>
   <v>       0.00546199 </v>
   <v>       0.00273100 </v>
   <v>       0.01092399 </v>
   <v>       0.01092399 </v>
   <v>       0.01092399 </v>
   <v>       0.01092399 </v>
   <v>       0.01092399 </v>
   <v>       0.01092399 </v>
   <v>       0.00546199 </v>
   <v>       0.00273100 </v>
   <v>       0.01092399 </v>
   <v>       0.01092399 </v>
   <v>       0.01092399 </v>
   <v>       0.01092399 </v>
   <v>       0.00546199 </v>
   <v>       0.00273100 </v>
   <v>       0.01092399 </v>
   <v>       0.01092399 </v>
   <v>       0.00546199 </v>
   <v>       0.00273100 </v>
   <v>       0.00546199 </v>
   <v>       0.01092399 </v>
   <v>       0.02184797 </v>
   <v>       0.02184797 </v>
   <v>       0.02184797 </v>
   <v>       0.02184797 </v>
   <v>       0.01092399 </v>
   <v>       0.02184797 </v>
   <v>       0.02184797 </v>
   <v>       0.02184797 </v>
   <v>       0.02184797 </v>
   <v>       0.02184797 </v>
   <v>       0.02184797 </v>
   <v>       0.01092399 </v>
   <v>       0.01092399 </v>
   <v>       0.02184797 </v>
   <v>       0.02184797 </v>
   <v>       0.02184797 </v>
   <v>       0.02184797 </v>
   <v>       0.01092399 </v>
   <v>       0.01092399 </v>
   <v>       0.02184797 </v>
   <v>       0.02184797 </v>
   <v>       0.01092399 </v>
   <v>       0.01092399 </v>
   <v>       0.01092399 </v>
   <v>       0.01092399 </v>
   <v>       0.02184797 </v>
   <v>       0.02184797 </v>
   <v>       0.01092399 </v>
   <v>       0.02184797 </v>
   <v>       0.02184797 </v>
   <v>       0.01092399 </v>
   <v>       0.01092399 </v>
   <v>       0.01092399 </v>
   <v>       0.01092399 </v>
  </varray>
 </kpoints>
 <parameters>
  <separator name="general" >
   <i type="string" name="SYSTEM">unknown system</i>
   <i type="logical" name="LCOMPAT"> F  </i>
  </separator>
  <separator name="electronic" >
   <i type="string" name="PREC">acc</i>
   <i name="ENMAX">    700.00000000</i>
   <i name="ENAUG">    526.41000000</i>
   <i name="EDIFF">      0.00000010</i>
   <i type="int" name="IALGO">    38</i>
   <i type="int" name="IWAVPR">    10</i>
   <i type="int" name="NBANDS">    24</i>
   <i type="int" name="NBANDSLOW">    -1</i>
   <i type="int" name="NBANDSHIGH">    -1</i>
   <i name="NELECT">     39.00000000</i>
   <i type="int" name="TURBO">     0</i>
   <i type="int" name="IRESTART">     0</i>
   <i type="int" name="NREBOOT">     0</i>
   <i type="int" name="NMIN">     0</i>
   <i name="EREF">      0.00000000</i>
   <separator name="electronic smearing" >
    <i type="int" name="ISMEAR">     0</i>
    <i name="SIGMA">      0.01000000</i>
    <i name="KSPACING">      0.50000000</i>
    <i type="logical" name="KGAMMA"> T  </i>
    <i type="logical" name="KBLOWUP"> T  </i>
   </separator>
   <separator name="electronic projectors" >
    <i type="logical" name="LREAL"> F  </i>
    <v name="ROPT">      0.00000000      0.00000000      0.00000000</v>
    <i type="int" name="LMAXPAW">  -100</i>
    <i type="int" name="LMAXMIX">     2</i>
    <i type="logical" name="NLSPLINE"> F  </i>
   </separator>
   <separator name="electronic startup" >
    <i type="int" name="ISTART">     0</i>
    <i type="int" name="ICHARG">     2</i>
    <i type="int" name="INIWAV">     1</i>
   </separator>
   <separator name="electronic spin" >
    <i type="int" name="ISPIN">     1</i>
    <i type="logical" name="LNONCOLLINEAR"> F  </i>
    <v name="MAGMOM">      1.00000000      1.00000000      1.00000000</v>
    <i name="NUPDOWN">     -1.00000000</i>
    <i type="logical" name="LSORBIT"> F  </i>
    <v name="SAXIS">      0.00000000      0.00000000      1.00000000</v>
    <i type="logical" name="LSPIRAL"> F  </i>
    <v name="QSPIRAL">      0.00000000      0.00000000      0.00000000</v>
    <i type="logical" name="LZEROZ"> F  </i>
   </separator>
   <separator name="electronic exchange-correlation" >
    <i type="logical" name="LASPH"> F  </i>
    <i type="logical" name="LMETAGGA"> F  </i>
   </separator>
   <separator name="electronic convergence" >
    <i type="int" name="NELM">    60</i>
    <i type="int" name="NELMDL">    -5</i>
    <i type="int" name="NELMIN">     5</i>
    <i name="ENINI">    700.00000000</i>
    <separator name="electronic convergence detail" >
     <i type="logical" name="LDIAG"> T  </i>
     <i type="logical" name="LSUBROT"> F  </i>
     <i name="WEIMIN">      0.00000000</i>
     <i name="EBREAK">      0.00000000</i>
     <i name="DEPER">      0.30000000</i>
     <i type="int" name="NRMM">     4</i>
     <i name="TIME">      0.40000000</i>
    </separator>
   </separator>
   <separator name="electronic mixer" >
    <i name="AMIX">      0.40000000</i>
    <i name="BMIX">      1.00000000</i>
    <i name="AMIN">      0.10000000</i>
    <i name="AMIX_MAG">      1.60000000</i>
    <i name="BMIX_MAG">      1.00000000</i>
    <separator name="electronic mixer details" >
     <i type="int" name="IMIX">     4</i>
     <i type="logical" name="MIXFIRST"> F  </i>
     <i type="int" name="MAXMIX">   -45</i>
     <i name="WC">    100.00000000</i>
     <i type="int" name="INIMIX">     1</i>
     <i type="int" name="MIXPRE">     1</i>
     <i type="int" name="MREMOVE">     5</i>
    </separator>
   </separator>
   <separator name="electronic dipolcorrection" >
    <i type="logical" name="LDIPOL"> F  </i>
    <i type="logical" name="LMONO"> F  </i>
    <i type="int" name="IDIPOL">     0</i>
    <i name="EPSILON">      1.00000000</i>
    <v name="DIPOL">   -100.00000000   -100.00000000   -100.00000000</v>
    <i name="EFIELD">      0.00000000</i>
   </separator>
  </separator>
  <separator name="grids" >
   <i type="int" name="NGX">    48</i>
   <i type="int" name="NGY">    48</i>
   <i type="int" name="NGZ">    48</i>
   <i type="int" name="NGXF">    96</i>
   <i type="int" name="NGYF">    96</i>
   <i type="int" name="NGZF">    96</i>
   <i type="logical" name="ADDGRID"> T  </i>
  </separator>
  <separator name="ionic" >
   <i type="int" name="NSW">     0</i>
   <i type="int" name="IBRION">    -1</i>
   <i type="int" name="MDALGO">     0</i>
   <i type="int" name="ISIF">     3</i>
   <i name="PSTRESS">      0.00000000</i>
   <i name="EDIFFG">      0.00000100</i>
   <i type="int" name="NFREE">     0</i>
   <i name="POTIM">      0.50000000</i>
   <i name="SMASS">     -3.00000000</i>
   <i name="SCALEE">      1.00000000</i>
  </separator>
  <separator name="ionic md" >
   <i name="TEBEG">      0.00010000</i>
   <i name="TEEND">      0.00010000</i>
   <i type="int" name="NBLOCK">     1</i>
   <i type="int" name="KBLOCK">     1</i>
   <i type="int" name="NPACO">   256</i>
   <i name="APACO">     16.00000000</i>
  </separator>
  <separator name="symmetry" >
   <i type="int" name="ISYM">     2</i>
   <i name="SYMPREC">      0.00001000</i>
  </separator>
  <separator name="dos" >
   <i type="int" name="LORBIT">     0</i>
   <v name="RWIGS">     -1.00000000     -1.00000000     -1.00000000</v>
   <i type="int" name="NEDOS">   301</i>
   <i name="EMIN">     10.00000000</i>
   <i name="EMAX">    -10.00000000</i>
   <i name="EFERMI">      0.00000000</i>
  </separator>
  <separator name="writing" >
   <i type="int" name="NWRITE">     2</i>
   <i type="logical" name="LWAVE"> F  </i>
   <i type="logical" name="LDOWNSAMPLE"> F  </i>
   <i type="logical" name="LCHARG"> F  </i>
   <i type="logical" name="LPARD"> F  </i>
   <i type="logical" name="LVTOT"> F  </i>
   <i type="logical" name="LVHAR"> F  </i>
   <i type="logical" name="LELF"> F  </i>
   <i type="logical" name="LOPTICS"> F  </i>
   <v name="STM">      0.00000000      0.00000000      0.00000000      0.00000000      0.00000000      0.00000000      0.00000000</v>
  </separator>
  <separator name="performance" >
   <i type="int" name="NPAR">     4</i>
   <i type="int" name="NSIM">     4</i>
   <i type="int" name="NBLK">    -1</i>
   <i type="logical" name="LPLANE"> T  </i>
   <i type="logical" name="LSCALAPACK"> T  </i>
   <i type="logical" name="LSCAAWARE"> F  </i>
   <i type="logical" name="LSCALU"> F  </i>
   <i type="logical" name="LASYNC"> F  </i>
   <i type="logical" name="LORBITALREAL"> F  </i>
  </separator>
  <separator name="miscellaneous" >
   <i type="int" name="IDIOT">     3</i>
   <i type="int" name="PHON_NSTRUCT">    -1</i>
   <i type="logical" name="LMUSIC"> F  </i>
   <v name="POMASS">    238.02900000    208.98000000    195.08000000</v>
   <v name="DARWINR">      0.00000000      0.00000000      0.00000000</v>
   <v name="DARWINV">      1.00000000      1.00000000      1.00000000</v>
   <i type="logical" name="LCORR"> T  </i>
  </separator>
  <i type="logical" name="GGA_COMPAT"> T  </i>
  <i type="logical" name="LBERRY"> F  </i>
  <i type="int" name="ICORELEVEL">     0</i>
  <i type="logical" name="LDAU"> F  </i>
  <i type="int" name="I_CONSTRAINED_M">     0</i>
  <separator name="electronic exchange-correlation" >
   <i type="string" name="GGA">PS</i>
   <i type="int" name="VOSKOWN">     0</i>
   <i type="logical" name="LHFCALC"> F  </i>
   <i type="string" name="PRECFOCK"></i>
   <i type="logical" name="LSYMGRAD"> F  </i>
   <i type="logical" name="LHFONE"> F  </i>
   <i type="logical" name="LRHFCALC"> F  </i>
   <i type="logical" name="LTHOMAS"> F  </i>
   <i type="logical" name="LMODELHF"> F  </i>
   <i type="logical" name="LFOCKACE"> F  </i>
   <i name="ENCUT4O">     -1.00000000</i>
   <i type="int" name="EXXOEP">     0</i>
   <i type="int" name="FOURORBIT">     0</i>
   <i name="AEXX">      0.00000000</i>
   <i name="HFALPHA">      0.00000000</i>
   <i name="MCALPHA">      0.00000000</i>
   <i name="ALDAX">      1.00000000</i>
   <i name="AGGAX">      1.00000000</i>
   <i name="ALDAC">      1.00000000</i>
   <i name="AGGAC">      1.00000000</i>
   <i type="int" name="NKREDX">     1</i>
   <i type="int" name="NKREDY">     1</i>
   <i type="int" name="NKREDZ">     1</i>
   <i type="logical" name="SHIFTRED"> F  </i>
   <i type="logical" name="ODDONLY"> F  </i>
   <i type="logical" name="EVENONLY"> F  </i>
   <i type="int" name="LMAXFOCK">     0</i>
   <i type="int" name="NMAXFOCKAE">     0</i>
   <i type="logical" name="LFOCKAEDFT"> F  </i>
   <i name="HFSCREEN">      0.00000000</i>
   <i name="HFSCREENC">      0.00000000</i>
   <i type="int" name="NBANDSGWLOW">     0</i>
  </separator>
  <separator name="vdW DFT" >
   <i type="logical" name="LUSE_VDW"> F  </i>
   <i name="Zab_VDW">     -0.84910000</i>
   <i name="PARAM1">      0.12340000</i>
   <i name="PARAM2">      1.00000000</i>
   <i name="PARAM3">      0.00000000</i>
  </separator>
  <separator name="model GW" >
   <i type="int" name="MODEL_GW">     0</i>
   <i name="MODEL_EPS0">     17.23574924</i>
   <i name="MODEL_ALPHA">      1.00000000</i>
  </separator>
  <separator name="linear response parameters" >
   <i type="logical" name="LEPSILON"> F  </i>
   <i type="logical" name="LRPA"> F  </i>
   <i type="logical" name="LNABLA"> F  </i>
   <i type="logical" name="LVEL"> F  </i>
   <i type="int" name="KINTER">     0</i>
   <i name="CSHIFT">      0.10000000</i>
   <i name="OMEGAMAX">     -1.00000000</i>
   <i name="DEG_THRESHOLD">      0.00200000</i>
   <i name="RTIME">     -0.10000000</i>
   <i name="WPLASMAI">      0.00000000</i>
   <v name="DFIELD">      0.00000000      0.00000000      0.00000000</v>
   <v name="WPLASMA">      0.00000000      0.00000000      0.00000000      0.00000000      0.00000000      0.00000000      0.00000000      0.00000000      0.00000000</v>
  </separator>
  <separator name="orbital magnetization" >
   <i type="logical" name="NUCIND"> F  </i>
   <v name="MAGPOS">      0.00000000      0.00000000      0.00000000</v>
   <i type="logical" name="LNICSALL"> T  </i>
   <i type="logical" name="ORBITALMAG"> F  </i>
   <i type="logical" name="LMAGBLOCH"> F  </i>
   <i type="logical" name="LCHIMAG"> F  </i>
   <i type="logical" name="LGAUGE"> T  </i>
   <i type="int" name="MAGATOM">     0</i>
   <v name="MAGDIPOL">      0.00000000      0.00000000      0.00000000</v>
   <v name="AVECCONST">      0.00000000      0.00000000      0.00000000</v>
  </separator>
  <separator name="response functions" >
   <i type="logical" name="LFINITE_TEMPERATURE"> F  </i>
   <i type="logical" name="LADDER"> F  </i>
   <i type="logical" name="LRPAFORCE"> F  </i>
   <i type="logical" name="LFXC"> F  </i>
   <i type="logical" name="LHARTREE"> T  </i>
   <i type="int" name="IBSE">     0</i>
   <v type="int" name="KPOINT">    -1     0     0     0</v>
   <i type="logical" name="LTCTC"> F  </i>
   <i type="logical" name="LTCTE"> F  </i>
   <i type="logical" name="LTETE"> F  </i>
   <i type="logical" name="LTRIPLET"> F  </i>
   <i type="logical" name="LFXCEPS"> F  </i>
   <i type="logical" name="LFXHEG"> F  </i>
   <i type="int" name="NATURALO">     2</i>
   <i type="logical" name="L2ORDER"> F  </i>
   <i type="logical" name="LDMP1"> F  </i>
   <i type="logical" name="LMP2LT"> F  </i>
   <i type="logical" name="LSMP2LT"> F  </i>
   <i type="logical" name="LUSEW"> F  </i>
   <i name="ENCUTGW">     -2.00000000</i>
   <i name="ENCUTGWSOFT">     -2.00000000</i>
   <i name="ENCUTLF">     -1.00000000</i>
   <i type="int" name="LMAXMP2">    -1</i>
   <i name="SCISSOR">      0.00000000</i>
   <i type="int" name="NOMEGA">     0</i>
   <i type="int" name="NOMEGAR">     0</i>
   <i type="int" name="NBANDSGW">    -1</i>
   <i type="int" name="NBANDSO">    -1</i>
   <i type="int" name="NBANDSV">    -1</i>
   <i type="int" name="NELM">     1</i>
   <i type="int" name="NELMHF">     1</i>
   <i type="int" name="DIM">     3</i>
   <i type="int" name="IESPILON">     4</i>
   <i type="int" name="ANTIRES">     0</i>
   <i name="OMEGAMAX">    -30.00000000</i>
   <i name="OMEGAMIN">    -30.00000000</i>
   <i name="OMEGATL">   -200.00000000</i>
   <i type="int" name="OMEGAGRID">   145</i>
   <i name="CSHIFT">     -0.10000000</i>
   <i type="logical" name="LSELFENERGY"> F  </i>
   <i type="logical" name="LSPECTRAL"> F  </i>
   <i type="logical" name="LSPECTRALGW"> F  </i>
   <i type="logical" name="LSINGLES"> F  </i>
   <i type="logical" name="LFERMIGW"> F  </i>
   <i type="logical" name="ODDONLYGW"> F  </i>
   <i type="logical" name="EVENONLYGW"> F  </i>
   <i type="int" name="NKREDLFX">     1</i>
   <i type="int" name="NKREDLFY">     1</i>
   <i type="int" name="NKREDLFZ">     1</i>
   <i type="int" name="MAXMEM">  2800</i>
   <i type="int" name="TELESCOPE">     0</i>
   <i type="int" name="NTAUPAR">     1</i>
   <i type="int" name="NOMEGAPAR">    -1</i>
   <i name="LAMBDA">      1.00000000</i>
  </separator>
  <separator name="External order field" >
   <i name="OFIELD_KAPPA">      0.00000000</i>
   <v name="OFIELD_K">      0.00000000      0.00000000      0.00000000</v>
   <i name="OFIELD_Q6_NEAR">      0.00000000</i>
   <i name="OFIELD_Q6_FAR">      0.00000000</i>
   <i name="OFIELD_A">      0.00000000</i>
  </separator>
 </parameters>
 <atominfo>
  <atoms>       3 </atoms>
  <types>       3 </types>
  <array name="atoms" >
   <dimension dim="1">ion</dimension>
   <field type="string">element</field>
   <field type="int">atomtype</field>
   <set>
    <rc><c>U </c><c>   1</c></rc>
    <rc><c>Bi</c><c>   2</c></rc>
    <rc><c>Pt</c><c>   3</c></rc>
   </set>
  </array>
  <array name="atomtypes" >
   <dimension dim="1">type</dimension>
   <field type="int">atomspertype</field>
   <field type="string">element</field>
   <field>mass</field>
   <field>valence</field>
   <field type="string">pseudopotential</field>
   <set>
    <rc><c>   1</c><c>U </c><c>    238.02900000</c><c>     14.00000000</c><c>  PAW_PBE U 06Sep2000                   </c></rc>
    <rc><c>   1</c><c>Bi</c><c>    208.98000000</c><c>     15.00000000</c><c>  PAW_PBE Bi_d 06Sep2000                </c></rc>
    <rc><c>   1</c><c>Pt</c><c>    195.08000000</c><c>     10.00000000</c><c>  PAW_PBE Pt 04Feb2005                  </c></rc>
   </set>
  </array>
 </atominfo>
 <structure name="initialpos" >
  <crystal>
   <varray name="basis" >
    <v>       0.00000000       3.50582359       3.50582359 </v>
    <v>       3.50582359       0.00000000       3.50582359 </v>
    <v>       3.50582359       3.50582359       0.00000000 </v>
   </varray>
   <i name="volume">     86.17874622 </i>
   <varray name="rec_basis" >
    <v>      -0.14261984       0.14261984       0.14261984 </v>
    <v>       0.14261984      -0.14261984       0.14261984 </v>
    <v>       0.14261984       0.14261984      -0.14261984 </v>
   </varray>
  </crystal>
  <varray name="positions" >
   <v>       0.25000000       0.25000000       0.25000000 </v>
   <v>       0.75000000       0.75000000       0.75000000 </v>
   <v>       0.00000000       0.00000000       0.00000000 </v>
  </varray>
 </structure>
 <calculation>
  <scstep>
   <time name="dav">    1.69    1.70</time>
   <time name="total">    1.88    1.97</time>
   <energy>
    <i name="alphaZ">    182.46708572 </i>
    <i name="ewald">  -3400.43058212 </i>
    <i name="hartreedc">   -869.42739630 </i>
    <i name="XCdc">     88.51419528 </i>
    <i name="pawpsdc">   3513.29252893 </i>
    <i name="pawaedc">  -3436.88002192 </i>
    <i name="eentropy">     -0.00009884 </i>
    <i name="bandstr">    248.50596833 </i>
    <i name="atom">   4095.35208632 </i>
    <i name="e_fr_energy">    421.39376540 </i>
    <i name="e_wo_entrp">    421.39386423 </i>
    <i name="e_0_energy">    421.39381482 </i>
   </energy>
  </scstep>
  <scstep>
   <time name="dav">    1.85    1.87</time>
   <time name="total">    1.86    1.87</time>
   <energy>
    <i name="e_fr_energy">     27.58992449 </i>
    <i name="e_wo_entrp">     27.59054491 </i>
    <i name="e_0_energy">     27.59023470 </i>
   </energy>
  </scstep>
  <scstep>
   <time name="dav">    1.93    1.96</time>
   <time name="total">    1.94    1.96</time>
   <energy>
    <i name="e_fr_energy">    -19.86257124 </i>
    <i name="e_wo_entrp">    -19.86086286 </i>
    <i name="e_0_energy">    -19.86171705 </i>
   </energy>
  </scstep>
  <scstep>
   <time name="dav">    2.78    2.80</time>
   <time name="total">    2.78    2.80</time>
   <energy>
    <i name="e_fr_energy">    -25.12076203 </i>
    <i name="e_wo_entrp">    -25.11956330 </i>
    <i name="e_0_energy">    -25.12016266 </i>
   </energy>
  </scstep>
  <scstep>
   <time name="dav">    2.10    2.13</time>
   <time name="total">    2.59    2.62</time>
   <energy>
    <i name="e_fr_energy">    -25.31612759 </i>
    <i name="e_wo_entrp">    -25.31483790 </i>
    <i name="e_0_energy">    -25.31548274 </i>
   </energy>
  </scstep>
  <scstep>
   <time name="dav">    2.29    2.29</time>
   <time name="total">    2.94    2.96</time>
   <energy>
    <i name="e_fr_energy">    -37.03153177 </i>
    <i name="e_wo_entrp">    -37.03136929 </i>
    <i name="e_0_energy">    -37.03145053 </i>
   </energy>
  </scstep>
  <scstep>
   <time name="dav">    2.15    2.15</time>
   <time name="total">    2.72    2.75</time>
   <energy>
    <i name="e_fr_energy">    -25.17535120 </i>
    <i name="e_wo_entrp">    -25.17496055 </i>
    <i name="e_0_energy">    -25.17515588 </i>
   </energy>
  </scstep>
  <scstep>
   <time name="dav">    2.24    2.24</time>
   <time name="total">    2.82    2.91</time>
   <energy>
    <i name="e_fr_energy">    -23.99737040 </i>
    <i name="e_wo_entrp">    -23.99555072 </i>
    <i name="e_0_energy">    -23.99646056 </i>
   </energy>
  </scstep>
  <scstep>
   <time name="dav">    2.27    2.27</time>
   <time name="total">    2.84    2.89</time>
   <energy>
    <i name="e_fr_energy">    -23.13528291 </i>
    <i name="e_wo_entrp">    -23.13330152 </i>
    <i name="e_0_energy">    -23.13429221 </i>
   </energy>
  </scstep>
  <scstep>
   <time name="dav">    2.28    2.28</time>
   <time name="total">    2.86    2.90</time>
   <energy>
    <i name="e_fr_energy">    -23.25046461 </i>
    <i name="e_wo_entrp">    -23.24899050 </i>
    <i name="e_0_energy">    -23.24972756 </i>
   </energy>
  </scstep>
  <scstep>
   <time name="dav">    2.23    2.23</time>
   <time name="total">    2.80    2.85</time>
   <energy>
    <i name="e_fr_energy">    -23.13681520 </i>
    <i name="e_wo_entrp">    -23.13466590 </i>
    <i name="e_0_energy">    -23.13574055 </i>
   </energy>
  </scstep>
  <scstep>
   <time name="dav">    2.61    2.62</time>
   <time name="total">    3.20    3.24</time>
   <energy>
    <i name="e_fr_energy">    -23.13318207 </i>
    <i name="e_wo_entrp">    -23.13065477 </i>
    <i name="e_0_energy">    -23.13191842 </i>
   </energy>
  </scstep>
  <scstep>
   <time name="dav">    2.36    2.36</time>
   <time name="total">    2.94    2.98</time>
   <energy>
    <i name="e_fr_energy">    -23.13970989 </i>
    <i name="e_wo_entrp">    -23.13716398 </i>
    <i name="e_0_energy">    -23.13843694 </i>
   </energy>
  </scstep>
  <scstep>
   <time name="dav">    2.28    2.28</time>
   <time name="total">    2.86    2.90</time>
   <energy>
    <i name="e_fr_energy">    -23.13042110 </i>
    <i name="e_wo_entrp">    -23.12802309 </i>
    <i name="e_0_energy">    -23.12922210 </i>
   </energy>
  </scstep>
  <scstep>
   <time name="dav">    2.46    2.46</time>
   <time name="total">    3.05    3.07</time>
   <energy>
    <i name="e_fr_energy">    -23.13059789 </i>
    <i name="e_wo_entrp">    -23.12816379 </i>
    <i name="e_0_energy">    -23.12938084 </i>
   </energy>
  </scstep>
  <scstep>
   <time name="dav">    2.37    2.37</time>
   <time name="total">    2.98    3.00</time>
   <energy>
    <i name="e_fr_energy">    -23.13065444 </i>
    <i name="e_wo_entrp">    -23.12823191 </i>
    <i name="e_0_energy">    -23.12944317 </i>
   </energy>
  </scstep>
  <scstep>
   <time name="dav">    2.21    2.21</time>
   <time name="total">    2.80    2.83</time>
   <energy>
    <i name="e_fr_energy">    -23.13103316 </i>
    <i name="e_wo_entrp">    -23.12859618 </i>
    <i name="e_0_energy">    -23.12981467 </i>
   </energy>
  </scstep>
  <scstep>
   <time name="dav">    2.47    2.47</time>
   <time name="total">    3.07    3.10</time>
   <energy>
    <i name="e_fr_energy">    -23.13106674 </i>
    <i name="e_wo_entrp">    -23.12863572 </i>
    <i name="e_0_energy">    -23.12985123 </i>
   </energy>
  </scstep>
  <scstep>
   <time name="dav">    2.29    2.29</time>
   <time name="total">    2.89    2.91</time>
   <energy>
    <i name="e_fr_energy">    -23.13106792 </i>
    <i name="e_wo_entrp">    -23.12863222 </i>
    <i name="e_0_energy">    -23.12985007 </i>
   </energy>
  </scstep>
  <scstep>
   <time name="dav">    2.40    2.40</time>
   <time name="total">    2.99    3.03</time>
   <energy>
    <i name="e_fr_energy">    -23.13106804 </i>
    <i name="e_wo_entrp">    -23.12863109 </i>
    <i name="e_0_energy">    -23.12984957 </i>
   </energy>
  </scstep>
  <scstep>
   <time name="dav">    1.78    1.78</time>
   <time name="total">    1.95    1.98</time>
   <energy>
    <i name="alphaZ">    182.46708572 </i>
    <i name="ewald">  -3400.43058212 </i>
    <i name="hartreedc">   -860.95796009 </i>
    <i name="XCdc">     88.27387159 </i>
    <i name="pawpsdc">   3893.58687343 </i>
    <i name="pawaedc">  -3824.36723506 </i>
    <i name="eentropy">     -0.00243674 </i>
    <i name="bandstr">   -197.05277100 </i>
    <i name="atom">   4095.35208632 </i>
    <i name="e_fr_energy">    -23.13106796 </i>
    <i name="e_wo_entrp">    -23.12863122 </i>
    <i name="e_0_energy">    -23.12984959 </i>
   </energy>
  </scstep>
  <structure>
   <crystal>
    <varray name="basis" >
     <v>       0.00000000       3.50582359       3.50582359 </v>
     <v>       3.50582359       0.00000000       3.50582359 </v>
     <v>       3.50582359       3.50582359       0.00000000 </v>
    </varray>
    <i name="volume">     86.17874622 </i>
    <varray name="rec_basis" >
     <v>      -0.14261984       0.14261984       0.14261984 </v>
     <v>       0.14261984      -0.14261984       0.14261984 </v>
     <v>       0.14261984       0.14261984      -0.14261984 </v>
    </varray>
   </crystal>
   <varray name="positions" >
    <v>       0.25000000       0.25000000       0.25000000 </v>
    <v>       0.75000000       0.75000000       0.75000000 </v>
    <v>       0.00000000       0.00000000       0.00000000 </v>
   </varray>
  </structure>
  <varray name="forces" >
   <v>       0.00000000       0.00000000       0.00000000 </v>
   <v>      -0.00000000      -0.00000000      -0.00000000 </v>
   <v>       0.00000000       0.00000000       0.00000000 </v>
  </varray>
  <varray name="stress" >
   <v>    -132.36426581      -0.00000000       0.00000000 </v>
   <v>       0.00000000    -132.36426581      -0.00000000 </v>
   <v>       0.00000000       0.00000000    -132.36426581 </v>
  </varray>
  <energy>
   <i name="e_fr_energy">    -23.13106796 </i>
   <i name="e_wo_entrp">    -23.12984959 </i>
   <i name="e_0_energy">     -0.00243674 </i>
  </energy>
  <time name="totalsc">   61.66   62.87</time>
  <eigenvalues>
   <array>
    <dimension dim="1">band</dimension>
    <dimension dim="2">kpoint</dimension>
    <dimension dim="3">spin</dimension>
    <field>eigene</field>
    <field>occ</field>
    <set>
     <set comment="spin 1">
      <set comment="kpoint 1">
       <r>  -36.2830    1.0000 </r>
       <r>  -14.7077    1.0000 </r>
       <r>  -14.7077    1.0000 </r>
       <r>  -14.6875    1.0000 </r>
       <r>  -14.6875    1.0000 </r>
       <r>  -14.6875    1.0000 </r>
       <r>  -11.4655    1.0000 </r>
       <r>  -11.4655    1.0000 </r>
       <r>  -11.4655    1.0000 </r>
       <r>   -3.6854    1.0000 </r>
       <r>    4.0538    1.0000 </r>
       <r>    4.0538    1.0000 </r>
       <r>    4.0538    1.0000 </r>
       <r>    4.4078    1.0000 </r>
       <r>    4.4078    1.0000 </r>
       <r>    5.8841    1.0000 </r>
       <r>    7.0650    1.0000 </r>
       <r>    7.0650    1.0000 </r>
       <r>    7.0650    1.0000 </r>
       <r>    7.9427    1.0000 </r>
       <r>    8.0866    0.0000 </r>
       <r>    8.0922    0.0000 </r>
       <r>    8.1299    0.0000 </r>
       <r>    8.1299    0.0000 </r>
      </set>
      <set comment="kpoint 2">
       <r>  -36.2829    1.0000 </r>
       <r>  -14.7084    1.0000 </r>
       <r>  -14.7084    1.0000 </r>
       <r>  -14.6876    1.0000 </r>
       <r>  -14.6874    1.0000 </r>
       <r>  -14.6874    1.0000 </r>
       <r>  -11.4720    1.0000 </r>
       <r>  -11.4642    1.0000 </r>
       <r>  -11.4642    1.0000 </r>
       <r>   -3.6421    1.0000 </r>
       <r>    3.9171    1.0000 </r>
       <r>    3.9946    1.0000 </r>
       <r>    3.9946    1.0000 </r>
       <r>    4.4636    1.0000 </r>
       <r>    4.4636    1.0000 </r>
       <r>    5.7875    1.0000 </r>
       <r>    7.0172    1.0000 </r>
       <r>    7.0172    1.0000 </r>
       <r>    7.1344    1.0000 </r>
       <r>    7.8963    1.0000 </r>
       <r>    8.0156    0.0000 </r>
       <r>    8.0156    0.0000 </r>
       <r>    8.1305    0.0000 </r>
       <r>    8.1309    0.0000 </r>
      </set>
      <set comment="kpoint 3">
       <r>  -36.2826    1.0000 </r>
       <r>  -14.7102    1.0000 </r>
       <r>  -14.7102    1.0000 </r>
       <r>  -14.6879    1.0000 </r>
       <r>  -14.6871    1.0000 </r>
       <r>  -14.6871    1.0000 </r>
       <r>  -11.4899    1.0000 </r>
       <r>  -11.4608    1.0000 </r>
       <r>  -11.4608    1.0000 </r>
       <r>   -3.5207    1.0000 </r>
       <r>    3.5918    1.0000 </r>
       <r>    3.8903    1.0000 </r>
       <r>    3.8903    1.0000 </r>
       <r>    4.5514    1.0000 </r>
       <r>    4.5514    1.0000 </r>
       <r>    5.5199    1.0000 </r>
       <r>    6.9059    1.0000 </r>
       <r>    6.9059    1.0000 </r>
       <r>    7.2045    1.0000 </r>
       <r>    7.9708    0.6799 </r>
       <r>    7.9708    0.6799 </r>
       <r>    8.0174    0.0000 </r>
       <r>    8.1325    0.0000 </r>
       <r>    8.1832    0.0000 </r>
      </set>
      <set comment="kpoint 4">
       <r>  -36.2823    1.0000 </r>
       <r>  -14.7128    1.0000 </r>
       <r>  -14.7128    1.0000 </r>
       <r>  -14.6884    1.0000 </r>
       <r>  -14.6866    1.0000 </r>
       <r>  -14.6866    1.0000 </r>
       <r>  -11.5143    1.0000 </r>
       <r>  -11.4560    1.0000 </r>
       <r>  -11.4560    1.0000 </r>
       <r>   -3.3460    1.0000 </r>
       <r>    3.2142    1.0000 </r>
       <r>    3.8047    1.0000 </r>
       <r>    3.8047    1.0000 </r>
       <r>    4.5948    1.0000 </r>
       <r>    4.5948    1.0000 </r>
       <r>    5.1762    1.0000 </r>
       <r>    6.7923    1.0000 </r>
       <r>    6.7923    1.0000 </r>
       <r>    7.2268    1.0000 </r>
       <r>    7.9577    0.9899 </r>
       <r>    7.9577    0.9899 </r>
       <r>    8.1353    0.0000 </r>
       <r>    8.1681    0.0000 </r>
       <r>    8.3656    0.0000 </r>
      </set>
      <set comment="kpoint 5">
       <r>  -36.2819    1.0000 </r>
       <r>  -14.7156    1.0000 </r>
       <r>  -14.7156    1.0000 </r>
       <r>  -14.6889    1.0000 </r>
       <r>  -14.6861    1.0000 </r>
       <r>  -14.6861    1.0000 </r>
       <r>  -11.5392    1.0000 </r>
       <r>  -11.4509    1.0000 </r>
       <r>  -11.4509    1.0000 </r>
       <r>   -3.1555    1.0000 </r>
       <r>    2.8732    1.0000 </r>
       <r>    3.7560    1.0000 </r>
       <r>    3.7560    1.0000 </r>
       <r>    4.5745    1.0000 </r>
       <r>    4.5745    1.0000 </r>
       <r>    4.8633    1.0000 </r>
       <r>    6.7171    1.0000 </r>
       <r>    6.7171    1.0000 </r>
       <r>    7.2699    1.0000 </r>
       <r>    7.9655    0.8877 </r>
       <r>    7.9655    0.8877 </r>
       <r>    8.1383    0.0000 </r>
       <r>    8.2110    0.0000 </r>
       <r>    8.3188    0.0000 </r>
      </set>
      <set comment="kpoint 6">
       <r>  -36.2816    1.0000 </r>
       <r>  -14.7178    1.0000 </r>
       <r>  -14.7178    1.0000 </r>
       <r>  -14.6895    1.0000 </r>
       <r>  -14.6857    1.0000 </r>
       <r>  -14.6857    1.0000 </r>
       <r>  -11.5591    1.0000 </r>
       <r>  -11.4467    1.0000 </r>
       <r>  -11.4467    1.0000 </r>
       <r>   -2.9932    1.0000 </r>
       <r>    2.6204    1.0000 </r>
       <r>    3.7417    1.0000 </r>
       <r>    3.7417    1.0000 </r>
       <r>    4.5139    1.0000 </r>
       <r>    4.5139    1.0000 </r>
       <r>    4.6401    1.0000 </r>
       <r>    6.6839    1.0000 </r>
       <r>    6.6839    1.0000 </r>
       <r>    7.3329    1.0000 </r>
       <r>    7.9870    0.0345 </r>
       <r>    7.9870    0.0345 </r>
       <r>    8.2477    0.0000 </r>
       <r>    8.2504    0.0000 </r>
       <r>    8.2506    0.0000 </r>
      </set>
      <set comment="kpoint 7">
       <r>  -36.2814    1.0000 </r>
       <r>  -14.7191    1.0000 </r>
       <r>  -14.7191    1.0000 </r>
       <r>  -14.6898    1.0000 </r>
       <r>  -14.6855    1.0000 </r>
       <r>  -14.6855    1.0000 </r>
       <r>  -11.5700    1.0000 </r>
       <r>  -11.4443    1.0000 </r>
       <r>  -11.4443    1.0000 </r>
       <r>   -2.8997    1.0000 </r>
       <r>    2.4862    1.0000 </r>
       <r>    3.7448    1.0000 </r>
       <r>    3.7448    1.0000 </r>
       <r>    4.4625    1.0000 </r>
       <r>    4.4625    1.0000 </r>
       <r>    4.5268    1.0000 </r>
       <r>    6.6747    1.0000 </r>
       <r>    6.6747    1.0000 </r>
       <r>    7.3819    1.0000 </r>
       <r>    8.0099    0.0000 </r>
       <r>    8.0099    0.0000 </r>
       <r>    8.1421    0.0000 </r>
       <r>    8.1999    0.0000 </r>
       <r>    8.1999    0.0000 </r>
      </set>
      <set comment="kpoint 8">
       <r>  -36.2829    1.0000 </r>
       <r>  -14.7095    1.0000 </r>
       <r>  -14.7076    1.0000 </r>
       <r>  -14.6877    1.0000 </r>
       <r>  -14.6873    1.0000 </r>
       <r>  -14.6873    1.0000 </r>
       <r>  -11.4691    1.0000 </r>
       <r>  -11.4665    1.0000 </r>
       <r>  -11.4665    1.0000 </r>
       <r>   -3.6286    1.0000 </r>
       <r>    3.7514    1.0000 </r>
       <r>    4.0681    1.0000 </r>
       <r>    4.0681    1.0000 </r>
       <r>    4.4206    1.0000 </r>
       <r>    4.4846    1.0000 </r>
       <r>    5.7833    1.0000 </r>
       <r>    6.9419    1.0000 </r>
       <r>    6.9419    1.0000 </r>
       <r>    7.2742    1.0000 </r>
       <r>    7.8562    1.0000 </r>
       <r>    8.0092    0.0000 </r>
       <r>    8.0092    0.0000 </r>
       <r>    8.1379    0.0000 </r>
       <r>    8.1440    0.0000 </r>
      </set>
      <set comment="kpoint 9">
       <r>  -36.2827    1.0000 </r>
       <r>  -14.7116    1.0000 </r>
       <r>  -14.7081    1.0000 </r>
       <r>  -14.6880    1.0000 </r>
       <r>  -14.6871    1.0000 </r>
       <r>  -14.6870    1.0000 </r>
       <r>  -11.4827    1.0000 </r>
       <r>  -11.4661    1.0000 </r>
       <r>  -11.4623    1.0000 </r>
       <r>   -3.5362    1.0000 </r>
       <r>    3.4887    1.0000 </r>
       <r>    3.9877    1.0000 </r>
       <r>    4.0303    1.0000 </r>
       <r>    4.4739    1.0000 </r>
       <r>    4.5478    1.0000 </r>
       <r>    5.6182    1.0000 </r>
       <r>    6.8060    1.0000 </r>
       <r>    6.8207    1.0000 </r>
       <r>    7.3978    1.0000 </r>
       <r>    7.9103    1.0000 </r>
       <r>    7.9791    0.2389 </r>
       <r>    7.9899    0.0130 </r>
       <r>    8.1421    0.0000 </r>
       <r>    8.1775    0.0000 </r>
      </set>
      <set comment="kpoint 10">
       <r>  -36.2823    1.0000 </r>
       <r>  -14.7140    1.0000 </r>
       <r>  -14.7098    1.0000 </r>
       <r>  -14.6883    1.0000 </r>
       <r>  -14.6868    1.0000 </r>
       <r>  -14.6866    1.0000 </r>
       <r>  -11.5050    1.0000 </r>
       <r>  -11.4633    1.0000 </r>
       <r>  -11.4568    1.0000 </r>
       <r>   -3.3840    1.0000 </r>
       <r>    3.1985    1.0000 </r>
       <r>    3.8387    1.0000 </r>
       <r>    3.9556    1.0000 </r>
       <r>    4.5287    1.0000 </r>
       <r>    4.6159    1.0000 </r>
       <r>    5.3208    1.0000 </r>
       <r>    6.6570    1.0000 </r>
       <r>    6.7128    1.0000 </r>
       <r>    7.4056    1.0000 </r>
       <r>    7.9539    0.9979 </r>
       <r>    7.9628    0.9456 </r>
       <r>    8.1420    0.0000 </r>
       <r>    8.1439    0.0000 </r>
       <r>    8.2703    0.0000 </r>
      </set>
      <set comment="kpoint 11">
       <r>  -36.2820    1.0000 </r>
       <r>  -14.7164    1.0000 </r>
       <r>  -14.7124    1.0000 </r>
       <r>  -14.6888    1.0000 </r>
       <r>  -14.6864    1.0000 </r>
       <r>  -14.6861    1.0000 </r>
       <r>  -11.5297    1.0000 </r>
       <r>  -11.4586    1.0000 </r>
       <r>  -11.4519    1.0000 </r>
       <r>   -3.2050    1.0000 </r>
       <r>    2.9191    1.0000 </r>
       <r>    3.7321    1.0000 </r>
       <r>    3.8929    1.0000 </r>
       <r>    4.5283    1.0000 </r>
       <r>    4.6308    1.0000 </r>
       <r>    4.9955    1.0000 </r>
       <r>    6.5614    1.0000 </r>
       <r>    6.6516    1.0000 </r>
       <r>    7.3992    1.0000 </r>
       <r>    7.9631    0.9407 </r>
       <r>    7.9658    0.8807 </r>
       <r>    8.1452    0.0000 </r>
       <r>    8.1895    0.0000 </r>
       <r>    8.3046    0.0000 </r>
      </set>
      <set comment="kpoint 12">
       <r>  -36.2816    1.0000 </r>
       <r>  -14.7181    1.0000 </r>
       <r>  -14.7153    1.0000 </r>
       <r>  -14.6892    1.0000 </r>
       <r>  -14.6860    1.0000 </r>
       <r>  -14.6856    1.0000 </r>
       <r>  -11.5511    1.0000 </r>
       <r>  -11.4532    1.0000 </r>
       <r>  -11.4489    1.0000 </r>
       <r>   -3.0397    1.0000 </r>
       <r>    2.6948    1.0000 </r>
       <r>    3.6903    1.0000 </r>
       <r>    3.8451    1.0000 </r>
       <r>    4.4892    1.0000 </r>
       <r>    4.5873    1.0000 </r>
       <r>    4.7334    1.0000 </r>
       <r>    6.5183    1.0000 </r>
       <r>    6.6334    1.0000 </r>
       <r>    7.4205    1.0000 </r>
       <r>    7.9786    0.2646 </r>
       <r>    7.9887    0.0198 </r>
       <r>    8.1454    0.0000 </r>
       <r>    8.2097    0.0000 </r>
       <r>    8.2673    0.0000 </r>
      </set>
      <set comment="kpoint 13">
       <r>  -36.2814    1.0000 </r>
       <r>  -14.7187    1.0000 </r>
       <r>  -14.7176    1.0000 </r>
       <r>  -14.6896    1.0000 </r>
       <r>  -14.6857    1.0000 </r>
       <r>  -14.6854    1.0000 </r>
       <r>  -11.5648    1.0000 </r>
       <r>  -11.4483    1.0000 </r>
       <r>  -11.4482    1.0000 </r>
       <r>   -2.9277    1.0000 </r>
       <r>    2.5565    1.0000 </r>
       <r>    3.7049    1.0000 </r>
       <r>    3.7960    1.0000 </r>
       <r>    4.4640    1.0000 </r>
       <r>    4.5166    1.0000 </r>
       <r>    4.5759    1.0000 </r>
       <r>    6.5036    1.0000 </r>
       <r>    6.6358    1.0000 </r>
       <r>    7.4554    1.0000 </r>
       <r>    8.0049    0.0000 </r>
       <r>    8.0109    0.0000 </r>
       <r>    8.1424    0.0000 </r>
       <r>    8.1929    0.0000 </r>
       <r>    8.2520    0.0000 </r>
      </set>
      <set comment="kpoint 14">
       <r>  -36.2813    1.0000 </r>
       <r>  -14.7190    1.0000 </r>
       <r>  -14.7182    1.0000 </r>
       <r>  -14.6896    1.0000 </r>
       <r>  -14.6856    1.0000 </r>
       <r>  -14.6854    1.0000 </r>
       <r>  -11.5684    1.0000 </r>
       <r>  -11.4500    1.0000 </r>
       <r>  -11.4449    1.0000 </r>
       <r>   -2.8970    1.0000 </r>
       <r>    2.5204    1.0000 </r>
       <r>    3.7357    1.0000 </r>
       <r>    3.7552    1.0000 </r>
       <r>    4.4642    1.0000 </r>
       <r>    4.4907    1.0000 </r>
       <r>    4.5338    1.0000 </r>
       <r>    6.4912    1.0000 </r>
       <r>    6.6444    1.0000 </r>
       <r>    7.4696    1.0000 </r>
       <r>    8.0102    0.0000 </r>
       <r>    8.0257    0.0000 </r>
       <r>    8.1388    0.0000 </r>
       <r>    8.1974    0.0000 </r>
       <r>    8.2257    0.0000 </r>
      </set>
      <set comment="kpoint 15">
       <r>  -36.2815    1.0000 </r>
       <r>  -14.7191    1.0000 </r>
       <r>  -14.7166    1.0000 </r>
       <r>  -14.6894    1.0000 </r>
       <r>  -14.6857    1.0000 </r>
       <r>  -14.6856    1.0000 </r>
       <r>  -11.5611    1.0000 </r>
       <r>  -11.4539    1.0000 </r>
       <r>  -11.4439    1.0000 </r>
       <r>   -2.9554    1.0000 </r>
       <r>    2.5919    1.0000 </r>
       <r>    3.6804    1.0000 </r>
       <r>    3.8176    1.0000 </r>
       <r>    4.4551    1.0000 </r>
       <r>    4.5602    1.0000 </r>
       <r>    4.6141    1.0000 </r>
       <r>    6.4673    1.0000 </r>
       <r>    6.6627    1.0000 </r>
       <r>    7.4484    1.0000 </r>
       <r>    7.9877    0.0277 </r>
       <r>    8.0143    0.0000 </r>
       <r>    8.1398    0.0000 </r>
       <r>    8.2184    0.0000 </r>
       <r>    8.2304    0.0000 </r>
      </set>
      <set comment="kpoint 16">
       <r>  -36.2817    1.0000 </r>
       <r>  -14.7179    1.0000 </r>
       <r>  -14.7142    1.0000 </r>
       <r>  -14.6890    1.0000 </r>
       <r>  -14.6860    1.0000 </r>
       <r>  -14.6860    1.0000 </r>
       <r>  -11.5444    1.0000 </r>
       <r>  -11.4590    1.0000 </r>
       <r>  -11.4455    1.0000 </r>
       <r>   -3.0884    1.0000 </r>
       <r>    2.7672    1.0000 </r>
       <r>    3.6554    1.0000 </r>
       <r>    3.8819    1.0000 </r>
       <r>    4.4859    1.0000 </r>
       <r>    4.6326    1.0000 </r>
       <r>    4.8089    1.0000 </r>
       <r>    6.4401    1.0000 </r>
       <r>    6.7074    1.0000 </r>
       <r>    7.4137    1.0000 </r>
       <r>    7.9665    0.8589 </r>
       <r>    7.9870    0.0340 </r>
       <r>    8.1433    0.0000 </r>
       <r>    8.2153    0.0000 </r>
       <r>    8.2710    0.0000 </r>
      </set>
      <set comment="kpoint 17">
       <r>  -36.2821    1.0000 </r>
       <r>  -14.7157    1.0000 </r>
       <r>  -14.7117    1.0000 </r>
       <r>  -14.6885    1.0000 </r>
       <r>  -14.6865    1.0000 </r>
       <r>  -14.6864    1.0000 </r>
       <r>  -11.5216    1.0000 </r>
       <r>  -11.4639    1.0000 </r>
       <r>  -11.4493    1.0000 </r>
       <r>   -3.2628    1.0000 </r>
       <r>    3.0311    1.0000 </r>
       <r>    3.6773    1.0000 </r>
       <r>    3.9558    1.0000 </r>
       <r>    4.5105    1.0000 </r>
       <r>    4.6662    1.0000 </r>
       <r>    5.0974    1.0000 </r>
       <r>    6.4465    1.0000 </r>
       <r>    6.7926    1.0000 </r>
       <r>    7.3944    1.0000 </r>
       <r>    7.9570    0.9923 </r>
       <r>    7.9662    0.8685 </r>
       <r>    8.1422    0.0000 </r>
       <r>    8.1828    0.0000 </r>
       <r>    8.3283    0.0000 </r>
      </set>
      <set comment="kpoint 18">
       <r>  -36.2825    1.0000 </r>
       <r>  -14.7130    1.0000 </r>
       <r>  -14.7096    1.0000 </r>
       <r>  -14.6881    1.0000 </r>
       <r>  -14.6869    1.0000 </r>
       <r>  -14.6868    1.0000 </r>
       <r>  -11.4977    1.0000 </r>
       <r>  -11.4674    1.0000 </r>
       <r>  -11.4545    1.0000 </r>
       <r>   -3.4377    1.0000 </r>
       <r>    3.3517    1.0000 </r>
       <r>    3.7502    1.0000 </r>
       <r>    4.0400    1.0000 </r>
       <r>    4.4878    1.0000 </r>
       <r>    4.6392    1.0000 </r>
       <r>    5.4171    1.0000 </r>
       <r>    6.5467    1.0000 </r>
       <r>    6.9066    1.0000 </r>
       <r>    7.3871    1.0000 </r>
       <r>    7.9601    0.9762 </r>
       <r>    7.9614    0.9634 </r>
       <r>    8.1112    0.0000 </r>
       <r>    8.1393    0.0000 </r>
       <r>    8.2268    0.0000 </r>
      </set>
      <set comment="kpoint 19">
       <r>  -36.2827    1.0000 </r>
       <r>  -14.7103    1.0000 </r>
       <r>  -14.7084    1.0000 </r>
       <r>  -14.6878    1.0000 </r>
       <r>  -14.6873    1.0000 </r>
       <r>  -14.6872    1.0000 </r>
       <r>  -11.4795    1.0000 </r>
       <r>  -11.4676    1.0000 </r>
       <r>  -11.4599    1.0000 </r>
       <r>   -3.5737    1.0000 </r>
       <r>    3.6758    1.0000 </r>
       <r>    3.8653    1.0000 </r>
       <r>    4.0803    1.0000 </r>
       <r>    4.4481    1.0000 </r>
       <r>    4.5599    1.0000 </r>
       <r>    5.6640    1.0000 </r>
       <r>    6.7771    1.0000 </r>
       <r>    7.0010    1.0000 </r>
       <r>    7.3031    1.0000 </r>
       <r>    7.9137    1.0000 </r>
       <r>    7.9806    0.1803 </r>
       <r>    7.9937    0.0028 </r>
       <r>    8.1351    0.0000 </r>
       <r>    8.1623    0.0000 </r>
      </set>
      <set comment="kpoint 20">
       <r>  -36.2825    1.0000 </r>
       <r>  -14.7133    1.0000 </r>
       <r>  -14.7071    1.0000 </r>
       <r>  -14.6883    1.0000 </r>
       <r>  -14.6868    1.0000 </r>
       <r>  -14.6868    1.0000 </r>
       <r>  -11.4798    1.0000 </r>
       <r>  -11.4693    1.0000 </r>
       <r>  -11.4693    1.0000 </r>
       <r>   -3.4810    1.0000 </r>
       <r>    3.2435    1.0000 </r>
       <r>    4.1018    1.0000 </r>
       <r>    4.1018    1.0000 </r>
       <r>    4.4567    1.0000 </r>
       <r>    4.4972    1.0000 </r>
       <r>    5.6126    1.0000 </r>
       <r>    6.6999    1.0000 </r>
       <r>    6.6999    1.0000 </r>
       <r>    7.5128    1.0000 </r>
       <r>    7.8917    1.0000 </r>
       <r>    7.9746    0.4715 </r>
       <r>    7.9746    0.4715 </r>
       <r>    8.1614    0.0000 </r>
       <r>    8.1943    0.0000 </r>
      </set>
      <set comment="kpoint 21">
       <r>  -36.2823    1.0000 </r>
       <r>  -14.7151    1.0000 </r>
       <r>  -14.7075    1.0000 </r>
       <r>  -14.6887    1.0000 </r>
       <r>  -14.6865    1.0000 </r>
       <r>  -14.6864    1.0000 </r>
       <r>  -11.4965    1.0000 </r>
       <r>  -11.4696    1.0000 </r>
       <r>  -11.4655    1.0000 </r>
       <r>   -3.3681    1.0000 </r>
       <r>    3.0201    1.0000 </r>
       <r>    4.0194    1.0000 </r>
       <r>    4.0817    1.0000 </r>
       <r>    4.4946    1.0000 </r>
       <r>    4.5335    1.0000 </r>
       <r>    5.4498    1.0000 </r>
       <r>    6.5253    1.0000 </r>
       <r>    6.5999    1.0000 </r>
       <r>    7.5347    1.0000 </r>
       <r>    7.9491    0.9998 </r>
       <r>    7.9683    0.7945 </r>
       <r>    8.0893    0.0000 </r>
       <r>    8.1709    0.0000 </r>
       <r>    8.2565    0.0000 </r>
      </set>
      <set comment="kpoint 22">
       <r>  -36.2819    1.0000 </r>
       <r>  -14.7164    1.0000 </r>
       <r>  -14.7093    1.0000 </r>
       <r>  -14.6890    1.0000 </r>
       <r>  -14.6862    1.0000 </r>
       <r>  -14.6859    1.0000 </r>
       <r>  -11.5192    1.0000 </r>
       <r>  -11.4670    1.0000 </r>
       <r>  -11.4609    1.0000 </r>
       <r>   -3.2236    1.0000 </r>
       <r>    2.8503    1.0000 </r>
       <r>    3.8625    1.0000 </r>
       <r>    4.0282    1.0000 </r>
       <r>    4.5107    1.0000 </r>
       <r>    4.5931    1.0000 </r>
       <r>    5.1810    1.0000 </r>
       <r>    6.3369    1.0000 </r>
       <r>    6.5508    1.0000 </r>
       <r>    7.5452    1.0000 </r>
       <r>    7.9605    0.9726 </r>
       <r>    7.9692    0.7542 </r>
       <r>    8.1491    0.0000 </r>
       <r>    8.1720    0.0000 </r>
       <r>    8.3047    0.0000 </r>
      </set>
      <set comment="kpoint 23">
       <r>  -36.2816    1.0000 </r>
       <r>  -14.7171    1.0000 </r>
       <r>  -14.7119    1.0000 </r>
       <r>  -14.6892    1.0000 </r>
       <r>  -14.6860    1.0000 </r>
       <r>  -14.6854    1.0000 </r>
       <r>  -11.5401    1.0000 </r>
       <r>  -11.4621    1.0000 </r>
       <r>  -11.4590    1.0000 </r>
       <r>   -3.0807    1.0000 </r>
       <r>    2.7427    1.0000 </r>
       <r>    3.7439    1.0000 </r>
       <r>    3.9625    1.0000 </r>
       <r>    4.4963    1.0000 </r>
       <r>    4.6028    1.0000 </r>
       <r>    4.9006    1.0000 </r>
       <r>    6.2241    1.0000 </r>
       <r>    6.5442    1.0000 </r>
       <r>    7.5522    1.0000 </r>
       <r>    7.9817    0.1400 </r>
       <r>    7.9855    0.0531 </r>
       <r>    8.1631    0.0000 </r>
       <r>    8.1684    0.0000 </r>
       <r>    8.2875    0.0000 </r>
      </set>
      <set comment="kpoint 24">
       <r>  -36.2814    1.0000 </r>
       <r>  -14.7169    1.0000 </r>
       <r>  -14.7148    1.0000 </r>
       <r>  -14.6893    1.0000 </r>
       <r>  -14.6860    1.0000 </r>
       <r>  -14.6851    1.0000 </r>
       <r>  -11.5547    1.0000 </r>
       <r>  -11.4602    1.0000 </r>
       <r>  -11.4559    1.0000 </r>
       <r>   -2.9717    1.0000 </r>
       <r>    2.6874    1.0000 </r>
       <r>    3.6984    1.0000 </r>
       <r>    3.8753    1.0000 </r>
       <r>    4.4965    1.0000 </r>
       <r>    4.5527    1.0000 </r>
       <r>    4.7025    1.0000 </r>
       <r>    6.1703    1.0000 </r>
       <r>    6.5534    1.0000 </r>
       <r>    7.5705    1.0000 </r>
       <r>    8.0070    0.0000 </r>
       <r>    8.0077    0.0000 </r>
       <r>    8.1585    0.0000 </r>
       <r>    8.1714    0.0000 </r>
       <r>    8.2742    0.0000 </r>
      </set>
      <set comment="kpoint 25">
       <r>  -36.2813    1.0000 </r>
       <r>  -14.7173    1.0000 </r>
       <r>  -14.7160    1.0000 </r>
       <r>  -14.6892    1.0000 </r>
       <r>  -14.6860    1.0000 </r>
       <r>  -14.6851    1.0000 </r>
       <r>  -11.5603    1.0000 </r>
       <r>  -11.4640    1.0000 </r>
       <r>  -11.4500    1.0000 </r>
       <r>   -2.9207    1.0000 </r>
       <r>    2.6656    1.0000 </r>
       <r>    3.7291    1.0000 </r>
       <r>    3.7700    1.0000 </r>
       <r>    4.4827    1.0000 </r>
       <r>    4.5405    1.0000 </r>
       <r>    4.6253    1.0000 </r>
       <r>    6.1350    1.0000 </r>
       <r>    6.5634    1.0000 </r>
       <r>    7.5883    1.0000 </r>
       <r>    8.0071    0.0000 </r>
       <r>    8.0403    0.0000 </r>
       <r>    8.1373    0.0000 </r>
       <r>    8.1906    0.0000 </r>
       <r>    8.2486    0.0000 </r>
      </set>
      <set comment="kpoint 26">
       <r>  -36.2813    1.0000 </r>
       <r>  -14.7188    1.0000 </r>
       <r>  -14.7145    1.0000 </r>
       <r>  -14.6890    1.0000 </r>
       <r>  -14.6860    1.0000 </r>
       <r>  -14.6853    1.0000 </r>
       <r>  -11.5563    1.0000 </r>
       <r>  -11.4693    1.0000 </r>
       <r>  -11.4456    1.0000 </r>
       <r>   -2.9389    1.0000 </r>
       <r>    2.6724    1.0000 </r>
       <r>    3.6727    1.0000 </r>
       <r>    3.8184    1.0000 </r>
       <r>    4.4477    1.0000 </r>
       <r>    4.6152    1.0000 </r>
       <r>    4.6647    1.0000 </r>
       <r>    6.0871    1.0000 </r>
       <r>    6.5818    1.0000 </r>
       <r>    7.5869    1.0000 </r>
       <r>    7.9867    0.0377 </r>
       <r>    8.0543    0.0000 </r>
       <r>    8.1254    0.0000 </r>
       <r>    8.2142    0.0000 </r>
       <r>    8.2202    0.0000 </r>
      </set>
      <set comment="kpoint 27">
       <r>  -36.2815    1.0000 </r>
       <r>  -14.7190    1.0000 </r>
       <r>  -14.7127    1.0000 </r>
       <r>  -14.6888    1.0000 </r>
       <r>  -14.6861    1.0000 </r>
       <r>  -14.6857    1.0000 </r>
       <r>  -11.5438    1.0000 </r>
       <r>  -11.4745    1.0000 </r>
       <r>  -11.4438    1.0000 </r>
       <r>   -3.0234    1.0000 </r>
       <r>    2.7284    1.0000 </r>
       <r>    3.6102    1.0000 </r>
       <r>    3.9363    1.0000 </r>
       <r>    4.4404    1.0000 </r>
       <r>    4.6868    1.0000 </r>
       <r>    4.8301    1.0000 </r>
       <r>    6.0263    1.0000 </r>
       <r>    6.6282    1.0000 </r>
       <r>    7.5678    1.0000 </r>
       <r>    7.9670    0.8442 </r>
       <r>    8.0255    0.0000 </r>
       <r>    8.1453    0.0000 </r>
       <r>    8.2082    0.0000 </r>
       <r>    8.2346    0.0000 </r>
      </set>
      <set comment="kpoint 28">
       <r>  -36.2818    1.0000 </r>
       <r>  -14.7179    1.0000 </r>
       <r>  -14.7110    1.0000 </r>
       <r>  -14.6885    1.0000 </r>
       <r>  -14.6863    1.0000 </r>
       <r>  -14.6862    1.0000 </r>
       <r>  -11.5262    1.0000 </r>
       <r>  -11.4773    1.0000 </r>
       <r>  -11.4449    1.0000 </r>
       <r>   -3.1559    1.0000 </r>
       <r>    2.8607    1.0000 </r>
       <r>    3.5998    1.0000 </r>
       <r>    4.0486    1.0000 </r>
       <r>    4.4446    1.0000 </r>
       <r>    4.7216    1.0000 </r>
       <r>    5.0767    1.0000 </r>
       <r>    6.0091    1.0000 </r>
       <r>    6.7153    1.0000 </r>
       <r>    7.5439    1.0000 </r>
       <r>    7.9571    0.9921 </r>
       <r>    7.9926    0.0045 </r>
       <r>    8.1525    0.0000 </r>
       <r>    8.1890    0.0000 </r>
       <r>    8.2868    0.0000 </r>
      </set>
      <set comment="kpoint 29">
       <r>  -36.2822    1.0000 </r>
       <r>  -14.7158    1.0000 </r>
       <r>  -14.7099    1.0000 </r>
       <r>  -14.6883    1.0000 </r>
       <r>  -14.6866    1.0000 </r>
       <r>  -14.6865    1.0000 </r>
       <r>  -11.5092    1.0000 </r>
       <r>  -11.4751    1.0000 </r>
       <r>  -11.4488    1.0000 </r>
       <r>   -3.3058    1.0000 </r>
       <r>    3.0770    1.0000 </r>
       <r>    3.6478    1.0000 </r>
       <r>    4.1099    1.0000 </r>
       <r>    4.4458    1.0000 </r>
       <r>    4.7034    1.0000 </r>
       <r>    5.2935    1.0000 </r>
       <r>    6.1674    1.0000 </r>
       <r>    6.8255    1.0000 </r>
       <r>    7.5064    1.0000 </r>
       <r>    7.9557    0.9953 </r>
       <r>    7.9690    0.7651 </r>
       <r>    8.1483    0.0000 </r>
       <r>    8.1661    0.0000 </r>
       <r>    8.2957    0.0000 </r>
      </set>
      <set comment="kpoint 30">
       <r>  -36.2821    1.0000 </r>
       <r>  -14.7157    1.0000 </r>
       <r>  -14.7064    1.0000 </r>
       <r>  -14.6892    1.0000 </r>
       <r>  -14.6860    1.0000 </r>
       <r>  -14.6860    1.0000 </r>
       <r>  -11.4974    1.0000 </r>
       <r>  -11.4735    1.0000 </r>
       <r>  -11.4735    1.0000 </r>
       <r>   -3.3040    1.0000 </r>
       <r>    2.8591    1.0000 </r>
       <r>    4.1316    1.0000 </r>
       <r>    4.1316    1.0000 </r>
       <r>    4.4216    1.0000 </r>
       <r>    4.5087    1.0000 </r>
       <r>    5.4267    1.0000 </r>
       <r>    6.5081    1.0000 </r>
       <r>    6.5081    1.0000 </r>
       <r>    7.5228    1.0000 </r>
       <r>    7.9711    0.6661 </r>
       <r>    7.9711    0.6661 </r>
       <r>    8.0596    0.0000 </r>
       <r>    8.1991    0.0000 </r>
       <r>    8.3191    0.0000 </r>
      </set>
      <set comment="kpoint 31">
       <r>  -36.2818    1.0000 </r>
       <r>  -14.7157    1.0000 </r>
       <r>  -14.7068    1.0000 </r>
       <r>  -14.6895    1.0000 </r>
       <r>  -14.6856    1.0000 </r>
       <r>  -14.6855    1.0000 </r>
       <r>  -11.5133    1.0000 </r>
       <r>  -11.4741    1.0000 </r>
       <r>  -11.4725    1.0000 </r>
       <r>   -3.2092    1.0000 </r>
       <r>    2.7731    1.0000 </r>
       <r>    4.0301    1.0000 </r>
       <r>    4.1144    1.0000 </r>
       <r>    4.4557    1.0000 </r>
       <r>    4.5315    1.0000 </r>
       <r>    5.2715    1.0000 </r>
       <r>    6.3384    1.0000 </r>
       <r>    6.4675    1.0000 </r>
       <r>    7.5813    1.0000 </r>
       <r>    7.9624    0.9510 </r>
       <r>    7.9759    0.3977 </r>
       <r>    8.0947    0.0000 </r>
       <r>    8.2124    0.0000 </r>
       <r>    8.3447    0.0000 </r>
      </set>
      <set comment="kpoint 32">
       <r>  -36.2815    1.0000 </r>
       <r>  -14.7152    1.0000 </r>
       <r>  -14.7086    1.0000 </r>
       <r>  -14.6897    1.0000 </r>
       <r>  -14.6855    1.0000 </r>
       <r>  -14.6850    1.0000 </r>
       <r>  -11.5313    1.0000 </r>
       <r>  -11.4720    1.0000 </r>
       <r>  -11.4712    1.0000 </r>
       <r>   -3.1070    1.0000 </r>
       <r>    2.7727    1.0000 </r>
       <r>    3.8690    1.0000 </r>
       <r>    4.0571    1.0000 </r>
       <r>    4.5275    1.0000 </r>
       <r>    4.5360    1.0000 </r>
       <r>    5.0518    1.0000 </r>
       <r>    6.0958    1.0000 </r>
       <r>    6.4678    1.0000 </r>
       <r>    7.6401    1.0000 </r>
       <r>    7.9741    0.4994 </r>
       <r>    7.9879    0.0254 </r>
       <r>    8.1139    0.0000 </r>
       <r>    8.2114    0.0000 </r>
       <r>    8.3182    0.0000 </r>
      </set>
      <set comment="kpoint 33">
       <r>  -36.2813    1.0000 </r>
       <r>  -14.7142    1.0000 </r>
       <r>  -14.7114    1.0000 </r>
       <r>  -14.6896    1.0000 </r>
       <r>  -14.6856    1.0000 </r>
       <r>  -14.6847    1.0000 </r>
       <r>  -11.5441    1.0000 </r>
       <r>  -11.4752    1.0000 </r>
       <r>  -11.4655    1.0000 </r>
       <r>   -3.0195    1.0000 </r>
       <r>    2.8322    1.0000 </r>
       <r>    3.7543    1.0000 </r>
       <r>    3.9614    1.0000 </r>
       <r>    4.5417    1.0000 </r>
       <r>    4.5505    1.0000 </r>
       <r>    4.8483    1.0000 </r>
       <r>    5.9108    1.0000 </r>
       <r>    6.4773    1.0000 </r>
       <r>    7.6655    1.0000 </r>
       <r>    7.9956    0.0012 </r>
       <r>    8.0101    0.0000 </r>
       <r>    8.1389    0.0000 </r>
       <r>    8.1988    0.0000 </r>
       <r>    8.2951    0.0000 </r>
      </set>
      <set comment="kpoint 34">
       <r>  -36.2811    1.0000 </r>
       <r>  -14.7144    1.0000 </r>
       <r>  -14.7131    1.0000 </r>
       <r>  -14.6891    1.0000 </r>
       <r>  -14.6860    1.0000 </r>
       <r>  -14.6847    1.0000 </r>
       <r>  -11.5491    1.0000 </r>
       <r>  -11.4816    1.0000 </r>
       <r>  -11.4583    1.0000 </r>
       <r>   -2.9632    1.0000 </r>
       <r>    2.8859    1.0000 </r>
       <r>    3.7151    1.0000 </r>
       <r>    3.8384    1.0000 </r>
       <r>    4.4825    1.0000 </r>
       <r>    4.5967    1.0000 </r>
       <r>    4.7591    1.0000 </r>
       <r>    5.7942    1.0000 </r>
       <r>    6.4802    1.0000 </r>
       <r>    7.6806    1.0000 </r>
       <r>    7.9982    0.0003 </r>
       <r>    8.0421    0.0000 </r>
       <r>    8.1702    0.0000 </r>
       <r>    8.1780    0.0000 </r>
       <r>    8.2679    0.0000 </r>
      </set>
      <set comment="kpoint 35">
       <r>  -36.2811    1.0000 </r>
       <r>  -14.7170    1.0000 </r>
       <r>  -14.7120    1.0000 </r>
       <r>  -14.6886    1.0000 </r>
       <r>  -14.6864    1.0000 </r>
       <r>  -14.6849    1.0000 </r>
       <r>  -11.5461    1.0000 </r>
       <r>  -11.4889    1.0000 </r>
       <r>  -11.4513    1.0000 </r>
       <r>   -2.9481    1.0000 </r>
       <r>    2.8682    1.0000 </r>
       <r>    3.7168    1.0000 </r>
       <r>    3.7624    1.0000 </r>
       <r>    4.4393    1.0000 </r>
       <r>    4.6628    1.0000 </r>
       <r>    4.7847    1.0000 </r>
       <r>    5.7144    1.0000 </r>
       <r>    6.4886    1.0000 </r>
       <r>    7.6835    1.0000 </r>
       <r>    7.9819    0.1345 </r>
       <r>    8.0786    0.0000 </r>
       <r>    8.1276    0.0000 </r>
       <r>    8.2031    0.0000 </r>
       <r>    8.2432    0.0000 </r>
      </set>
      <set comment="kpoint 36">
       <r>  -36.2813    1.0000 </r>
       <r>  -14.7187    1.0000 </r>
       <r>  -14.7112    1.0000 </r>
       <r>  -14.6882    1.0000 </r>
       <r>  -14.6866    1.0000 </r>
       <r>  -14.6853    1.0000 </r>
       <r>  -11.5379    1.0000 </r>
       <r>  -11.4933    1.0000 </r>
       <r>  -11.4461    1.0000 </r>
       <r>   -2.9790    1.0000 </r>
       <r>    2.8056    1.0000 </r>
       <r>    3.6250    1.0000 </r>
       <r>    3.8723    1.0000 </r>
       <r>    4.4334    1.0000 </r>
       <r>    4.7202    1.0000 </r>
       <r>    4.9091    1.0000 </r>
       <r>    5.6596    1.0000 </r>
       <r>    6.5273    1.0000 </r>
       <r>    7.6645    1.0000 </r>
       <r>    7.9646    0.9110 </r>
       <r>    8.0712    0.0000 </r>
       <r>    8.1274    0.0000 </r>
       <r>    8.2013    0.0000 </r>
       <r>    8.2295    0.0000 </r>
      </set>
      <set comment="kpoint 37">
       <r>  -36.2815    1.0000 </r>
       <r>  -14.7190    1.0000 </r>
       <r>  -14.7109    1.0000 </r>
       <r>  -14.6883    1.0000 </r>
       <r>  -14.6865    1.0000 </r>
       <r>  -14.6858    1.0000 </r>
       <r>  -11.5304    1.0000 </r>
       <r>  -11.4896    1.0000 </r>
       <r>  -11.4437    1.0000 </r>
       <r>   -3.0530    1.0000 </r>
       <r>    2.7848    1.0000 </r>
       <r>    3.5825    1.0000 </r>
       <r>    3.9936    1.0000 </r>
       <r>    4.4330    1.0000 </r>
       <r>    4.7427    1.0000 </r>
       <r>    5.0438    1.0000 </r>
       <r>    5.7164    1.0000 </r>
       <r>    6.6095    1.0000 </r>
       <r>    7.6209    1.0000 </r>
       <r>    7.9577    0.9899 </r>
       <r>    8.0298    0.0000 </r>
       <r>    8.1520    0.0000 </r>
       <r>    8.1941    0.0000 </r>
       <r>    8.2418    0.0000 </r>
      </set>
      <set comment="kpoint 38">
       <r>  -36.2816    1.0000 </r>
       <r>  -14.7144    1.0000 </r>
       <r>  -14.7057    1.0000 </r>
       <r>  -14.6901    1.0000 </r>
       <r>  -14.6850    1.0000 </r>
       <r>  -14.6850    1.0000 </r>
       <r>  -11.5191    1.0000 </r>
       <r>  -11.4782    1.0000 </r>
       <r>  -11.4782    1.0000 </r>
       <r>   -3.1692    1.0000 </r>
       <r>    2.7631    1.0000 </r>
       <r>    4.1366    1.0000 </r>
       <r>    4.1366    1.0000 </r>
       <r>    4.3024    1.0000 </r>
       <r>    4.5656    1.0000 </r>
       <r>    5.1872    1.0000 </r>
       <r>    6.4341    1.0000 </r>
       <r>    6.4341    1.0000 </r>
       <r>    7.5801    1.0000 </r>
       <r>    7.9834    0.0936 </r>
       <r>    7.9834    0.0936 </r>
       <r>    8.0506    0.0000 </r>
       <r>    8.2466    0.0000 </r>
       <r>    8.4443    0.0000 </r>
      </set>
      <set comment="kpoint 39">
       <r>  -36.2813    1.0000 </r>
       <r>  -14.7128    1.0000 </r>
       <r>  -14.7062    1.0000 </r>
       <r>  -14.6904    1.0000 </r>
       <r>  -14.6847    1.0000 </r>
       <r>  -14.6846    1.0000 </r>
       <r>  -11.5314    1.0000 </r>
       <r>  -11.4801    1.0000 </r>
       <r>  -11.4784    1.0000 </r>
       <r>   -3.1156    1.0000 </r>
       <r>    2.8403    1.0000 </r>
       <r>    4.0065    1.0000 </r>
       <r>    4.1092    1.0000 </r>
       <r>    4.3645    1.0000 </r>
       <r>    4.5843    1.0000 </r>
       <r>    5.0191    1.0000 </r>
       <r>    6.2766    1.0000 </r>
       <r>    6.4405    1.0000 </r>
       <r>    7.6808    1.0000 </r>
       <r>    7.9746    0.4710 </r>
       <r>    7.9950    0.0015 </r>
       <r>    8.0627    0.0000 </r>
       <r>    8.2609    0.0000 </r>
       <r>    8.3699    0.0000 </r>
      </set>
      <set comment="kpoint 40">
       <r>  -36.2811    1.0000 </r>
       <r>  -14.7112    1.0000 </r>
       <r>  -14.7081    1.0000 </r>
       <r>  -14.6903    1.0000 </r>
       <r>  -14.6848    1.0000 </r>
       <r>  -14.6843    1.0000 </r>
       <r>  -11.5405    1.0000 </r>
       <r>  -11.4849    1.0000 </r>
       <r>  -11.4748    1.0000 </r>
       <r>   -3.0603    1.0000 </r>
       <r>    2.9828    1.0000 </r>
       <r>    3.8513    1.0000 </r>
       <r>    4.0356    1.0000 </r>
       <r>    4.4544    1.0000 </r>
       <r>    4.6024    1.0000 </r>
       <r>    4.8471    1.0000 </r>
       <r>    5.9656    1.0000 </r>
       <r>    6.4491    1.0000 </r>
       <r>    7.7514    1.0000 </r>
       <r>    7.9802    0.1943 </r>
       <r>    8.0133    0.0000 </r>
       <r>    8.1009    0.0000 </r>
       <r>    8.2564    0.0000 </r>
       <r>    8.3118    0.0000 </r>
      </set>
      <set comment="kpoint 41">
       <r>  -36.2810    1.0000 </r>
       <r>  -14.7109    1.0000 </r>
       <r>  -14.7101    1.0000 </r>
       <r>  -14.6898    1.0000 </r>
       <r>  -14.6853    1.0000 </r>
       <r>  -14.6843    1.0000 </r>
       <r>  -11.5419    1.0000 </r>
       <r>  -11.4941    1.0000 </r>
       <r>  -11.4680    1.0000 </r>
       <r>   -3.0120    1.0000 </r>
       <r>    3.1185    1.0000 </r>
       <r>    3.7470    1.0000 </r>
       <r>    3.9245    1.0000 </r>
       <r>    4.4498    1.0000 </r>
       <r>    4.6392    1.0000 </r>
       <r>    4.7892    1.0000 </r>
       <r>    5.6757    1.0000 </r>
       <r>    6.4402    1.0000 </r>
       <r>    7.7622    1.0000 </r>
       <r>    7.9893    0.0159 </r>
       <r>    8.0381    0.0000 </r>
       <r>    8.1585    0.0000 </r>
       <r>    8.2297    0.0000 </r>
       <r>    8.2662    0.0000 </r>
      </set>
      <set comment="kpoint 42">
       <r>  -36.2810    1.0000 </r>
       <r>  -14.7141    1.0000 </r>
       <r>  -14.7097    1.0000 </r>
       <r>  -14.6890    1.0000 </r>
       <r>  -14.6861    1.0000 </r>
       <r>  -14.6845    1.0000 </r>
       <r>  -11.5359    1.0000 </r>
       <r>  -11.5051    1.0000 </r>
       <r>  -11.4598    1.0000 </r>
       <r>   -2.9775    1.0000 </r>
       <r>    3.1241    1.0000 </r>
       <r>    3.7169    1.0000 </r>
       <r>    3.8010    1.0000 </r>
       <r>    4.4101    1.0000 </r>
       <r>    4.6863    1.0000 </r>
       <r>    4.8600    1.0000 </r>
       <r>    5.4859    1.0000 </r>
       <r>    6.4311    1.0000 </r>
       <r>    7.7524    1.0000 </r>
       <r>    7.9811    0.1598 </r>
       <r>    8.0672    0.0000 </r>
       <r>    8.1762    0.0000 </r>
       <r>    8.1966    0.0000 </r>
       <r>    8.2649    0.0000 </r>
      </set>
      <set comment="kpoint 43">
       <r>  -36.2811    1.0000 </r>
       <r>  -14.7169    1.0000 </r>
       <r>  -14.7101    1.0000 </r>
       <r>  -14.6881    1.0000 </r>
       <r>  -14.6868    1.0000 </r>
       <r>  -14.6848    1.0000 </r>
       <r>  -11.5312    1.0000 </r>
       <r>  -11.5082    1.0000 </r>
       <r>  -11.4518    1.0000 </r>
       <r>   -2.9643    1.0000 </r>
       <r>    2.9728    1.0000 </r>
       <r>    3.6935    1.0000 </r>
       <r>    3.7754    1.0000 </r>
       <r>    4.4193    1.0000 </r>
       <r>    4.7196    1.0000 </r>
       <r>    4.9406    1.0000 </r>
       <r>    5.4532    1.0000 </r>
       <r>    6.4547    1.0000 </r>
       <r>    7.7232    1.0000 </r>
       <r>    7.9677    0.8173 </r>
       <r>    8.0976    0.0000 </r>
       <r>    8.1210    0.0000 </r>
       <r>    8.1991    0.0000 </r>
       <r>    8.2446    0.0000 </r>
      </set>
      <set comment="kpoint 44">
       <r>  -36.2812    1.0000 </r>
       <r>  -14.7104    1.0000 </r>
       <r>  -14.7051    1.0000 </r>
       <r>  -14.6909    1.0000 </r>
       <r>  -14.6842    1.0000 </r>
       <r>  -14.6842    1.0000 </r>
       <r>  -11.5395    1.0000 </r>
       <r>  -11.4822    1.0000 </r>
       <r>  -11.4822    1.0000 </r>
       <r>   -3.1080    1.0000 </r>
       <r>    2.9720    1.0000 </r>
       <r>    4.1193    1.0000 </r>
       <r>    4.1193    1.0000 </r>
       <r>    4.1898    1.0000 </r>
       <r>    4.6140    1.0000 </r>
       <r>    4.8571    1.0000 </r>
       <r>    6.4562    1.0000 </r>
       <r>    6.4562    1.0000 </r>
       <r>    7.7297    1.0000 </r>
       <r>    8.0045    0.0000 </r>
       <r>    8.0045    0.0000 </r>
       <r>    8.0146    0.0000 </r>
       <r>    8.2941    0.0000 </r>
       <r>    8.4422    0.0000 </r>
      </set>
      <set comment="kpoint 45">
       <r>  -36.2810    1.0000 </r>
       <r>  -14.7085    1.0000 </r>
       <r>  -14.7057    1.0000 </r>
       <r>  -14.6910    1.0000 </r>
       <r>  -14.6840    1.0000 </r>
       <r>  -14.6839    1.0000 </r>
       <r>  -11.5461    1.0000 </r>
       <r>  -11.4855    1.0000 </r>
       <r>  -11.4816    1.0000 </r>
       <r>   -3.0868    1.0000 </r>
       <r>    3.1499    1.0000 </r>
       <r>    3.9700    1.0000 </r>
       <r>    4.0859    1.0000 </r>
       <r>    4.2965    1.0000 </r>
       <r>    4.6315    1.0000 </r>
       <r>    4.6758    1.0000 </r>
       <r>    6.2950    1.0000 </r>
       <r>    6.4710    1.0000 </r>
       <r>    7.8372    1.0000 </r>
       <r>    7.9764    0.3722 </r>
       <r>    8.0174    0.0000 </r>
       <r>    8.0600    0.0000 </r>
       <r>    8.3051    0.0000 </r>
       <r>    8.3304    0.0000 </r>
      </set>
      <set comment="kpoint 46">
       <r>  -36.2810    1.0000 </r>
       <r>  -14.7077    1.0000 </r>
       <r>  -14.7077    1.0000 </r>
       <r>  -14.6906    1.0000 </r>
       <r>  -14.6844    1.0000 </r>
       <r>  -14.6839    1.0000 </r>
       <r>  -11.5457    1.0000 </r>
       <r>  -11.4934    1.0000 </r>
       <r>  -11.4769    1.0000 </r>
       <r>   -3.0551    1.0000 </r>
       <r>    3.3033    1.0000 </r>
       <r>    3.8304    1.0000 </r>
       <r>    4.0096    1.0000 </r>
       <r>    4.3780    1.0000 </r>
       <r>    4.6085    1.0000 </r>
       <r>    4.6547    1.0000 </r>
       <r>    5.9294    1.0000 </r>
       <r>    6.4554    1.0000 </r>
       <r>    7.8462    1.0000 </r>
       <r>    7.9850    0.0619 </r>
       <r>    8.0333    0.0000 </r>
       <r>    8.1418    0.0000 </r>
       <r>    8.2493    0.0000 </r>
       <r>    8.2996    0.0000 </r>
      </set>
      <set comment="kpoint 47">
       <r>  -36.2809    1.0000 </r>
       <r>  -14.7108    1.0000 </r>
       <r>  -14.7081    1.0000 </r>
       <r>  -14.6899    1.0000 </r>
       <r>  -14.6852    1.0000 </r>
       <r>  -14.6841    1.0000 </r>
       <r>  -11.5386    1.0000 </r>
       <r>  -11.5039    1.0000 </r>
       <r>  -11.4690    1.0000 </r>
       <r>   -3.0165    1.0000 </r>
       <r>    3.3125    1.0000 </r>
       <r>    3.7339    1.0000 </r>
       <r>    3.9064    1.0000 </r>
       <r>    4.3758    1.0000 </r>
       <r>    4.6795    1.0000 </r>
       <r>    4.7485    1.0000 </r>
       <r>    5.5932    1.0000 </r>
       <r>    6.4277    1.0000 </r>
       <r>    7.8050    1.0000 </r>
       <r>    7.9868    0.0362 </r>
       <r>    8.0504    0.0000 </r>
       <r>    8.1970    0.0000 </r>
       <r>    8.2468    0.0000 </r>
       <r>    8.2586    0.0000 </r>
      </set>
      <set comment="kpoint 48">
       <r>  -36.2810    1.0000 </r>
       <r>  -14.7069    1.0000 </r>
       <r>  -14.7048    1.0000 </r>
       <r>  -14.6913    1.0000 </r>
       <r>  -14.6837    1.0000 </r>
       <r>  -14.6837    1.0000 </r>
       <r>  -11.5521    1.0000 </r>
       <r>  -11.4846    1.0000 </r>
       <r>  -11.4846    1.0000 </r>
       <r>   -3.0952    1.0000 </r>
       <r>    3.3109    1.0000 </r>
       <r>    4.1015    1.0000 </r>
       <r>    4.1015    1.0000 </r>
       <r>    4.1235    1.0000 </r>
       <r>    4.5027    1.0000 </r>
       <r>    4.6419    1.0000 </r>
       <r>    6.4997    1.0000 </r>
       <r>    6.4997    1.0000 </r>
       <r>    7.9394    1.0000 </r>
       <r>    7.9954    0.0013 </r>
       <r>    8.0225    0.0000 </r>
       <r>    8.0225    0.0000 </r>
       <r>    8.2711    0.0000 </r>
       <r>    8.3255    0.0000 </r>
      </set>
      <set comment="kpoint 49">
       <r>  -36.2809    1.0000 </r>
       <r>  -14.7066    1.0000 </r>
       <r>  -14.7055    1.0000 </r>
       <r>  -14.6912    1.0000 </r>
       <r>  -14.6838    1.0000 </r>
       <r>  -14.6836    1.0000 </r>
       <r>  -11.5519    1.0000 </r>
       <r>  -11.4875    1.0000 </r>
       <r>  -11.4828    1.0000 </r>
       <r>   -3.0842    1.0000 </r>
       <r>    3.3826    1.0000 </r>
       <r>    3.9532    1.0000 </r>
       <r>    4.0743    1.0000 </r>
       <r>    4.2699    1.0000 </r>
       <r>    4.4495    1.0000 </r>
       <r>    4.6500    1.0000 </r>
       <r>    6.3140    1.0000 </r>
       <r>    6.4916    1.0000 </r>
       <r>    7.9333    1.0000 </r>
       <r>    7.9826    0.1148 </r>
       <r>    8.0280    0.0000 </r>
       <r>    8.1136    0.0000 </r>
       <r>    8.2080    0.0000 </r>
       <r>    8.3249    0.0000 </r>
      </set>
      <set comment="kpoint 50">
       <r>  -36.2824    1.0000 </r>
       <r>  -14.7138    1.0000 </r>
       <r>  -14.7084    1.0000 </r>
       <r>  -14.6883    1.0000 </r>
       <r>  -14.6868    1.0000 </r>
       <r>  -14.6867    1.0000 </r>
       <r>  -11.4932    1.0000 </r>
       <r>  -11.4709    1.0000 </r>
       <r>  -11.4580    1.0000 </r>
       <r>   -3.4317    1.0000 </r>
       <r>    3.2276    1.0000 </r>
       <r>    3.8709    1.0000 </r>
       <r>    4.1071    1.0000 </r>
       <r>    4.4595    1.0000 </r>
       <r>    4.6077    1.0000 </r>
       <r>    5.4851    1.0000 </r>
       <r>    6.4886    1.0000 </r>
       <r>    6.8072    1.0000 </r>
       <r>    7.4955    1.0000 </r>
       <r>    7.9469    0.9999 </r>
       <r>    7.9677    0.8184 </r>
       <r>    8.0826    0.0000 </r>
       <r>    8.1511    0.0000 </r>
       <r>    8.2204    0.0000 </r>
      </set>
      <set comment="kpoint 51">
       <r>  -36.2821    1.0000 </r>
       <r>  -14.7160    1.0000 </r>
       <r>  -14.7097    1.0000 </r>
       <r>  -14.6886    1.0000 </r>
       <r>  -14.6865    1.0000 </r>
       <r>  -14.6863    1.0000 </r>
       <r>  -11.5126    1.0000 </r>
       <r>  -11.4716    1.0000 </r>
       <r>  -11.4526    1.0000 </r>
       <r>   -3.2836    1.0000 </r>
       <r>    2.9878    1.0000 </r>
       <r>    3.7484    1.0000 </r>
       <r>    4.0694    1.0000 </r>
       <r>    4.4752    1.0000 </r>
[...]
       <r>    7.7678    1.0000 </r>
       <r>    8.0019    0.0000 </r>
       <r>    8.1032    0.0000 </r>
       <r>    8.1580    0.0000 </r>
       <r>    8.1971    0.0000 </r>
       <r>    8.2601    0.0000 </r>
      </set>
      <set comment="kpoint 81">
       <r>  -36.2810    1.0000 </r>
       <r>  -14.7153    1.0000 </r>
       <r>  -14.7086    1.0000 </r>
       <r>  -14.6885    1.0000 </r>
       <r>  -14.6869    1.0000 </r>
       <r>  -14.6842    1.0000 </r>
       <r>  -11.5318    1.0000 </r>
       <r>  -11.5051    1.0000 </r>
       <r>  -11.4619    1.0000 </r>
       <r>   -2.9845    1.0000 </r>
       <r>    3.0866    1.0000 </r>
       <r>    3.6129    1.0000 </r>
       <r>    3.9791    1.0000 </r>
       <r>    4.4835    1.0000 </r>
       <r>    4.6574    1.0000 </r>
       <r>    4.9010    1.0000 </r>
       <r>    5.2959    1.0000 </r>
       <r>    6.5131    1.0000 </r>
       <r>    7.7498    1.0000 </r>
       <r>    7.9891    0.0167 </r>
       <r>    8.0968    0.0000 </r>
       <r>    8.1471    0.0000 </r>
       <r>    8.1823    0.0000 </r>
       <r>    8.2610    0.0000 </r>
      </set>
      <set comment="kpoint 82">
       <r>  -36.2809    1.0000 </r>
       <r>  -14.7112    1.0000 </r>
       <r>  -14.7063    1.0000 </r>
       <r>  -14.6900    1.0000 </r>
       <r>  -14.6855    1.0000 </r>
       <r>  -14.6836    1.0000 </r>
       <r>  -11.5396    1.0000 </r>
       <r>  -11.4970    1.0000 </r>
       <r>  -11.4771    1.0000 </r>
       <r>   -3.0303    1.0000 </r>
       <r>    3.3283    1.0000 </r>
       <r>    3.6836    1.0000 </r>
       <r>    4.0845    1.0000 </r>
       <r>    4.4829    1.0000 </r>
       <r>    4.5974    1.0000 </r>
       <r>    4.6808    1.0000 </r>
       <r>    5.4667    1.0000 </r>
       <r>    6.5488    1.0000 </r>
       <r>    7.8158    1.0000 </r>
       <r>    8.0031    0.0000 </r>
       <r>    8.0651    0.0000 </r>
       <r>    8.1711    0.0000 </r>
       <r>    8.2349    0.0000 </r>
       <r>    8.2610    0.0000 </r>
      </set>
      <set comment="kpoint 83">
       <r>  -36.2809    1.0000 </r>
       <r>  -14.7128    1.0000 </r>
       <r>  -14.7064    1.0000 </r>
       <r>  -14.6893    1.0000 </r>
       <r>  -14.6863    1.0000 </r>
       <r>  -14.6836    1.0000 </r>
       <r>  -11.5334    1.0000 </r>
       <r>  -11.5047    1.0000 </r>
       <r>  -11.4741    1.0000 </r>
       <r>   -3.0085    1.0000 </r>
       <r>    3.3753    1.0000 </r>
       <r>    3.6088    1.0000 </r>
       <r>    4.0586    1.0000 </r>
       <r>    4.4733    1.0000 </r>
       <r>    4.6570    1.0000 </r>
       <r>    4.7483    1.0000 </r>
       <r>    5.1923    1.0000 </r>
       <r>    6.5492    1.0000 </r>
       <r>    7.7974    1.0000 </r>
       <r>    8.0116    0.0000 </r>
       <r>    8.0886    0.0000 </r>
       <r>    8.1894    0.0000 </r>
       <r>    8.2203    0.0000 </r>
       <r>    8.2325    0.0000 </r>
      </set>
      <set comment="kpoint 84">
       <r>  -36.2809    1.0000 </r>
       <r>  -14.7138    1.0000 </r>
       <r>  -14.7064    1.0000 </r>
       <r>  -14.6886    1.0000 </r>
       <r>  -14.6871    1.0000 </r>
       <r>  -14.6836    1.0000 </r>
       <r>  -11.5295    1.0000 </r>
       <r>  -11.5076    1.0000 </r>
       <r>  -11.4734    1.0000 </r>
       <r>   -2.9991    1.0000 </r>
       <r>    3.3601    1.0000 </r>
       <r>    3.5740    1.0000 </r>
       <r>    4.0694    1.0000 </r>
       <r>    4.5270    1.0000 </r>
       <r>    4.6717    1.0000 </r>
       <r>    4.8098    1.0000 </r>
       <r>    5.0032    1.0000 </r>
       <r>    6.5634    1.0000 </r>
       <r>    7.7867    1.0000 </r>
       <r>    8.0162    0.0000 </r>
       <r>    8.1121    0.0000 </r>
       <r>    8.1669    0.0000 </r>
       <r>    8.2042    0.0000 </r>
       <r>    8.2493    0.0000 </r>
      </set>
     </set>
    </set>
   </array>
  </eigenvalues>
  <separator name="orbital magnetization" >
   <v name="MAGDIPOLOUT">      0.00000000      0.00000000      0.00000000</v>
  </separator>
  <dos>
   <i name="efermi">      7.97410769 </i>
   <total>
    <array>
     <dimension dim="1">gridpoints</dimension>
     <dimension dim="2">spin</dimension>
     <field>energy</field>
     <field>total</field>
     <field>integrated</field>
     <set>
      <set comment="spin 1">
       <r>   -38.5193     0.0000     0.0000 </r>
       <r>   -38.3553     0.0000     0.0000 </r>
       <r>   -38.1913     0.0000     0.0000 </r>
       <r>   -38.0273     0.0000     0.0000 </r>
       <r>   -37.8633     0.0000     0.0000 </r>
       <r>   -37.6993     0.0000     0.0000 </r>
       <r>   -37.5353     0.0000     0.0000 </r>
       <r>   -37.3713     0.0000     0.0000 </r>
       <r>   -37.2073     0.0000     0.0000 </r>
       <r>   -37.0433     0.0000     0.0000 </r>
       <r>   -36.8793     0.0000     0.0000 </r>
       <r>   -36.7153     0.0000     0.0000 </r>
       <r>   -36.5513     0.0000     0.0000 </r>
       <r>   -36.3873     0.0000     0.0000 </r>
       <r>   -36.2233    12.1951     2.0000 </r>
       <r>   -36.0593     0.0000     2.0000 </r>
       <r>   -35.8953     0.0000     2.0000 </r>
       <r>   -35.7313     0.0000     2.0000 </r>
       <r>   -35.5673     0.0000     2.0000 </r>
       <r>   -35.4033     0.0000     2.0000 </r>
       <r>   -35.2393     0.0000     2.0000 </r>
       <r>   -35.0753     0.0000     2.0000 </r>
       <r>   -34.9113     0.0000     2.0000 </r>
       <r>   -34.7473     0.0000     2.0000 </r>
       <r>   -34.5833     0.0000     2.0000 </r>
       <r>   -34.4193     0.0000     2.0000 </r>
       <r>   -34.2553     0.0000     2.0000 </r>
       <r>   -34.0913     0.0000     2.0000 </r>
       <r>   -33.9273     0.0000     2.0000 </r>
       <r>   -33.7633     0.0000     2.0000 </r>
       <r>   -33.5993     0.0000     2.0000 </r>
       <r>   -33.4353     0.0000     2.0000 </r>
       <r>   -33.2713     0.0000     2.0000 </r>
       <r>   -33.1073     0.0000     2.0000 </r>
       <r>   -32.9433     0.0000     2.0000 </r>
       <r>   -32.7793     0.0000     2.0000 </r>
       <r>   -32.6153     0.0000     2.0000 </r>
       <r>   -32.4513     0.0000     2.0000 </r>
       <r>   -32.2873     0.0000     2.0000 </r>
       <r>   -32.1233     0.0000     2.0000 </r>
       <r>   -31.9593     0.0000     2.0000 </r>
       <r>   -31.7953     0.0000     2.0000 </r>
       <r>   -31.6313     0.0000     2.0000 </r>
       <r>   -31.4673     0.0000     2.0000 </r>
       <r>   -31.3033     0.0000     2.0000 </r>
       <r>   -31.1393     0.0000     2.0000 </r>
       <r>   -30.9753     0.0000     2.0000 </r>
       <r>   -30.8113     0.0000     2.0000 </r>
       <r>   -30.6473     0.0000     2.0000 </r>
       <r>   -30.4833     0.0000     2.0000 </r>
       <r>   -30.3193     0.0000     2.0000 </r>
       <r>   -30.1553     0.0000     2.0000 </r>
       <r>   -29.9913     0.0000     2.0000 </r>
       <r>   -29.8273     0.0000     2.0000 </r>
       <r>   -29.6633     0.0000     2.0000 </r>
       <r>   -29.4993     0.0000     2.0000 </r>
       <r>   -29.3353     0.0000     2.0000 </r>
       <r>   -29.1713     0.0000     2.0000 </r>
       <r>   -29.0073     0.0000     2.0000 </r>
       <r>   -28.8433     0.0000     2.0000 </r>
       <r>   -28.6793     0.0000     2.0000 </r>
       <r>   -28.5153     0.0000     2.0000 </r>
       <r>   -28.3513     0.0000     2.0000 </r>
       <r>   -28.1873     0.0000     2.0000 </r>
       <r>   -28.0233     0.0000     2.0000 </r>
       <r>   -27.8593     0.0000     2.0000 </r>
       <r>   -27.6953     0.0000     2.0000 </r>
       <r>   -27.5313     0.0000     2.0000 </r>
       <r>   -27.3673     0.0000     2.0000 </r>
       <r>   -27.2033     0.0000     2.0000 </r>
       <r>   -27.0393     0.0000     2.0000 </r>
       <r>   -26.8753     0.0000     2.0000 </r>
       <r>   -26.7113     0.0000     2.0000 </r>
       <r>   -26.5473     0.0000     2.0000 </r>
       <r>   -26.3833     0.0000     2.0000 </r>
       <r>   -26.2193     0.0000     2.0000 </r>
       <r>   -26.0553     0.0000     2.0000 </r>
       <r>   -25.8913     0.0000     2.0000 </r>
       <r>   -25.7273     0.0000     2.0000 </r>
       <r>   -25.5633     0.0000     2.0000 </r>
       <r>   -25.3993     0.0000     2.0000 </r>
       <r>   -25.2353     0.0000     2.0000 </r>
       <r>   -25.0713     0.0000     2.0000 </r>
       <r>   -24.9073     0.0000     2.0000 </r>
       <r>   -24.7433     0.0000     2.0000 </r>
       <r>   -24.5793     0.0000     2.0000 </r>
       <r>   -24.4154     0.0000     2.0000 </r>
       <r>   -24.2514     0.0000     2.0000 </r>
       <r>   -24.0874     0.0000     2.0000 </r>
       <r>   -23.9234     0.0000     2.0000 </r>
       <r>   -23.7594     0.0000     2.0000 </r>
       <r>   -23.5954     0.0000     2.0000 </r>
       <r>   -23.4314     0.0000     2.0000 </r>
       <r>   -23.2674     0.0000     2.0000 </r>
       <r>   -23.1034     0.0000     2.0000 </r>
       <r>   -22.9394     0.0000     2.0000 </r>
       <r>   -22.7754     0.0000     2.0000 </r>
       <r>   -22.6114     0.0000     2.0000 </r>
       <r>   -22.4474     0.0000     2.0000 </r>
       <r>   -22.2834     0.0000     2.0000 </r>
       <r>   -22.1194     0.0000     2.0000 </r>
       <r>   -21.9554     0.0000     2.0000 </r>
       <r>   -21.7914     0.0000     2.0000 </r>
       <r>   -21.6274     0.0000     2.0000 </r>
       <r>   -21.4634     0.0000     2.0000 </r>
       <r>   -21.2994     0.0000     2.0000 </r>
       <r>   -21.1354     0.0000     2.0000 </r>
       <r>   -20.9714     0.0000     2.0000 </r>
       <r>   -20.8074     0.0000     2.0000 </r>
       <r>   -20.6434     0.0000     2.0000 </r>
       <r>   -20.4794     0.0000     2.0000 </r>
       <r>   -20.3154     0.0000     2.0000 </r>
       <r>   -20.1514     0.0000     2.0000 </r>
       <r>   -19.9874     0.0000     2.0000 </r>
       <r>   -19.8234     0.0000     2.0000 </r>
       <r>   -19.6594     0.0000     2.0000 </r>
       <r>   -19.4954     0.0000     2.0000 </r>
       <r>   -19.3314     0.0000     2.0000 </r>
       <r>   -19.1674     0.0000     2.0000 </r>
       <r>   -19.0034     0.0000     2.0000 </r>
       <r>   -18.8394     0.0000     2.0000 </r>
       <r>   -18.6754     0.0000     2.0000 </r>
       <r>   -18.5114     0.0000     2.0000 </r>
       <r>   -18.3474     0.0000     2.0000 </r>
       <r>   -18.1834     0.0000     2.0000 </r>
       <r>   -18.0194     0.0000     2.0000 </r>
       <r>   -17.8554     0.0000     2.0000 </r>
       <r>   -17.6914     0.0000     2.0000 </r>
       <r>   -17.5274     0.0000     2.0000 </r>
       <r>   -17.3634     0.0000     2.0000 </r>
       <r>   -17.1994     0.0000     2.0000 </r>
       <r>   -17.0354     0.0000     2.0000 </r>
       <r>   -16.8714     0.0000     2.0000 </r>
       <r>   -16.7074     0.0000     2.0000 </r>
       <r>   -16.5434     0.0000     2.0000 </r>
       <r>   -16.3794     0.0000     2.0000 </r>
       <r>   -16.2154     0.0000     2.0000 </r>
       <r>   -16.0514     0.0000     2.0000 </r>
       <r>   -15.8874     0.0000     2.0000 </r>
       <r>   -15.7234     0.0000     2.0000 </r>
       <r>   -15.5594     0.0000     2.0000 </r>
       <r>   -15.3954     0.0000     2.0000 </r>
       <r>   -15.2314     0.0000     2.0000 </r>
       <r>   -15.0674     0.0000     2.0000 </r>
       <r>   -14.9034     0.0000     2.0000 </r>
       <r>   -14.7394     0.0085     2.0014 </r>
       <r>   -14.5754     0.0000    12.0000 </r>
       <r>   -14.4114     0.0000    12.0000 </r>
       <r>   -14.2474     0.0000    12.0000 </r>
       <r>   -14.0834     0.0000    12.0000 </r>
       <r>   -13.9194     0.0000    12.0000 </r>
       <r>   -13.7554     0.0000    12.0000 </r>
       <r>   -13.5914     0.0000    12.0000 </r>
       <r>   -13.4274     0.0000    12.0000 </r>
       <r>   -13.2634     0.0000    12.0000 </r>
       <r>   -13.0994     0.0000    12.0000 </r>
       <r>   -12.9354     0.0000    12.0000 </r>
       <r>   -12.7714     0.0000    12.0000 </r>
       <r>   -12.6074     0.0000    12.0000 </r>
       <r>   -12.4434     0.0000    12.0000 </r>
       <r>   -12.2794     0.0000    12.0000 </r>
       <r>   -12.1154     0.0000    12.0000 </r>
       <r>   -11.9514     0.0000    12.0000 </r>
       <r>   -11.7874     0.0000    12.0000 </r>
       <r>   -11.6234     0.0000    12.0000 </r>
       <r>   -11.4594    23.4379    16.7541 </r>
       <r>   -11.2954     0.0000    18.0000 </r>
       <r>   -11.1314     0.0000    18.0000 </r>
       <r>   -10.9674     0.0000    18.0000 </r>
       <r>   -10.8034     0.0000    18.0000 </r>
       <r>   -10.6394     0.0000    18.0000 </r>
       <r>   -10.4754     0.0000    18.0000 </r>
       <r>   -10.3114     0.0000    18.0000 </r>
       <r>   -10.1474     0.0000    18.0000 </r>
       <r>    -9.9834     0.0000    18.0000 </r>
       <r>    -9.8194     0.0000    18.0000 </r>
       <r>    -9.6554     0.0000    18.0000 </r>
       <r>    -9.4914     0.0000    18.0000 </r>
       <r>    -9.3274     0.0000    18.0000 </r>
       <r>    -9.1634     0.0000    18.0000 </r>
       <r>    -8.9994     0.0000    18.0000 </r>
       <r>    -8.8354     0.0000    18.0000 </r>
       <r>    -8.6714     0.0000    18.0000 </r>
       <r>    -8.5074     0.0000    18.0000 </r>
       <r>    -8.3434     0.0000    18.0000 </r>
       <r>    -8.1794     0.0000    18.0000 </r>
       <r>    -8.0154     0.0000    18.0000 </r>
       <r>    -7.8514     0.0000    18.0000 </r>
       <r>    -7.6874     0.0000    18.0000 </r>
       <r>    -7.5234     0.0000    18.0000 </r>
       <r>    -7.3594     0.0000    18.0000 </r>
       <r>    -7.1954     0.0000    18.0000 </r>
       <r>    -7.0314     0.0000    18.0000 </r>
       <r>    -6.8674     0.0000    18.0000 </r>
       <r>    -6.7034     0.0000    18.0000 </r>
       <r>    -6.5394     0.0000    18.0000 </r>
       <r>    -6.3754     0.0000    18.0000 </r>
       <r>    -6.2114     0.0000    18.0000 </r>
       <r>    -6.0474     0.0000    18.0000 </r>
       <r>    -5.8834     0.0000    18.0000 </r>
       <r>    -5.7194     0.0000    18.0000 </r>
       <r>    -5.5554     0.0000    18.0000 </r>
       <r>    -5.3914     0.0000    18.0000 </r>
       <r>    -5.2274     0.0000    18.0000 </r>
       <r>    -5.0634     0.0000    18.0000 </r>
       <r>    -4.8994     0.0000    18.0000 </r>
       <r>    -4.7354     0.0000    18.0000 </r>
       <r>    -4.5714     0.0000    18.0000 </r>
       <r>    -4.4074     0.0000    18.0000 </r>
       <r>    -4.2434     0.0000    18.0000 </r>
       <r>    -4.0794     0.0000    18.0000 </r>
       <r>    -3.9154     0.0000    18.0000 </r>
       <r>    -3.7514     0.0000    18.0000 </r>
       <r>    -3.5874     0.0795    18.0140 </r>
       <r>    -3.4234     0.2809    18.0998 </r>
       <r>    -3.2594     0.5519    18.2444 </r>
       <r>    -3.0954     1.3681    18.5475 </r>
       <r>    -2.9314     4.6439    19.8840 </r>
       <r>    -2.7674     0.0000    20.0000 </r>
       <r>    -2.6034     0.0000    20.0000 </r>
       <r>    -2.4394     0.0000    20.0000 </r>
       <r>    -2.2754     0.0000    20.0000 </r>
       <r>    -2.1114     0.0000    20.0000 </r>
       <r>    -1.9474     0.0000    20.0000 </r>
       <r>    -1.7834     0.0000    20.0000 </r>
       <r>    -1.6194     0.0000    20.0000 </r>
       <r>    -1.4554     0.0000    20.0000 </r>
       <r>    -1.2914     0.0000    20.0000 </r>
       <r>    -1.1274     0.0000    20.0000 </r>
       <r>    -0.9634     0.0000    20.0000 </r>
       <r>    -0.7994     0.0000    20.0000 </r>
       <r>    -0.6354     0.0000    20.0000 </r>
       <r>    -0.4714     0.0000    20.0000 </r>
       <r>    -0.3074     0.0000    20.0000 </r>
       <r>    -0.1434     0.0000    20.0000 </r>
       <r>     0.0206     0.0000    20.0000 </r>
       <r>     0.1846     0.0000    20.0000 </r>
       <r>     0.3486     0.0000    20.0000 </r>
       <r>     0.5126     0.0000    20.0000 </r>
       <r>     0.6766     0.0000    20.0000 </r>
       <r>     0.8406     0.0000    20.0000 </r>
       <r>     1.0046     0.0000    20.0000 </r>
       <r>     1.1686     0.0000    20.0000 </r>
       <r>     1.3326     0.0000    20.0000 </r>
       <r>     1.4966     0.0000    20.0000 </r>
       <r>     1.6606     0.0000    20.0000 </r>
       <r>     1.8246     0.0000    20.0000 </r>
       <r>     1.9886     0.0000    20.0000 </r>
       <r>     2.1526     0.0000    20.0000 </r>
       <r>     2.3166     0.0000    20.0000 </r>
       <r>     2.4806     0.0095    20.0016 </r>
       <r>     2.6446     0.4439    20.1238 </r>
       <r>     2.8086     2.7718    20.7313 </r>
       <r>     2.9726     0.5924    21.1022 </r>
       <r>     3.1366     0.4647    21.4909 </r>
       <r>     3.3006     0.7566    21.7754 </r>
       <r>     3.4646     0.0000    21.9463 </r>
       <r>     3.6286     1.6139    22.2328 </r>
       <r>     3.7926     3.1040    23.6206 </r>
       <r>     3.9566     3.1212    24.6594 </r>
       <r>     4.1206     3.7239    25.9416 </r>
       <r>     4.2846     0.0718    26.0227 </r>
       <r>     4.4486     2.8439    26.5593 </r>
       <r>     4.6126     5.8839    29.0933 </r>
       <r>     4.7766     2.9494    30.6130 </r>
       <r>     4.9406     1.5436    31.3273 </r>
       <r>     5.1046     0.5793    31.6462 </r>
       <r>     5.2686     0.7107    31.8881 </r>
       <r>     5.4326     0.1591    32.0707 </r>
       <r>     5.5966     1.1347    32.4437 </r>
       <r>     5.7606     0.3798    32.6385 </r>
       <r>     5.9246     0.9948    32.9815 </r>
       <r>     6.0886     0.6321    33.1851 </r>
       <r>     6.2526     0.9429    33.4874 </r>
       <r>     6.4166     0.2737    33.6507 </r>
       <r>     6.5806     5.1140    35.2311 </r>
       <r>     6.7446     1.1298    35.8011 </r>
       <r>     6.9086     0.1395    35.9482 </r>
       <r>     7.0726     0.1698    36.0005 </r>
       <r>     7.2366     0.0851    36.0222 </r>
       <r>     7.4006     0.5283    36.1331 </r>
       <r>     7.5646     1.9072    36.5923 </r>
       <r>     7.7286     2.5320    37.4321 </r>
       <r>     7.8926     0.7151    37.9916 </r>
       <r>     8.0566    14.9496    41.5305 </r>
       <r>     8.2206    16.7053    45.7055 </r>
       <r>     8.3846     2.4841    47.9886 </r>
       <r>     8.5486     0.0000    48.0000 </r>
       <r>     8.7126     0.0000    48.0000 </r>
       <r>     8.8766     0.0000    48.0000 </r>
       <r>     9.0406     0.0000    48.0000 </r>
       <r>     9.2046     0.0000    48.0000 </r>
       <r>     9.3686     0.0000    48.0000 </r>
       <r>     9.5326     0.0000    48.0000 </r>
       <r>     9.6966     0.0000    48.0000 </r>
       <r>     9.8606     0.0000    48.0000 </r>
       <r>    10.0246     0.0000    48.0000 </r>
       <r>    10.1886     0.0000    48.0000 </r>
       <r>    10.3526     0.0000    48.0000 </r>
       <r>    10.5166     0.0000    48.0000 </r>
       <r>    10.6806     0.0000    48.0000 </r>
      </set>
     </set>
    </array>
   </total>
  </dos>
 </calculation>
 <structure name="finalpos" >
  <crystal>
   <varray name="basis" >
    <v>       0.00000000       3.50582359       3.50582359 </v>
    <v>       3.50582359       0.00000000       3.50582359 </v>
    <v>       3.50582359       3.50582359       0.00000000 </v>
   </varray>
   <i name="volume">     86.17874622 </i>
   <varray name="rec_basis" >
    <v>      -0.14261984       0.14261984       0.14261984 </v>
    <v>       0.14261984      -0.14261984       0.14261984 </v>
    <v>       0.14261984       0.14261984      -0.14261984 </v>
   </varray>
  </crystal>
  <varray name="positions" >
   <v>       0.25000000       0.25000000       0.25000000 </v>
   <v>       0.75000000       0.75000000       0.75000000 </v>
   <v>       0.00000000       0.00000000       0.00000000 </v>
  </varray>
 </structure>
</modeling>
