   2   2   0   0
  0.1174064E+02  0.3214245E-09  0.3214245E-09  0.3214245E-09  0.0000000E+00
  1.000000000000000E-004
  CAR 
 unknown system                          
     22.26635044    -10.39018889  301      8.01313171      1.00000000
    -10.390  0.0000E+00  0.0000E+00
    -10.281  0.0000E+00  0.0000E+00
    -10.172  0.0000E+00  0.0000E+00
    -10.064  0.0000E+00  0.0000E+00
     -9.955  0.0000E+00  0.0000E+00
     -9.846  0.0000E+00  0.0000E+00
     -9.737  0.0000E+00  0.0000E+00
     -9.628  0.0000E+00  0.0000E+00
     -9.519  0.0000E+00  0.0000E+00
     -9.410  0.0000E+00  0.0000E+00
     -9.302  0.0000E+00  0.0000E+00
     -9.193  0.0000E+00  0.0000E+00
     -9.084  0.0000E+00  0.0000E+00
     -8.975  0.0000E+00  0.0000E+00
     -8.866  0.3400E-01  0.6869E-03
     -8.757  0.7322E-01  0.6824E-02
     -8.649  0.9948E-01  0.1643E-01
     -8.540  0.1221E+00  0.2848E-01
     -8.431  0.1378E+00  0.4256E-01
     -8.322  0.1548E+00  0.5856E-01
     -8.213  0.1687E+00  0.7614E-01
     -8.104  0.1837E+00  0.9534E-01
     -7.995  0.1954E+00  0.1160E+00
     -7.887  0.2088E+00  0.1380E+00
     -7.778  0.2206E+00  0.1614E+00
     -7.669  0.2320E+00  0.1860E+00
     -7.560  0.2444E+00  0.2119E+00
     -7.451  0.2553E+00  0.2391E+00
     -7.342  0.2663E+00  0.2675E+00
     -7.233  0.2779E+00  0.2971E+00
     -7.125  0.2891E+00  0.3280E+00
     -7.016  0.3000E+00  0.3601E+00
     -6.907  0.3117E+00  0.3934E+00
     -6.798  0.3238E+00  0.4279E+00
     -6.689  0.3353E+00  0.4638E+00
     -6.580  0.3476E+00  0.5010E+00
     -6.471  0.3607E+00  0.5395E+00
     -6.363  0.3745E+00  0.5795E+00
     -6.254  0.3889E+00  0.6211E+00
     -6.145  0.4047E+00  0.6643E+00
     -6.036  0.4221E+00  0.7092E+00
     -5.927  0.4415E+00  0.7562E+00
     -5.818  0.4646E+00  0.8055E+00
     -5.709  0.4926E+00  0.8575E+00
     -5.601  0.5302E+00  0.9131E+00
     -5.492  0.5939E+00  0.9738E+00
     -5.383  0.6468E+00  0.1044E+01
     -5.274  0.6371E+00  0.1115E+01
     -5.165  0.6209E+00  0.1183E+01
     -5.056  0.6147E+00  0.1250E+01
     -4.947  0.5947E+00  0.1316E+01
     -4.839  0.5825E+00  0.1380E+01
     -4.730  0.5669E+00  0.1443E+01
     -4.621  0.5631E+00  0.1504E+01
     -4.512  0.5487E+00  0.1565E+01
     -4.403  0.5413E+00  0.1624E+01
     -4.294  0.5387E+00  0.1683E+01
     -4.185  0.5379E+00  0.1741E+01
     -4.077  0.5497E+00  0.1800E+01
     -3.968  0.5905E+00  0.1862E+01
     -3.859  0.7123E+00  0.1933E+01
     -3.750  0.2379E+00  0.1984E+01
     -3.641  0.4477E-02  0.2000E+01
     -3.532  0.0000E+00  0.2000E+01
     -3.423  0.0000E+00  0.2000E+01
     -3.315  0.0000E+00  0.2000E+01
     -3.206  0.0000E+00  0.2000E+01
     -3.097  0.0000E+00  0.2000E+01
     -2.988  0.0000E+00  0.2000E+01
     -2.879  0.0000E+00  0.2000E+01
     -2.770  0.0000E+00  0.2000E+01
     -2.661  0.0000E+00  0.2000E+01
     -2.553  0.0000E+00  0.2000E+01
     -2.444  0.0000E+00  0.2000E+01
     -2.335  0.0000E+00  0.2000E+01
     -2.226  0.0000E+00  0.2000E+01
     -2.117  0.0000E+00  0.2000E+01
     -2.008  0.6832E-02  0.2000E+01
     -1.899  0.9996E-01  0.2008E+01
     -1.791  0.1710E+00  0.2023E+01
     -1.682  0.2065E+00  0.2043E+01
     -1.573  0.2589E+00  0.2069E+01
     -1.464  0.2971E+00  0.2099E+01
     -1.355  0.4251E+00  0.2139E+01
     -1.246  0.5385E+00  0.2193E+01
     -1.138  0.6745E+00  0.2259E+01
     -1.029  0.9125E+00  0.2344E+01
     -0.920  0.1417E+01  0.2468E+01
     -0.811  0.1513E+01  0.2625E+01
     -0.702  0.8737E+00  0.2743E+01
     -0.593  0.7034E+00  0.2826E+01
     -0.484  0.6003E+00  0.2898E+01
     -0.376  0.5368E+00  0.2959E+01
     -0.267  0.4951E+00  0.3015E+01
     -0.158  0.4421E+00  0.3067E+01
     -0.049  0.4165E+00  0.3113E+01
      0.060  0.3943E+00  0.3157E+01
      0.169  0.3664E+00  0.3199E+01
      0.278  0.3399E+00  0.3237E+01
      0.386  0.3271E+00  0.3273E+01
      0.495  0.3120E+00  0.3308E+01
      0.604  0.2954E+00  0.3341E+01
      0.713  0.2743E+00  0.3372E+01
      0.822  0.3001E+00  0.3402E+01
      0.931  0.4435E+00  0.3442E+01
      1.040  0.4940E+00  0.3492E+01
      1.148  0.5783E+00  0.3551E+01
      1.257  0.7116E+00  0.3621E+01
      1.366  0.7560E+00  0.3704E+01
      1.475  0.7216E+00  0.3784E+01
      1.584  0.6890E+00  0.3862E+01
      1.693  0.6734E+00  0.3936E+01
      1.802  0.6608E+00  0.4008E+01
      1.910  0.6667E+00  0.4081E+01
      2.019  0.6775E+00  0.4154E+01
      2.128  0.6901E+00  0.4228E+01
      2.237  0.7124E+00  0.4304E+01
      2.346  0.7138E+00  0.4382E+01
      2.455  0.7272E+00  0.4460E+01
      2.564  0.7435E+00  0.4541E+01
      2.672  0.7620E+00  0.4623E+01
      2.781  0.8018E+00  0.4709E+01
      2.890  0.8190E+00  0.4798E+01
      2.999  0.8596E+00  0.4889E+01
      3.108  0.9205E+00  0.4985E+01
      3.217  0.1065E+01  0.5093E+01
      3.326  0.1046E+01  0.5206E+01
      3.434  0.1011E+01  0.5318E+01
      3.543  0.1001E+01  0.5428E+01
      3.652  0.9831E+00  0.5536E+01
      3.761  0.9736E+00  0.5642E+01
      3.870  0.9607E+00  0.5747E+01
      3.979  0.9507E+00  0.5851E+01
      4.088  0.9352E+00  0.5954E+01
      4.196  0.9187E+00  0.6055E+01
      4.305  0.9095E+00  0.6154E+01
      4.414  0.8981E+00  0.6253E+01
      4.523  0.8817E+00  0.6350E+01
      4.632  0.8689E+00  0.6445E+01
      4.741  0.8626E+00  0.6539E+01
      4.850  0.8572E+00  0.6633E+01
      4.958  0.8421E+00  0.6725E+01
      5.067  0.8273E+00  0.6816E+01
      5.176  0.8139E+00  0.6906E+01
      5.285  0.8019E+00  0.6993E+01
      5.394  0.7968E+00  0.7080E+01
      5.503  0.7871E+00  0.7167E+01
      5.612  0.7682E+00  0.7251E+01
      5.720  0.7690E+00  0.7335E+01
      5.829  0.7212E+00  0.7418E+01
      5.938  0.5795E+00  0.7487E+01
      6.047  0.5176E+00  0.7547E+01
      6.156  0.4687E+00  0.7600E+01
      6.265  0.4236E+00  0.7649E+01
      6.374  0.3884E+00  0.7693E+01
      6.482  0.3508E+00  0.7733E+01
      6.591  0.3245E+00  0.7770E+01
      6.700  0.2943E+00  0.7803E+01
      6.809  0.2672E+00  0.7834E+01
      6.918  0.2433E+00  0.7862E+01
      7.027  0.2197E+00  0.7887E+01
      7.135  0.1976E+00  0.7910E+01
      7.244  0.1755E+00  0.7930E+01
      7.353  0.1532E+00  0.7948E+01
      7.462  0.1305E+00  0.7963E+01
      7.571  0.1140E+00  0.7977E+01
      7.680  0.8652E-01  0.7988E+01
      7.789  0.5731E-01  0.7996E+01
      7.897  0.5795E-02  0.8000E+01
      8.006  0.0000E+00  0.8000E+01
      8.115  0.0000E+00  0.8000E+01
      8.224  0.0000E+00  0.8000E+01
      8.333  0.0000E+00  0.8000E+01
      8.442  0.0000E+00  0.8000E+01
      8.551  0.0000E+00  0.8000E+01
      8.659  0.0000E+00  0.8000E+01
      8.768  0.0000E+00  0.8000E+01
      8.877  0.0000E+00  0.8000E+01
      8.986  0.1398E-01  0.8000E+01
      9.095  0.8865E-01  0.8006E+01
      9.204  0.1403E+00  0.8019E+01
      9.313  0.1866E+00  0.8036E+01
      9.421  0.2393E+00  0.8060E+01
      9.530  0.2734E+00  0.8088E+01
      9.639  0.3042E+00  0.8119E+01
      9.748  0.3364E+00  0.8154E+01
      9.857  0.3702E+00  0.8192E+01
      9.966  0.4054E+00  0.8235E+01
     10.075  0.4332E+00  0.8280E+01
     10.183  0.4588E+00  0.8329E+01
     10.292  0.4867E+00  0.8380E+01
     10.401  0.5142E+00  0.8435E+01
     10.510  0.5425E+00  0.8492E+01
     10.619  0.5731E+00  0.8553E+01
     10.728  0.6063E+00  0.8617E+01
     10.837  0.6405E+00  0.8685E+01
     10.945  0.6740E+00  0.8757E+01
     11.054  0.7080E+00  0.8832E+01
     11.163  0.7464E+00  0.8911E+01
     11.272  0.7894E+00  0.8994E+01
     11.381  0.8481E+00  0.9083E+01
     11.490  0.9156E+00  0.9179E+01
     11.599  0.9958E+00  0.9283E+01
     11.707  0.1246E+01  0.9404E+01
     11.816  0.1732E+01  0.9567E+01
     11.925  0.1659E+01  0.9763E+01
     12.034  0.1336E+01  0.9923E+01
     12.143  0.1098E+01  0.1005E+02
     12.252  0.9719E+00  0.1016E+02
     12.361  0.6863E+00  0.1025E+02
     12.469  0.5024E+00  0.1032E+02
     12.578  0.5000E+00  0.1037E+02
     12.687  0.4950E+00  0.1042E+02
     12.796  0.9212E+00  0.1049E+02
     12.905  0.1304E+01  0.1063E+02
     13.014  0.9938E+00  0.1075E+02
     13.123  0.1074E+01  0.1086E+02
     13.231  0.1127E+01  0.1098E+02
     13.340  0.1140E+01  0.1111E+02
     13.449  0.1225E+01  0.1124E+02
     13.558  0.1312E+01  0.1138E+02
     13.667  0.1319E+01  0.1152E+02
     13.776  0.1282E+01  0.1166E+02
     13.885  0.1181E+01  0.1180E+02
     13.993  0.8733E+00  0.1191E+02
     14.102  0.8340E+00  0.1200E+02
     14.211  0.8003E+00  0.1209E+02
     14.320  0.8388E+00  0.1218E+02
     14.429  0.8891E+00  0.1227E+02
     14.538  0.9036E+00  0.1237E+02
     14.646  0.8541E+00  0.1246E+02
     14.755  0.8457E+00  0.1256E+02
     14.864  0.8735E+00  0.1265E+02
     14.973  0.1008E+01  0.1275E+02
     15.082  0.9433E+00  0.1285E+02
     15.191  0.9255E+00  0.1296E+02
     15.300  0.9364E+00  0.1306E+02
     15.408  0.9245E+00  0.1316E+02
     15.517  0.9946E+00  0.1326E+02
     15.626  0.1032E+01  0.1338E+02
     15.735  0.9765E+00  0.1349E+02
     15.844  0.9412E+00  0.1359E+02
     15.953  0.9086E+00  0.1369E+02
     16.062  0.8821E+00  0.1379E+02
     16.170  0.8971E+00  0.1388E+02
     16.279  0.8959E+00  0.1398E+02
     16.388  0.7308E+00  0.1407E+02
     16.497  0.6545E+00  0.1415E+02
     16.606  0.6374E+00  0.1422E+02
     16.715  0.6388E+00  0.1429E+02
     16.824  0.6576E+00  0.1436E+02
     16.932  0.6837E+00  0.1443E+02
     17.041  0.7101E+00  0.1451E+02
     17.150  0.1034E+01  0.1459E+02
     17.259  0.8193E+00  0.1469E+02
     17.368  0.8085E+00  0.1477E+02
     17.477  0.8267E+00  0.1486E+02
     17.586  0.8786E+00  0.1495E+02
     17.694  0.9737E+00  0.1506E+02
     17.803  0.1027E+01  0.1517E+02
     17.912  0.8385E+00  0.1527E+02
     18.021  0.6311E+00  0.1534E+02
     18.130  0.5314E+00  0.1541E+02
     18.239  0.4525E+00  0.1546E+02
     18.348  0.4168E+00  0.1551E+02
     18.456  0.3825E+00  0.1555E+02
     18.565  0.3554E+00  0.1559E+02
     18.674  0.3525E+00  0.1563E+02
     18.783  0.3255E+00  0.1567E+02
     18.892  0.2996E+00  0.1570E+02
     19.001  0.2795E+00  0.1573E+02
     19.110  0.2602E+00  0.1576E+02
     19.218  0.2511E+00  0.1579E+02
     19.327  0.2322E+00  0.1582E+02
     19.436  0.2208E+00  0.1584E+02
     19.545  0.2040E+00  0.1586E+02
     19.654  0.1815E+00  0.1588E+02
     19.763  0.1635E+00  0.1590E+02
     19.872  0.1493E+00  0.1592E+02
     19.980  0.1365E+00  0.1594E+02
     20.089  0.1285E+00  0.1595E+02
     20.198  0.1165E+00  0.1596E+02
     20.307  0.9426E-01  0.1597E+02
     20.416  0.7470E-01  0.1598E+02
     20.525  0.6079E-01  0.1599E+02
     20.634  0.4966E-01  0.1600E+02
     20.742  0.4052E-02  0.1600E+02
     20.851  0.0000E+00  0.1600E+02
     20.960  0.0000E+00  0.1600E+02
     21.069  0.0000E+00  0.1600E+02
     21.178  0.0000E+00  0.1600E+02
     21.287  0.0000E+00  0.1600E+02
     21.396  0.0000E+00  0.1600E+02
     21.504  0.0000E+00  0.1600E+02
     21.613  0.0000E+00  0.1600E+02
     21.722  0.0000E+00  0.1600E+02
     21.831  0.0000E+00  0.1600E+02
     21.940  0.0000E+00  0.1600E+02
     22.049  0.0000E+00  0.1600E+02
     22.157  0.0000E+00  0.1600E+02
     22.266  0.0000E+00  0.1600E+02
