    2    2    1    1
  0.1174064E+02  0.3214245E-09  0.3214245E-09  0.3214245E-09  0.0000000E+00
  1.000000000000000E-004
  CAR 
 unknown system                          
      8    413      8
 
  0.0000000E+00  0.0000000E+00  0.0000000E+00  0.7233796E-04
    1       -8.905801   1.000000
    2        7.937380   1.000000
    3        7.937380   1.000000
    4        7.937381   1.000000
    5       11.413893   0.000000
    6       11.413893   0.000000
    7       11.413893   0.000000
    8       14.601691   0.000000
 
  0.4166667E-01  0.0000000E+00  0.0000000E+00  0.5787037E-03
    1       -8.873198   1.000000
    2        7.612888   1.000000
    3        7.866459   1.000000
    4        7.866460   1.000000
    5       11.505816   0.000000
    6       11.505816   0.000000
    7       11.538716   0.000000
    8       14.708247   0.000000
 
  0.8333333E-01  0.0000000E+00  0.0000000E+00  0.5787037E-03
    1       -8.775465   1.000000
    2        6.818071   1.000000
    3        7.677970   1.000000
    4        7.677970   1.000000
    5       11.751605   0.000000
    6       11.751606   0.000000
    7       11.752182   0.000000
    8       15.015551   0.000000
 
  0.1250000E+00  0.0000000E+00  0.0000000E+00  0.5787037E-03
    1       -8.613213   1.000000
    2        5.802568   1.000000
    3        7.421511   1.000000
    4        7.421511   1.000000
    5       11.880454   0.000000
    6       12.083920   0.000000
    7       12.083920   0.000000
    8       15.465550   0.000000
 
  0.1666667E+00  0.0000000E+00  0.0000000E+00  0.5787037E-03
    1       -8.387453   1.000000
    2        4.702070   1.000000
    3        7.140460   1.000000
    4        7.140461   1.000000
    5       11.908135   0.000000
    6       12.429968   0.000000
    7       12.429968   0.000000
    8       15.967693   0.000000
 
  0.2083333E+00  0.0000000E+00  0.0000000E+00  0.5787037E-03
    1       -8.099962   1.000000
    2        3.583078   1.000000
    3        6.863389   1.000000
    4        6.863389   1.000000
    5       11.875142   0.000000
    6       12.725364   0.000000
    7       12.725364   0.000000
    8       16.443381   0.000000
 
  0.2500000E+00  0.0000000E+00  0.0000000E+00  0.5787037E-03
    1       -7.753690   1.000000
    2        2.482250   1.000000
    3        6.607189   1.000000
    4        6.607189   1.000000
    5       11.815520   0.000000
    6       12.925035   0.000000
    7       12.925035   0.000000
    8       16.827543   0.000000
 
  0.2916667E+00  0.0000000E+00  0.0000000E+00  0.5787037E-03
    1       -7.353677   1.000000
    2        1.424069   1.000000
    3        6.381836   1.000000
    4        6.381837   1.000000
    5       11.749980   0.000000
    6       13.017177   0.000000
    7       13.017177   0.000000
    8       17.068054   0.000000
 
  0.3333333E+00  0.0000000E+00  0.0000000E+00  0.5787037E-03
    1       -6.909059   1.000000
    2        0.429582   1.000000
    3        6.192991   1.000000
    4        6.192991   1.000000
    5       11.689667   0.000000
    6       13.023309   0.000000
    7       13.023309   0.000000
    8       17.157443   0.000000
 
  0.3750000E+00  0.0000000E+00  0.0000000E+00  0.5787037E-03
    1       -6.437422   1.000000
    2       -0.475963   1.000000
    3        6.043945   1.000000
    4        6.043945   1.000000
    5       11.640189   0.000000
    6       12.981093   0.000000
    7       12.981093   0.000000
    8       17.144826   0.000000
 
  0.4166667E+00  0.0000000E+00  0.0000000E+00  0.5787037E-03
    1       -5.975480   1.000000
    2       -1.250907   1.000000
    3        5.936553   1.000000
    4        5.936553   1.000000
    5       11.604076   0.000000
    6       12.925976   0.000000
    7       12.925976   0.000000
    8       17.093171   0.000000
 
  0.4583333E+00  0.0000000E+00  0.0000000E+00  0.5787037E-03
    1       -5.601121   1.000000
    2       -1.814159   1.000000
    3        5.871823   1.000000
    4        5.871824   1.000000
    5       11.582300   0.000000
    6       12.883343   0.000000
    7       12.883343   0.000000
    8       17.046915   0.000000
 
  0.5000000E+00  0.0000000E+00  0.0000000E+00  0.2893519E-03
    1       -5.447512   1.000000
    2       -2.030943   1.000000
    3        5.850196   1.000000
    4        5.850197   1.000000
    5       11.574993   0.000000
    6       12.867583   0.000000
    7       12.867583   0.000000
    8       17.029150   0.000000
 
  0.4166667E-01  0.4166667E-01  0.0000000E+00  0.4340278E-03
    1       -8.862314   1.000000
    2        7.713802   1.000000
    3        7.713802   1.000000
    4        7.766592   1.000000
    5       11.291240   0.000000
    6       11.684400   0.000000
    7       11.684400   0.000000
    8       14.731885   0.000000
 
  0.8333333E-01  0.4166667E-01  0.0000000E+00  0.1736111E-02
    1       -8.786264   1.000000
    2        7.084831   1.000000
    3        7.468948   1.000000
    4        7.717358   1.000000
    5       11.285083   0.000000
    6       11.964479   0.000000
    7       11.993786   0.000000
    8       14.942027   0.000000
 
  0.1250000E+00  0.4166667E-01  0.0000000E+00  0.1736111E-02
    1       -8.645501   1.000000
    2        6.141693   1.000000
    3        7.181072   1.000000
    4        7.559583   1.000000
    5       11.449979   0.000000
    6       12.189005   0.000000
    7       12.369087   0.000000
    8       15.303580   0.000000
 
  0.1666667E+00  0.4166667E-01  0.0000000E+00  0.1736111E-02
    1       -8.440840   1.000000
    2        5.072430   1.000000
    3        6.886643   1.000000
    4        7.320900   1.000000
    5       11.673798   0.000000
    6       12.335920   0.000000
    7       12.746023   0.000000
    8       15.727190   0.000000
 
  0.2083333E+00  0.4166667E-01  0.0000000E+00  0.1736111E-02
    1       -8.173813   1.000000
    2        3.962715   1.000000
    3        6.608668   1.000000
    4        7.047249   1.000000
    5       11.830740   0.000000
    6       12.481739   0.000000
    7       13.065323   0.000000
    8       16.126648   0.000000
 
  0.2500000E+00  0.4166667E-01  0.0000000E+00  0.1736111E-02
    1       -7.846879   1.000000
    2        2.858247   1.000000
    3        6.360810   1.000000
    4        6.769431   1.000000
    5       11.873533   0.000000
    6       12.644823   0.000000
    7       13.280764   0.000000
    8       16.470087   0.000000
 
  0.2916667E+00  0.4166667E-01  0.0000000E+00  0.1736111E-02
    1       -7.464269   1.000000
    2        1.787409   1.000000
    3        6.151151   1.000000
    4        6.505909   1.000000
    5       11.851074   0.000000
    6       12.764051   0.000000
    7       13.374813   0.000000
    8       16.764361   0.000000
 
  0.3333333E+00  0.4166667E-01  0.0000000E+00  0.1736111E-02
    1       -7.033424   1.000000
    2        0.772186   1.000000
    3        5.984328   1.000000
    4        6.267566   1.000000
    5       11.807563   0.000000
    6       12.813368   0.000000
    7       13.364714   0.000000
    8       16.994565   0.000000
 
  0.3750000E+00  0.4166667E-01  0.0000000E+00  0.1736111E-02
    1       -6.568374   1.000000
    2       -0.164255   1.000000
    3        5.862712   1.000000
    4        6.061090   1.000000
    5       11.763679   0.000000
    6       12.812909   0.000000
    7       13.288326   0.000000
    8       17.127855   0.000000
 
  0.4166667E+00  0.4166667E-01  0.0000000E+00  0.1736111E-02
    1       -6.097665   1.000000
    2       -0.987426   1.000000
    3        5.787417   1.000000
    4        5.890832   1.000000
    5       11.728570   0.000000
    6       12.795816   0.000000
    7       13.184616   0.000000
    8       17.173126   0.000000
 
  0.4583333E+00  0.4166667E-01  0.0000000E+00  0.1736111E-02
    1       -5.682261   1.000000
    2       -1.632579   1.000000
    3        5.758487   1.000000
    4        5.759811   1.000000
    5       11.706251   0.000000
    6       12.789232   0.000000
    7       13.083213   0.000000
    8       17.174489   0.000000
 
  0.5000000E+00  0.4166667E-01  0.0000000E+00  0.1736111E-02
    1       -5.439463   1.000000
    2       -1.980191   1.000000
    3        5.670336   1.000000
    4        5.775313   1.000000
    5       11.698178   0.000000
    6       12.809974   0.000000
    7       13.002621   0.000000
    8       17.170138   0.000000
 
 -0.4583333E+00  0.4166667E-01  0.0000000E+00  0.1736111E-02
    1       -5.492030   1.000000
    2       -1.906568   1.000000
    3        5.624217   1.000000
    4        5.836772   1.000000
    5       11.704577   0.000000
    6       12.865216   0.000000
    7       12.951278   0.000000
    8       17.177913   0.000000
 
 -0.4166667E+00  0.4166667E-01  0.0000000E+00  0.1736111E-02
    1       -5.808761   1.000000
    2       -1.443123   1.000000
    3        5.622863   1.000000
    4        5.941299   1.000000
    5       11.725078   0.000000
    6       12.928347   0.000000
    7       12.953317   0.000000
    8       17.195744   0.000000
 
 -0.3750000E+00  0.4166667E-01  0.0000000E+00  0.1736111E-02
    1       -6.252536   1.000000
    2       -0.728253   1.000000
    3        5.667314   1.000000
    4        6.086914   1.000000
    5       11.759024   0.000000
    6       12.923479   0.000000
    7       13.063403   0.000000
    8       17.202059   0.000000
 
 -0.3333333E+00  0.4166667E-01  0.0000000E+00  0.1736111E-02
    1       -6.726008   1.000000
    2        0.137911   1.000000
    3        5.758050   1.000000
    4        6.271023   1.000000
    5       11.805198   0.000000
    6       12.915741   0.000000
    7       13.173565   0.000000
    8       17.156533   0.000000
 
 -0.2916667E+00  0.4166667E-01  0.0000000E+00  0.1736111E-02
    1       -7.181839   1.000000
    2        1.103650   1.000000
    3        5.894854   1.000000
    4        6.490063   1.000000
    5       11.860996   0.000000
    6       12.873818   0.000000
    7       13.249283   0.000000
    8       17.016001   0.000000
 
 -0.2500000E+00  0.4166667E-01  0.0000000E+00  0.1736111E-02
    1       -7.597728   1.000000
    2        2.139735   1.000000
    3        6.076529   1.000000
    4        6.738827   1.000000
    5       11.920842   0.000000
    6       12.762522   0.000000
    7       13.246601   0.000000
    8       16.769123   0.000000
 
 -0.2083333E+00  0.4166667E-01  0.0000000E+00  0.1736111E-02
    1       -7.962369   1.000000
    2        3.224107   1.000000
    3        6.300294   1.000000
    4        7.009168   1.000000
    5       11.973332   0.000000
    6       12.559704   0.000000
    7       13.128234   0.000000
    8       16.440724   0.000000
 
 -0.1666667E+00  0.4166667E-01  0.0000000E+00  0.1736111E-02
    1       -8.269693   1.000000
    2        4.333220   1.000000
    3        6.561180   1.000000
    4        7.287714   1.000000
    5       11.996627   0.000000
    6       12.275623   0.000000
    7       12.890497   0.000000
    8       16.052747   0.000000
 
 -0.1250000E+00  0.4166667E-01  0.0000000E+00  0.1736111E-02
    1       -8.516125   1.000000
    2        5.433322   1.000000
    3        6.850916   1.000000
    4        7.552188   1.000000
    5       11.953426   0.000000
    6       11.956819   0.000000
    7       12.574340   0.000000
    8       15.622773   0.000000
 
 -0.8333333E-01  0.4166667E-01  0.0000000E+00  0.1736111E-02
    1       -8.699609   1.000000
    2        6.463853   1.000000
    3        7.157885   1.000000
    4        7.767083   1.000000
    5       11.673772   0.000000
    6       11.807984   0.000000
    7       12.233753   0.000000
    8       15.200208   0.000000
 
 -0.4166667E-01  0.4166667E-01  0.0000000E+00  0.8680556E-03
    1       -8.818855   1.000000
    2        7.273647   1.000000
    3        7.496249   1.000000
    4        7.884873   1.000000
    5       11.504070   0.000000
    6       11.611029   0.000000
    7       11.873919   0.000000
    8       14.871554   0.000000
 
  0.8333333E-01  0.8333333E-01  0.0000000E+00  0.4340278E-03
    1       -8.731954   1.000000
    2        7.187517   1.000000
    3        7.187517   1.000000
    4        7.290168   1.000000
    5       10.986627   0.000000
    6       12.350293   0.000000
    7       12.350293   0.000000
    8       14.988025   0.000000
 
  0.1250000E+00  0.8333333E-01  0.0000000E+00  0.1736111E-02
    1       -8.612807   1.000000
    2        6.415272   1.000000
    3        6.878432   1.000000
    4        7.239163   1.000000
    5       10.929433   0.000000
    6       12.688793   0.000000
    7       12.762830   0.000000
    8       15.149663   0.000000
 
  0.1666667E+00  0.8333333E-01  0.0000000E+00  0.1736111E-02
    1       -8.429535   1.000000
    2        5.417078   1.000000
    3        6.573060   1.000000
    4        7.093964   1.000000
    5       11.069767   0.000000
    6       12.879404   0.000000
    7       13.174398   0.000000
    8       15.362071   0.000000
 
  0.2083333E+00  0.8333333E-01  0.0000000E+00  0.1736111E-02
    1       -8.183420   1.000000
    2        4.342801   1.000000
    3        6.291301   1.000000
    4        6.858492   1.000000
    5       11.302884   0.000000
    6       12.961299   0.000000
    7       13.529280   0.000000
    8       15.541929   0.000000
 
  0.2500000E+00  0.8333333E-01  0.0000000E+00  0.1736111E-02
    1       -7.876559   1.000000
    2        3.252459   1.000000
    3        6.045351   1.000000
    4        6.580552   1.000000
    5       11.523864   0.000000
    6       12.998098   0.000000
    7       13.778739   0.000000
    8       15.706782   0.000000
 
  0.2916667E+00  0.8333333E-01  0.0000000E+00  0.1736111E-02
    1       -7.512526   1.000000
    2        2.181799   1.000000
    3        5.842549   1.000000
    4        6.292831   1.000000
    5       11.669148   0.000000
    6       13.014393   0.000000
    7       13.896987   0.000000
    8       15.944184   0.000000
 
  0.3333333E+00  0.8333333E-01  0.0000000E+00  0.1736111E-02
    1       -7.097459   1.000000
    2        1.156004   1.000000
    3        5.687244   1.000000
    4        6.015186   1.000000
    5       11.735463   0.000000
    6       13.005121   0.000000
    7       13.893395   0.000000
    8       16.293886   0.000000
 
  0.3750000E+00  0.8333333E-01  0.0000000E+00  0.1736111E-02
    1       -6.642691   1.000000
    2        0.198199   1.000000
    3        5.581802   1.000000
    4        5.759763   1.000000
    5       11.754810   0.000000
    6       12.972285   0.000000
    7       13.803543   0.000000
    8       16.704221   0.000000
 
  0.4166667E+00  0.8333333E-01  0.0000000E+00  0.1736111E-02
    1       -6.170608   1.000000
    2       -0.661701   1.000000
    3        5.527118   1.000000
    4        5.534541   1.000000
    5       11.759737   0.000000
    6       12.932708   0.000000
    7       13.668905   0.000000
    8       17.072406   0.000000
 
  0.4583333E+00  0.8333333E-01  0.0000000E+00  0.1736111E-02
    1       -5.728545   1.000000
    2       -1.371531   1.000000
    3        5.345161   1.000000
    4        5.523051   1.000000
    5       11.771257   0.000000
    6       12.904858   0.000000
    7       13.523246   0.000000
    8       17.323573   0.000000
 
  0.5000000E+00  0.8333333E-01  0.0000000E+00  0.1736111E-02
    1       -5.413588   1.000000
    2       -1.831251   1.000000
    3        5.195930   1.000000
    4        5.568593   1.000000
    5       11.799535   0.000000
    6       12.902562   0.000000
    7       13.389007   0.000000
    8       17.459179   0.000000
 
 -0.4583333E+00  0.8333333E-01  0.0000000E+00  0.1736111E-02
    1       -5.361793   1.000000
    2       -1.903377   1.000000
    3        5.090304   1.000000
    4        5.661971   1.000000
    5       11.846480   0.000000
    6       12.935186   0.000000
    7       13.277991   0.000000
    8       17.515140   0.000000
 
 -0.4166667E+00  0.8333333E-01  0.0000000E+00  0.1736111E-02
    1       -5.603751   1.000000
    2       -1.557108   1.000000
    3        5.031073   1.000000
    4        5.800696   1.000000
    5       11.908502   0.000000
    6       13.008022   0.000000
    7       13.192694   0.000000
    8       17.508095   0.000000
 
 -0.3750000E+00  0.8333333E-01  0.0000000E+00  0.1736111E-02
    1       -6.017605   1.000000
    2       -0.915359   1.000000
    3        5.020412   1.000000
    4        5.981494   1.000000
    5       11.979569   0.000000
    6       13.119831   0.000000
    7       13.126176   0.000000
    8       17.422680   0.000000
 
 -0.3333333E+00  0.8333333E-01  0.0000000E+00  0.1736111E-02
    1       -6.486773   1.000000
    2       -0.097177   1.000000
    3        5.059936   1.000000
    4        6.200090   1.000000
    5       12.053984   0.000000
    6       13.061245   0.000000
    7       13.258132   0.000000
    8       17.229033   0.000000
 
 -0.2916667E+00  0.8333333E-01  0.0000000E+00  0.1736111E-02
    1       -6.950529   1.000000
    2        0.832371   1.000000
    3        5.150654   1.000000
    4        6.450811   1.000000
    5       12.127085   0.000000
    6       12.970672   0.000000
    7       13.393469   0.000000
    8       16.925772   0.000000
 
 -0.2500000E+00  0.8333333E-01  0.0000000E+00  0.1736111E-02
    1       -7.380297   1.000000
    2        1.837797   1.000000
    3        5.292991   1.000000
    4        6.725716   1.000000
    5       12.192996   0.000000
    6       12.822888   0.000000
    7       13.475451   0.000000
    8       16.569825   0.000000
 
 -0.2083333E+00  0.8333333E-01  0.0000000E+00  0.1736111E-02
    1       -7.762063   1.000000
    2        2.893696   1.000000
    3        5.486979   1.000000
    4        7.013080   1.000000
    5       12.240271   0.000000
    6       12.598600   0.000000
    7       13.441939   0.000000
    8       16.242877   0.000000
 
 -0.1666667E+00  0.8333333E-01  0.0000000E+00  0.1736111E-02
    1       -8.088319   1.000000
    2        3.972696   1.000000
    3        5.733607   1.000000
    4        7.294718   1.000000
    5       12.246292   0.000000
    6       12.311023   0.000000
    7       13.261355   0.000000
    8       15.979198   0.000000
 
 -0.1250000E+00  0.8333333E-01  0.0000000E+00  0.1736111E-02
    1       -8.354839   1.000000
    2        5.028664   1.000000
    3        6.042293   1.000000
    4        7.542220   1.000000
    5       12.011162   0.000000
    6       12.174670   0.000000
    7       12.972835   0.000000
    8       15.734316   0.000000
 
 -0.8333333E-01  0.8333333E-01  0.0000000E+00  0.8680556E-03
    1       -8.559102   1.000000
    2        5.929729   1.000000
    3        6.483860   1.000000
    4        7.714617   1.000000
    5       11.773904   0.000000
    6       12.004532   0.000000
    7       12.634645   0.000000
    8       15.463215   0.000000
 
  0.1250000E+00  0.1250000E+00  0.0000000E+00  0.4340278E-03
    1       -8.515302   1.000000
    2        6.555072   1.000000
    3        6.555072   1.000000
    4        6.586874   1.000000
    5       10.603905   0.000000
    6       13.211755   0.000000
    7       13.211755   0.000000
    8       15.015949   0.000000
 
  0.1666667E+00  0.1250000E+00  0.0000000E+00  0.1736111E-02
    1       -8.353582   1.000000
    2        5.686893   1.000000
    3        6.240009   1.000000
    4        6.564406   1.000000
    5       10.534697   0.000000
    6       13.562090   0.000000
    7       13.663752   0.000000
    8       14.923649   0.000000
 
  0.2083333E+00  0.1250000E+00  0.0000000E+00  0.1736111E-02
    1       -8.128692   1.000000
    2        4.684905   1.000000
    3        5.951916   1.000000
    4        6.411059   1.000000
    5       10.674894   0.000000
    6       13.699391   0.000000
    7       14.065630   0.000000
    8       14.874866   0.000000
 
  0.2500000E+00  0.1250000E+00  0.0000000E+00  0.1736111E-02
    1       -7.842461   1.000000
    2        3.635843   1.000000
    3        5.702510   1.000000
    4        6.161582   1.000000
    5       10.914036   0.000000
    6       13.722048   0.000000
    7       14.366142   0.000000
    8       14.873762   0.000000
 
  0.2916667E+00  0.1250000E+00  0.0000000E+00  0.1736111E-02
    1       -7.497916   1.000000
    2        2.585169   1.000000
    3        5.499200   1.000000
    4        5.866729   1.000000
    5       11.141761   0.000000
    6       13.714531   0.000000
    7       14.530348   0.000000
    8       14.983057   0.000000
 
  0.3333333E+00  0.1250000E+00  0.0000000E+00  0.1736111E-02
    1       -7.100218   1.000000
    2        1.563878   1.000000
    3        5.346430   1.000000
    4        5.560858   1.000000
    5       11.295232   0.000000
    6       13.687790   0.000000
    7       14.556571   0.000000
    8       15.281617   0.000000
 
  0.3750000E+00  0.1250000E+00  0.0000000E+00  0.1736111E-02
    1       -6.658624   1.000000
    2        0.597348   1.000000
    3        5.246736   1.000000
    4        5.265081   1.000000
    5       11.376249   0.000000
    6       13.636731   0.000000
    7       14.475131   0.000000
    8       15.774081   0.000000
 
  0.4166667E+00  0.1250000E+00  0.0000000E+00  0.1736111E-02
    1       -6.190935   1.000000
    2       -0.286437   1.000000
    3        4.992734   1.000000
    4        5.201257   1.000000
    5       11.421555   0.000000
    6       13.574543   0.000000
    7       14.328935   0.000000
    8       16.384100   0.000000
 
  0.4583333E+00  0.1250000E+00  0.0000000E+00  0.1736111E-02
    1       -5.733995   1.000000
    2       -1.044054   1.000000
    3        4.752838   1.000000
    4        5.209948   1.000000
    5       11.466576   0.000000
    6       13.517134   0.000000
    7       14.155833   0.000000
    8       17.000885   0.000000
 
  0.5000000E+00  0.1250000E+00  0.0000000E+00  0.1736111E-02
    1       -5.365346   1.000000
    2       -1.593915   1.000000
    3        4.551989   1.000000
    4        5.271852   1.000000
    5       11.533326   0.000000
    6       13.475358   0.000000
    7       13.982398   0.000000
    8       17.502545   0.000000
 
 -0.4583333E+00  0.1250000E+00  0.0000000E+00  0.1736111E-02
    1       -5.215637   1.000000
    2       -1.803119   1.000000
    3        4.395262   1.000000
    4        5.385087   1.000000
    5       11.631512   0.000000
    6       13.456483   0.000000
    7       13.823802   0.000000
    8       17.796707   0.000000
 
 -0.4166667E+00  0.1250000E+00  0.0000000E+00  0.1736111E-02
    1       -5.368211   1.000000
    2       -1.587699   1.000000
    3        4.286603   1.000000
    4        5.546767   1.000000
    5       11.761442   0.000000
    6       13.466133   0.000000
    7       13.685151   0.000000
    8       17.859324   0.000000
 
 -0.3750000E+00  0.1250000E+00  0.0000000E+00  0.1736111E-02
    1       -5.738123   1.000000
    2       -1.033362   1.000000
    3        4.229269   1.000000
    4        5.752908   1.000000
    5       11.916101   0.000000
    6       13.508809   0.000000
    7       13.561905   0.000000
    8       17.701056   0.000000
 
 -0.3333333E+00  0.1250000E+00  0.0000000E+00  0.1736111E-02
    1       -6.195172   1.000000
    2       -0.272862   1.000000
    3        4.225924   1.000000
    4        5.998103   1.000000
    5       12.082124   0.000000
    6       13.439307   0.000000
    7       13.585446   0.000000
    8       17.349304   0.000000
 
 -0.2916667E+00  0.1250000E+00  0.0000000E+00  0.1736111E-02
    1       -6.662481   1.000000
    2        0.612127   1.000000
    3        4.279022   1.000000
    4        6.274898   1.000000
    5       12.241862   0.000000
    6       13.292773   0.000000
    7       13.685887   0.000000
    8       16.873790   0.000000
 
 -0.2500000E+00  0.1250000E+00  0.0000000E+00  0.1736111E-02
    1       -7.103543   1.000000
    2        1.576438   1.000000
    3        4.391650   1.000000
    4        6.572847   1.000000
    5       12.376186   0.000000
    6       13.094304   0.000000
    7       13.773241   0.000000
    8       16.382052   0.000000
 
 -0.2083333E+00  0.1250000E+00  0.0000000E+00  0.1736111E-02
    1       -7.500680   1.000000
    2        2.585912   1.000000
    3        4.570330   1.000000
    4        6.876647   1.000000
    5       12.464795   0.000000
    6       12.829789   0.000000
    7       13.769383   0.000000
    8       15.999453   0.000000
 
 -0.1666667E+00  0.1250000E+00  0.0000000E+00  0.1736111E-02
    1       -7.844684   1.000000
    2        3.591977   1.000000
    3        4.837331   1.000000
    4        7.163442   1.000000
    5       12.480300   0.000000
    6       12.519493   0.000000
    7       13.600408   0.000000
    8       15.814993   0.000000
 
 -0.1250000E+00  0.1250000E+00  0.0000000E+00  0.8680556E-03
    1       -8.130413   1.000000
    2        4.465467   1.000000
    3        5.287329   1.000000
    4        7.399710   1.000000
    5       12.221022   0.000000
    6       12.385113   0.000000
    7       13.307050   0.000000
    8       15.774034   0.000000
 
  0.1666667E+00  0.1666667E+00  0.0000000E+00  0.4340278E-03
    1       -8.213413   1.000000
    2        5.732254   1.000000
    3        5.916008   1.000000
    4        5.916008   1.000000
    5       10.210711   0.000000
    6       14.164521   0.000000
    7       14.164521   0.000000
    8       14.487268   0.000000
 
  0.2083333E+00  0.1666667E+00  0.0000000E+00  0.1736111E-02
    1       -8.009925   1.000000
    2        4.913606   1.000000
    3        5.619699   1.000000
    4        5.818725   1.000000
    5       10.150218   0.000000
    6       14.080217   0.000000
    7       14.604868   0.000000
    8       14.625538   0.000000
 
  0.2500000E+00  0.1666667E+00  0.0000000E+00  0.1736111E-02
    1       -7.744718   1.000000
    2        3.950802   1.000000
    3        5.363213   1.000000
    4        5.630914   1.000000
    5       10.301012   0.000000
    6       13.818467   0.000000
    7       14.814845   0.000000
    8       14.993861   0.000000
 
  0.2916667E+00  0.1666667E+00  0.0000000E+00  0.1736111E-02
    1       -7.420378   1.000000
    2        2.953943   1.000000
    3        5.154149   1.000000
    4        5.348932   1.000000
    5       10.542374   0.000000
    6       13.733424   0.000000
    7       14.891399   0.000000
    8       15.225566   0.000000
 
  0.3333333E+00  0.1666667E+00  0.0000000E+00  0.1736111E-02
    1       -7.041317   1.000000
    2        1.962740   1.000000
    3        4.997337   1.000000
    4        5.024629   1.000000
    5       10.756624   0.000000
    6       13.859598   0.000000
    7       14.927584   0.000000
    8       15.305535   0.000000
 
  0.3750000E+00  0.1666667E+00  0.0000000E+00  0.1736111E-02
    1       -6.615217   1.000000
    2        1.007505   1.000000
    3        4.693560   1.000000
    4        4.895617   1.000000
    5       10.891626   0.000000
    6       14.114428   0.000000
    7       15.058840   0.000000
    8       15.255057   0.000000
 
  0.4166667E+00  0.1666667E+00  0.0000000E+00  0.1736111E-02
    1       -6.156484   1.000000
    2        0.117362   1.000000
    3        4.377621   1.000000
    4        4.850434   1.000000
    5       10.968817   0.000000
    6       14.273607   0.000000
    7       15.116605   0.000000
    8       15.477276   0.000000
 
  0.4583333E+00  0.1666667E+00  0.0000000E+00  0.1736111E-02
    1       -5.694091   1.000000
    2       -0.669180   1.000000
    3        4.090674   1.000000
    4        4.862007   1.000000
    5       11.032494   0.000000
    6       14.293650   0.000000
    7       14.932339   0.000000
    8       16.156687   0.000000
 
  0.5000000E+00  0.1666667E+00  0.0000000E+00  0.1736111E-02
    1       -5.289054   1.000000
    2       -1.285056   1.000000
    3        3.842127   1.000000
    4        4.929616   1.000000
    5       11.115024   0.000000
    6       14.266022   0.000000
    7       14.733510   0.000000
    8       16.922622   0.000000
 
 -0.4583333E+00  0.1666667E+00  0.0000000E+00  0.1736111E-02
    1       -5.056037   1.000000
    2       -1.612122   1.000000
    3        3.638747   1.000000
    4        5.051489   1.000000
    5       11.232998   0.000000
    6       14.233991   0.000000
    7       14.538852   0.000000
    8       17.608533   0.000000
 
 -0.4166667E+00  0.1666667E+00  0.0000000E+00  0.1736111E-02
    1       -5.111058   1.000000
    2       -1.532977   1.000000
    3        3.485780   1.000000
    4        5.224734   1.000000
    5       11.392077   0.000000
    6       14.214204   0.000000
    7       14.355784   0.000000
    8       17.990441   0.000000
 
 -0.3750000E+00  0.1666667E+00  0.0000000E+00  0.1736111E-02
    1       -5.421819   1.000000
    2       -1.080511   1.000000
    3        3.387593   1.000000
    4        5.445114   1.000000
    5       11.590161   0.000000
    6       14.181070   0.000000
    7       14.214473   0.000000
    8       17.897602   0.000000
 
 -0.3333333E+00  0.1666667E+00  0.0000000E+00  0.1736111E-02
    1       -5.856873   1.000000
    2       -0.389314   1.000000
    3        3.348351   1.000000
    4        5.706683   1.000000
    5       11.818421   0.000000
    6       14.000627   0.000000
    7       14.237614   0.000000
    8       17.446825   0.000000
 
 -0.2916667E+00  0.1666667E+00  0.0000000E+00  0.1736111E-02
    1       -6.322028   1.000000
    2        0.439519   1.000000
    3        3.373457   1.000000
    4        6.000994   1.000000
    5       12.060589   0.000000
    6       13.790459   0.000000
    7       14.278191   0.000000
    8       16.844501   0.000000
 
 -0.2500000E+00  0.1666667E+00  0.0000000E+00  0.1736111E-02
    1       -6.770842   1.000000
    2        1.344132   1.000000
    3        3.473364   1.000000
    4        6.315947   1.000000
    5       12.291150   0.000000
    6       13.525189   0.000000
    7       14.306805   0.000000
    8       16.246372   0.000000
 