 running on   48 total cores
 distrk:  each k-point on   12 cores,    4 groups
 distr:  one band on   12 cores,    1 groups
 using from now: INCAR     
 vasp.5.4.4.18Apr17-6-g9f103f2a35 (build Nov 04 2020 14:40:39) complex          
  
 POSCAR found type information on POSCAR  B  As
 POSCAR found :  2 types and       2 ions
 scaLAPACK will be used

 ----------------------------------------------------------------------------- 
|                                                                             |
|           W    W    AA    RRRRR   N    N  II  N    N   GGGG   !!!           |
|           W    W   A  A   R    R  NN   N  II  NN   N  G    G  !!!           |
|           W    W  A    A  R    R  N N  N  II  N N  N  G       !!!           |
|           W WW W  AAAAAA  RRRRR   N  N N  II  N  N N  G  GGG   !            |
|           WW  WW  A    A  R   R   N   NN  II  N   NN  G    G                |
|           W    W  A    A  R    R  N    N  II  N    N   GGGG   !!!           |
|                                                                             |
|      You have enabled k-point parallelism (KPAR>1).                         |
|      This developmental code was originally  written by Paul Kent at ORNL,  |
|      and carefully double checked in Vienna.                                |
|      GW as well as linear response parallelism added by Martijn Marsman     |
|      and Georg Kresse.                                                      |
|      Carefully verify results versus KPAR=1.                                |
|      Report problems to Paul Kent and Vienna.                               |
|                                                                             |
 ----------------------------------------------------------------------------- 

 LDA part: xc-table for Pade appr. of Perdew
 POSCAR found type information on POSCAR  B  As
 POSCAR found :  2 types and       2 ions
 generate k-points for:   24   24   24
 POSCAR, INCAR and KPOINTS ok, starting setup
 FFT: planning ...
 WAVECAR not read
 entering main loop
       N       E                     dE             d eps       ncg     rms          rms(c)
DAV:   1     0.104607971626E+02    0.10461E+02   -0.41422E+03  6648   0.888E+02
DAV:   2    -0.117603970902E+02   -0.22221E+02   -0.21589E+02  9984   0.109E+02
DAV:   3    -0.119973552423E+02   -0.23696E+00   -0.23696E+00  7512   0.134E+01
DAV:   4    -0.119975786167E+02   -0.22337E-03   -0.22337E-03 10216   0.422E-01
DAV:   5    -0.119975787310E+02   -0.11422E-06   -0.11422E-06  7512   0.506E-03    0.483E+00
RMM:   6    -0.110905216267E+02    0.90706E+00   -0.97363E-01  6688   0.707E+00    0.195E+00
RMM:   7    -0.109850658664E+02    0.10546E+00   -0.19653E-01  7074   0.313E+00    0.756E-01
RMM:   8    -0.109761077697E+02    0.89581E-02   -0.23773E-02  7371   0.118E+00    0.854E-02
RMM:   9    -0.109763491287E+02   -0.24136E-03   -0.24641E-04  7837   0.138E-01    0.444E-02
RMM:  10    -0.109764512849E+02   -0.10216E-03   -0.17508E-04  7334   0.112E-01    0.874E-03
RMM:  11    -0.109764520463E+02   -0.76142E-06   -0.20518E-05  7494   0.305E-02    0.899E-03
RMM:  12    -0.109764481206E+02    0.39257E-05   -0.50524E-06  7457   0.159E-02    0.348E-04
RMM:  13    -0.109764481222E+02   -0.15716E-08   -0.97769E-08  4712   0.241E-03
   1 F= -.10976448E+02 E0= -.10976448E+02  d E =0.000000E+00
