   2   2   0   0
  0.1118156E+02  0.3162393E-09  0.3162393E-09  0.3162393E-09  0.0000000E+00
  1.000000000000000E-004
  CAR 
 unknown system                          
     23.38884241    -10.33054107  301      8.56636342      1.00000000
    -10.331  0.0000E+00  0.0000E+00
    -10.218  0.0000E+00  0.0000E+00
    -10.106  0.0000E+00  0.0000E+00
     -9.993  0.0000E+00  0.0000E+00
     -9.881  0.0000E+00  0.0000E+00
     -9.769  0.0000E+00  0.0000E+00
     -9.656  0.0000E+00  0.0000E+00
     -9.544  0.0000E+00  0.0000E+00
     -9.431  0.0000E+00  0.0000E+00
     -9.319  0.0000E+00  0.0000E+00
     -9.207  0.0000E+00  0.0000E+00
     -9.094  0.0000E+00  0.0000E+00
     -8.982  0.0000E+00  0.0000E+00
     -8.869  0.0000E+00  0.0000E+00
     -8.757  0.3140E-01  0.6970E-03
     -8.645  0.7055E-01  0.6776E-02
     -8.532  0.9472E-01  0.1626E-01
     -8.420  0.1151E+00  0.2817E-01
     -8.307  0.1323E+00  0.4205E-01
     -8.195  0.1468E+00  0.5781E-01
     -8.083  0.1614E+00  0.7513E-01
     -7.970  0.1742E+00  0.9404E-01
     -7.858  0.1865E+00  0.1143E+00
     -7.745  0.1989E+00  0.1360E+00
     -7.633  0.2095E+00  0.1589E+00
     -7.521  0.2211E+00  0.1831E+00
     -7.408  0.2317E+00  0.2086E+00
     -7.296  0.2420E+00  0.2352E+00
     -7.183  0.2529E+00  0.2630E+00
     -7.071  0.2632E+00  0.2920E+00
     -6.959  0.2731E+00  0.3221E+00
     -6.846  0.2838E+00  0.3534E+00
     -6.734  0.2945E+00  0.3859E+00
     -6.621  0.3047E+00  0.4196E+00
     -6.509  0.3154E+00  0.4545E+00
     -6.397  0.3268E+00  0.4905E+00
     -6.284  0.3382E+00  0.5279E+00
     -6.172  0.3501E+00  0.5666E+00
     -6.059  0.3628E+00  0.6067E+00
     -5.947  0.3764E+00  0.6482E+00
     -5.835  0.3910E+00  0.6913E+00
     -5.722  0.4072E+00  0.7362E+00
     -5.610  0.4255E+00  0.7829E+00
     -5.497  0.4468E+00  0.8319E+00
     -5.385  0.4733E+00  0.8835E+00
     -5.273  0.5103E+00  0.9387E+00
     -5.160  0.5887E+00  0.9994E+00
     -5.048  0.6084E+00  0.1069E+01
     -4.935  0.5991E+00  0.1136E+01
     -4.823  0.5831E+00  0.1203E+01
     -4.711  0.5696E+00  0.1268E+01
     -4.598  0.5563E+00  0.1331E+01
     -4.486  0.5452E+00  0.1393E+01
     -4.373  0.5324E+00  0.1454E+01
     -4.261  0.5200E+00  0.1513E+01
     -4.149  0.5137E+00  0.1571E+01
     -4.036  0.5038E+00  0.1628E+01
     -3.924  0.4969E+00  0.1684E+01
     -3.811  0.4994E+00  0.1740E+01
     -3.699  0.5048E+00  0.1796E+01
     -3.587  0.5365E+00  0.1854E+01
     -3.474  0.6401E+00  0.1921E+01
     -3.362  0.3013E+00  0.1977E+01
     -3.249  0.7688E-01  0.1998E+01
     -3.137  0.0000E+00  0.2000E+01
     -3.025  0.0000E+00  0.2000E+01
     -2.912  0.0000E+00  0.2000E+01
     -2.800  0.0000E+00  0.2000E+01
     -2.687  0.0000E+00  0.2000E+01
     -2.575  0.0000E+00  0.2000E+01
     -2.463  0.0000E+00  0.2000E+01
     -2.350  0.0000E+00  0.2000E+01
     -2.238  0.0000E+00  0.2000E+01
     -2.125  0.0000E+00  0.2000E+01
     -2.013  0.0000E+00  0.2000E+01
     -1.901  0.0000E+00  0.2000E+01
     -1.788  0.4472E-01  0.2000E+01
     -1.676  0.1193E+00  0.2009E+01
     -1.564  0.1592E+00  0.2024E+01
     -1.451  0.1970E+00  0.2045E+01
     -1.339  0.2333E+00  0.2069E+01
     -1.226  0.2759E+00  0.2098E+01
     -1.114  0.3349E+00  0.2131E+01
     -1.002  0.4419E+00  0.2176E+01
     -0.889  0.5426E+00  0.2232E+01
     -0.777  0.6727E+00  0.2302E+01
     -0.664  0.9114E+00  0.2389E+01
     -0.552  0.1211E+01  0.2516E+01
     -0.440  0.1322E+01  0.2659E+01
     -0.327  0.7700E+00  0.2767E+01
     -0.215  0.6447E+00  0.2846E+01
     -0.102  0.5563E+00  0.2913E+01
      0.010  0.5091E+00  0.2973E+01
      0.122  0.4492E+00  0.3026E+01
      0.235  0.4248E+00  0.3075E+01
      0.347  0.3983E+00  0.3122E+01
      0.460  0.3620E+00  0.3164E+01
      0.572  0.3466E+00  0.3204E+01
      0.684  0.3309E+00  0.3242E+01
      0.797  0.3114E+00  0.3278E+01
      0.909  0.2896E+00  0.3312E+01
      1.022  0.2802E+00  0.3344E+01
      1.134  0.3826E+00  0.3380E+01
      1.246  0.4458E+00  0.3427E+01
      1.359  0.5075E+00  0.3480E+01
      1.471  0.5951E+00  0.3542E+01
      1.584  0.7210E+00  0.3618E+01
      1.696  0.6942E+00  0.3699E+01
      1.808  0.6654E+00  0.3776E+01
      1.921  0.6463E+00  0.3850E+01
      2.033  0.6386E+00  0.3922E+01
      2.146  0.6331E+00  0.3994E+01
      2.258  0.6604E+00  0.4066E+01
      2.370  0.6531E+00  0.4140E+01
      2.483  0.6579E+00  0.4213E+01
      2.595  0.6725E+00  0.4288E+01
      2.708  0.7181E+00  0.4365E+01
      2.820  0.7056E+00  0.4444E+01
      2.932  0.7211E+00  0.4525E+01
      3.045  0.7322E+00  0.4607E+01
      3.157  0.7736E+00  0.4691E+01
      3.270  0.8014E+00  0.4779E+01
      3.382  0.8219E+00  0.4870E+01
      3.494  0.9242E+00  0.4966E+01
      3.607  0.9860E+00  0.5073E+01
      3.719  0.9845E+00  0.5184E+01
      3.832  0.9757E+00  0.5294E+01
      3.944  0.9579E+00  0.5403E+01
      4.056  0.9495E+00  0.5510E+01
      4.169  0.9343E+00  0.5616E+01
      4.281  0.9202E+00  0.5720E+01
      4.394  0.9070E+00  0.5823E+01
      4.506  0.8978E+00  0.5924E+01
      4.618  0.8851E+00  0.6024E+01
      4.731  0.8677E+00  0.6123E+01
      4.843  0.8595E+00  0.6220E+01
      4.956  0.8547E+00  0.6316E+01
      5.068  0.8369E+00  0.6411E+01
      5.180  0.8246E+00  0.6505E+01
      5.293  0.8134E+00  0.6597E+01
      5.405  0.8075E+00  0.6688E+01
      5.518  0.7976E+00  0.6778E+01
      5.630  0.7848E+00  0.6867E+01
      5.742  0.7712E+00  0.6955E+01
      5.855  0.7567E+00  0.7040E+01
      5.967  0.7502E+00  0.7125E+01
      6.080  0.7405E+00  0.7209E+01
      6.192  0.7262E+00  0.7291E+01
      6.304  0.7213E+00  0.7373E+01
      6.417  0.6100E+00  0.7450E+01
      6.529  0.5214E+00  0.7513E+01
      6.642  0.4731E+00  0.7569E+01
      6.754  0.4294E+00  0.7619E+01
      6.866  0.3897E+00  0.7665E+01
      6.979  0.3586E+00  0.7707E+01
      7.091  0.3266E+00  0.7746E+01
      7.204  0.2989E+00  0.7781E+01
      7.316  0.2738E+00  0.7813E+01
      7.428  0.2483E+00  0.7842E+01
      7.541  0.2263E+00  0.7869E+01
      7.653  0.2047E+00  0.7893E+01
      7.766  0.1843E+00  0.7915E+01
      7.878  0.1630E+00  0.7935E+01
      7.990  0.1428E+00  0.7952E+01
      8.103  0.1216E+00  0.7967E+01
      8.215  0.1045E+00  0.7980E+01
      8.328  0.7850E-01  0.7990E+01
      8.440  0.4781E-01  0.7997E+01
      8.552  0.3083E-03  0.8000E+01
      8.665  0.0000E+00  0.8000E+01
      8.777  0.0000E+00  0.8000E+01
      8.890  0.0000E+00  0.8000E+01
      9.002  0.0000E+00  0.8000E+01
      9.114  0.0000E+00  0.8000E+01
      9.227  0.0000E+00  0.8000E+01
      9.339  0.0000E+00  0.8000E+01
      9.451  0.0000E+00  0.8000E+01
      9.564  0.2111E-01  0.8000E+01
      9.676  0.9690E-01  0.8007E+01
      9.789  0.1416E+00  0.8021E+01
      9.901  0.1906E+00  0.8039E+01
     10.013  0.2363E+00  0.8064E+01
     10.126  0.2670E+00  0.8092E+01
     10.238  0.2984E+00  0.8124E+01
     10.351  0.3303E+00  0.8159E+01
     10.463  0.3647E+00  0.8198E+01
     10.575  0.3935E+00  0.8241E+01
     10.688  0.4192E+00  0.8286E+01
     10.800  0.4439E+00  0.8335E+01
     10.913  0.4697E+00  0.8386E+01
     11.025  0.4974E+00  0.8441E+01
     11.137  0.5253E+00  0.8498E+01
     11.250  0.5553E+00  0.8559E+01
     11.362  0.5857E+00  0.8623E+01
     11.475  0.6147E+00  0.8690E+01
     11.587  0.6446E+00  0.8761E+01
     11.699  0.6765E+00  0.8835E+01
     11.812  0.7110E+00  0.8913E+01
     11.924  0.7487E+00  0.8995E+01
     12.037  0.7991E+00  0.9082E+01
     12.149  0.8596E+00  0.9175E+01
     12.261  0.9178E+00  0.9275E+01
     12.374  0.9890E+00  0.9382E+01
     12.486  0.1116E+01  0.9499E+01
     12.599  0.1497E+01  0.9641E+01
     12.711  0.1783E+01  0.9844E+01
     12.823  0.1214E+01  0.1001E+02
     12.936  0.1065E+01  0.1014E+02
     13.048  0.6874E+00  0.1023E+02
     13.161  0.5919E+00  0.1031E+02
     13.273  0.4503E+00  0.1036E+02
     13.385  0.4465E+00  0.1041E+02
     13.498  0.7578E+00  0.1047E+02
     13.610  0.1245E+01  0.1059E+02
     13.723  0.9072E+00  0.1070E+02
     13.835  0.9895E+00  0.1081E+02
     13.947  0.1086E+01  0.1093E+02
     14.060  0.1081E+01  0.1105E+02
     14.172  0.1202E+01  0.1117E+02
     14.285  0.1311E+01  0.1132E+02
     14.397  0.1253E+01  0.1146E+02
     14.509  0.1178E+01  0.1160E+02
     14.622  0.1172E+01  0.1173E+02
     14.734  0.1052E+01  0.1186E+02
     14.847  0.8273E+00  0.1196E+02
     14.959  0.7672E+00  0.1205E+02
     15.071  0.7427E+00  0.1213E+02
     15.184  0.8323E+00  0.1222E+02
     15.296  0.7925E+00  0.1232E+02
     15.409  0.9064E+00  0.1241E+02
     15.521  0.7813E+00  0.1250E+02
     15.633  0.7912E+00  0.1259E+02
     15.746  0.8602E+00  0.1268E+02
     15.858  0.8133E+00  0.1278E+02
     15.971  0.8188E+00  0.1287E+02
     16.083  0.8586E+00  0.1296E+02
     16.195  0.9554E+00  0.1306E+02
     16.308  0.9713E+00  0.1317E+02
     16.420  0.9495E+00  0.1328E+02
     16.533  0.9582E+00  0.1339E+02
     16.645  0.9718E+00  0.1350E+02
     16.757  0.8956E+00  0.1360E+02
     16.870  0.8996E+00  0.1370E+02
     16.982  0.9003E+00  0.1381E+02
     17.095  0.8484E+00  0.1390E+02
     17.207  0.8536E+00  0.1400E+02
     17.319  0.7629E+00  0.1409E+02
     17.432  0.6282E+00  0.1417E+02
     17.544  0.6348E+00  0.1424E+02
     17.657  0.6523E+00  0.1431E+02
     17.769  0.6873E+00  0.1439E+02
     17.881  0.9233E+00  0.1447E+02
     17.994  0.7660E+00  0.1456E+02
     18.106  0.7508E+00  0.1465E+02
     18.219  0.7483E+00  0.1473E+02
     18.331  0.7661E+00  0.1482E+02
     18.443  0.8176E+00  0.1491E+02
     18.556  0.8816E+00  0.1500E+02
     18.668  0.9094E+00  0.1510E+02
     18.781  0.9185E+00  0.1521E+02
     18.893  0.6388E+00  0.1530E+02
     19.005  0.4876E+00  0.1536E+02
     19.118  0.4412E+00  0.1541E+02
     19.230  0.4011E+00  0.1546E+02
     19.343  0.3893E+00  0.1550E+02
     19.455  0.3801E+00  0.1555E+02
     19.567  0.3458E+00  0.1559E+02
     19.680  0.3239E+00  0.1562E+02
     19.792  0.2999E+00  0.1566E+02
     19.905  0.2896E+00  0.1569E+02
     20.017  0.2714E+00  0.1572E+02
     20.129  0.2521E+00  0.1575E+02
     20.242  0.2464E+00  0.1578E+02
     20.354  0.2265E+00  0.1581E+02
     20.466  0.2065E+00  0.1583E+02
     20.579  0.1898E+00  0.1585E+02
     20.691  0.1739E+00  0.1588E+02
     20.804  0.1668E+00  0.1589E+02
     20.916  0.1515E+00  0.1591E+02
     21.028  0.1454E+00  0.1593E+02
     21.141  0.1249E+00  0.1594E+02
     21.253  0.1060E+00  0.1596E+02
     21.366  0.9375E-01  0.1597E+02
     21.478  0.8319E-01  0.1598E+02
     21.590  0.7758E-01  0.1599E+02
     21.703  0.4966E-01  0.1599E+02
     21.815  0.3204E-01  0.1600E+02
     21.928  0.0000E+00  0.1600E+02
     22.040  0.0000E+00  0.1600E+02
     22.152  0.0000E+00  0.1600E+02
     22.265  0.0000E+00  0.1600E+02
     22.377  0.0000E+00  0.1600E+02
     22.490  0.0000E+00  0.1600E+02
     22.602  0.0000E+00  0.1600E+02
     22.714  0.0000E+00  0.1600E+02
     22.827  0.0000E+00  0.1600E+02
     22.939  0.0000E+00  0.1600E+02
     23.052  0.0000E+00  0.1600E+02
     23.164  0.0000E+00  0.1600E+02
     23.276  0.0000E+00  0.1600E+02
     23.389  0.0000E+00  0.1600E+02
