    2    2    1    1
  0.1118156E+02  0.3162393E-09  0.3162393E-09  0.3162393E-09  0.0000000E+00
  1.000000000000000E-004
  CAR 
 unknown system                          
      8    455      8
 
  0.0000000E+00  0.0000000E+00  0.0000000E+00  0.6400000E-04
    1       -8.797842   1.000000
    2        8.561496   1.000000
    3        8.561496   1.000000
    4        8.561496   1.000000
    5       12.118087   0.000000
    6       12.118087   0.000000
    7       12.118087   0.000000
    8       15.870640   0.000000
 
  0.4000000E-01  0.0000000E+00  0.0000000E+00  0.5120000E-03
    1       -8.766530   1.000000
    2        8.252190   1.000000
    3        8.492408   1.000000
    4        8.492408   1.000000
    5       12.207468   0.000000
    6       12.207468   0.000000
    7       12.246294   0.000000
    8       15.955201   0.000000
 
  0.8000000E-01  0.0000000E+00  0.0000000E+00  0.5120000E-03
    1       -8.672656   1.000000
    2        7.484974   1.000000
    3        8.307652   1.000000
    4        8.307652   1.000000
    5       12.447794   0.000000
    6       12.447794   0.000000
    7       12.485667   0.000000
    8       16.198259   0.000000
 
  0.1200000E+00  0.0000000E+00  0.0000000E+00  0.5120000E-03
    1       -8.516704   1.000000
    2        6.492433   1.000000
    3        8.054011   1.000000
    4        8.054011   1.000000
    5       12.662538   0.000000
    6       12.775856   0.000000
    7       12.775856   0.000000
    8       16.557981   0.000000
 
  0.1600000E+00  0.0000000E+00  0.0000000E+00  0.5120000E-03
    1       -8.299437   1.000000
    2        5.406476   1.000000
    3        7.773271   1.000000
    4        7.773272   1.000000
    5       12.741405   0.000000
    6       13.122150   0.000000
    7       13.122150   0.000000
    8       16.966967   0.000000
 
  0.2000000E+00  0.0000000E+00  0.0000000E+00  0.5120000E-03
    1       -8.022219   1.000000
    2        4.293561   1.000000
    3        7.493512   1.000000
    4        7.493512   1.000000
    5       12.750501   0.000000
    6       13.423765   0.000000
    7       13.423765   0.000000
    8       17.357822   0.000000
 
  0.2400000E+00  0.0000000E+00  0.0000000E+00  0.5120000E-03
    1       -7.687236   1.000000
    2        3.190526   1.000000
    3        7.231791   1.000000
    4        7.231791   1.000000
    5       12.722505   0.000000
    6       13.633951   0.000000
    7       13.633951   0.000000
    8       17.670514   0.000000
 
  0.2800000E+00  0.0000000E+00  0.0000000E+00  0.5120000E-03
    1       -7.298167   1.000000
    2        2.121223   1.000000
    3        6.998144   1.000000
    4        6.998144   1.000000
    5       12.679719   0.000000
    6       13.735848   0.000000
    7       13.735848   0.000000
    8       17.859267   0.000000
 
  0.3200000E+00  0.0000000E+00  0.0000000E+00  0.5120000E-03
    1       -6.861474   1.000000
    2        1.104689   1.000000
    3        6.798508   1.000000
    4        6.798509   1.000000
    5       12.635247   0.000000
    6       13.746105   0.000000
    7       13.746105   0.000000
    8       17.917962   0.000000
 
  0.3600000E+00  0.0000000E+00  0.0000000E+00  0.5120000E-03
    1       -6.389210   1.000000
    2        0.161111   1.000000
    3        6.636316   1.000000
    4        6.636316   1.000000
    5       12.596039   0.000000
    6       13.700366   0.000000
    7       13.700366   0.000000
    8       17.886302   0.000000
 
  0.4000000E+00  0.0000000E+00  0.0000000E+00  0.5120000E-03
    1       -5.905895   1.000000
    2       -0.679631   1.000000
    3        6.513528   1.000000
    4        6.513528   1.000000
    5       12.565475   0.000000
    6       13.634839   0.000000
    7       13.634839   0.000000
    8       17.817539   0.000000
 
  0.4400000E+00  0.0000000E+00  0.0000000E+00  0.5120000E-03
    1       -5.464585   1.000000
    2       -1.360966   1.000000
    3        6.431240   1.000000
    4        6.431240   1.000000
    5       12.544903   0.000000
    6       13.576997   0.000000
    7       13.576997   0.000000
    8       17.752250   0.000000
 
  0.4800000E+00  0.0000000E+00  0.0000000E+00  0.5120000E-03
    1       -5.174537   1.000000
    2       -1.771535   1.000000
    3        6.389987   1.000000
    4        6.389987   1.000000
    5       12.534589   0.000000
    6       13.544034   0.000000
    7       13.544035   0.000000
    8       17.714294   0.000000
 
  0.4000000E-01  0.4000000E-01  0.0000000E+00  0.3840000E-03
    1       -8.756082   1.000000
    2        8.341345   1.000000
    3        8.341345   1.000000
    4        8.409858   1.000000
    5       12.000396   0.000000
    6       12.383184   0.000000
    7       12.383184   0.000000
    8       15.973739   0.000000
 
  0.8000000E-01  0.4000000E-01  0.0000000E+00  0.1536000E-02
    1       -8.683040   1.000000
    2        7.743362   1.000000
    3        8.099017   1.000000
    4        8.357622   1.000000
    5       11.994844   0.000000
    6       12.671095   0.000000
    7       12.687605   0.000000
    8       16.137279   0.000000
 
  0.1200000E+00  0.4000000E-01  0.0000000E+00  0.1536000E-02
    1       -8.547772   1.000000
    2        6.825238   1.000000
    3        7.812208   1.000000
    4        8.204466   1.000000
    5       12.160000   0.000000
    6       12.928628   0.000000
    7       13.059474   0.000000
    8       16.416717   0.000000
 
  0.1600000E+00  0.4000000E-01  0.0000000E+00  0.1536000E-02
    1       -8.350891   1.000000
    2        5.773002   1.000000
    3        7.516255   1.000000
    4        7.970088   1.000000
    5       12.399172   0.000000
    6       13.106054   0.000000
    7       13.437517   0.000000
    8       16.746022   0.000000
 
  0.2000000E+00  0.4000000E-01  0.0000000E+00  0.1536000E-02
    1       -8.093577   1.000000
    2        4.671882   1.000000
    3        7.233762   1.000000
    4        7.698304   1.000000
    5       12.603413   0.000000
    6       13.249325   0.000000
    7       13.764222   0.000000
    8       17.057351   0.000000
 
  0.2400000E+00  0.4000000E-01  0.0000000E+00  0.1536000E-02
    1       -7.777663   1.000000
    2        3.567746   1.000000
    3        6.978465   1.000000
    4        7.419396   1.000000
    5       12.705531   0.000000
    6       13.392788   0.000000
    7       13.992517   0.000000
    8       17.325309   0.000000
 
  0.2800000E+00  0.4000000E-01  0.0000000E+00  0.1536000E-02
    1       -7.406283   1.000000
    2        2.488727   1.000000
    3        6.758564   1.000000
    4        7.151804   1.000000
    5       12.725673   0.000000
    6       13.501813   0.000000
    7       14.100373   0.000000
    8       17.560072   0.000000
 
  0.3200000E+00  0.4000000E-01  0.0000000E+00  0.1536000E-02
    1       -6.984726   1.000000
    2        1.455302   1.000000
    3        6.578903   1.000000
    4        6.906611   1.000000
    5       12.708530   0.000000
    6       13.546197   0.000000
    7       14.099537   0.000000
    8       17.750517   0.000000
 
  0.3600000E+00  0.4000000E-01  0.0000000E+00  0.1536000E-02
    1       -6.522744   1.000000
    2        0.486914   1.000000
    3        6.442108   1.000000
    4        6.690551   1.000000
    5       12.680470   0.000000
    6       13.538219   0.000000
    7       14.024936   0.000000
    8       17.861976   0.000000
 
  0.4000000E+00  0.4000000E-01  0.0000000E+00  0.1536000E-02
    1       -6.039511   1.000000
    2       -0.390916   1.000000
    3        6.349451   1.000000
    4        6.508027   1.000000
    5       12.654197   0.000000
    6       13.508219   0.000000
    7       13.915600   0.000000
    8       17.893801   0.000000
 
  0.4400000E+00  0.4000000E-01  0.0000000E+00  0.1536000E-02
    1       -5.575896   1.000000
    2       -1.133148   1.000000
    3        6.301215   1.000000
    4        6.362070   1.000000
    5       12.635747   0.000000
    6       13.483661   0.000000
    7       13.802947   0.000000
    8       17.882246   0.000000
 
  0.4800000E+00  0.4000000E-01  0.0000000E+00  0.1536000E-02
    1       -5.219697   1.000000
    2       -1.649394   1.000000
    3        6.254926   1.000000
    4        6.297027   1.000000
    5       12.627729   0.000000
    6       13.483008   0.000000
    7       13.707990   0.000000
    8       17.864403   0.000000
 
 -0.4800000E+00  0.4000000E-01  0.0000000E+00  0.1536000E-02
    1       -5.112580   1.000000
    2       -1.796588   1.000000
    3        6.188418   1.000000
    4        6.336014   1.000000
    5       12.630628   0.000000
    6       13.516279   0.000000
    7       13.642271   0.000000
    8       17.861901   0.000000
 
 -0.4400000E+00  0.4000000E-01  0.0000000E+00  0.1536000E-02
    1       -5.318367   1.000000
    2       -1.510555   1.000000
    3        6.163998   1.000000
    4        6.416951   1.000000
    5       12.643939   0.000000
    6       13.586143   0.000000
    7       13.609138   0.000000
    8       17.880589   0.000000
 
 -0.4000000E+00  0.4000000E-01  0.0000000E+00  0.1536000E-02
    1       -5.724286   1.000000
    2       -0.904761   1.000000
    3        6.182842   1.000000
    4        6.538228   1.000000
    5       12.666700   0.000000
    6       13.603974   0.000000
    7       13.687831   0.000000
    8       17.911602   0.000000
 
 -0.3600000E+00  0.4000000E-01  0.0000000E+00  0.1536000E-02
    1       -6.201200   1.000000
    2       -0.110123   1.000000
    3        6.245708   1.000000
    4        6.697869   1.000000
    5       12.697914   0.000000
    6       13.613401   0.000000
    7       13.807856   0.000000
    8       17.930921   0.000000
 
 -0.3200000E+00  0.4000000E-01  0.0000000E+00  0.1536000E-02
    1       -6.680443   1.000000
    2        0.801615   1.000000
    3        6.352851   1.000000
    4        6.893286   1.000000
    5       12.735990   0.000000
    6       13.614044   0.000000
    7       13.921986   0.000000
    8       17.901448   0.000000
 
 -0.2800000E+00  0.4000000E-01  0.0000000E+00  0.1536000E-02
    1       -7.130425   1.000000
    2        1.794061   1.000000
    3        6.503844   1.000000
    4        7.120972   1.000000
    5       12.777608   0.000000
    6       13.573409   0.000000
    7       13.994225   0.000000
    8       17.789036   0.000000
 
 -0.2400000E+00  0.4000000E-01  0.0000000E+00  0.1536000E-02
    1       -7.536058   1.000000
    2        2.844744   1.000000
    3        6.697187   1.000000
    4        7.375642   1.000000
    5       12.815830   0.000000
    6       13.457460   0.000000
    7       13.981552   0.000000
    8       17.589837   0.000000
 
 -0.2000000E+00  0.4000000E-01  0.0000000E+00  0.1536000E-02
    1       -7.889377   1.000000
    2        3.934426   1.000000
    3        6.929924   1.000000
    4        7.649048   1.000000
    5       12.837187   0.000000
    6       13.248279   0.000000
    7       13.851891   0.000000
    8       17.326975   0.000000
 
 -0.1600000E+00  0.4000000E-01  0.0000000E+00  0.1536000E-02
    1       -8.186021   1.000000
    2        5.040620   1.000000
    3        7.196780   1.000000
    4        7.927692   1.000000
    5       12.817659   0.000000
    6       12.961039   0.000000
    7       13.608598   0.000000
    8       17.016851   0.000000
 
 -0.1200000E+00  0.4000000E-01  0.0000000E+00  0.1536000E-02
    1       -8.423337   1.000000
    2        6.129828   1.000000
    3        7.489165   1.000000
    4        8.189431   1.000000
    5       12.644393   0.000000
    6       12.722204   0.000000
    7       13.293625   0.000000
    8       16.674013   0.000000
 
 -0.8000000E-01  0.4000000E-01  0.0000000E+00  0.1536000E-02
    1       -8.599772   1.000000
    2        7.142100   1.000000
    3        7.794939   1.000000
    4        8.399534   1.000000
    5       12.367350   0.000000
    6       12.533692   0.000000
    7       12.949132   0.000000
    8       16.340842   0.000000
 
 -0.4000000E-01  0.4000000E-01  0.0000000E+00  0.7680000E-03
    1       -8.714340   1.000000
    2        7.930298   1.000000
    3        8.127180   1.000000
    4        8.512618   1.000000
    5       12.203708   0.000000
    6       12.320732   0.000000
    7       12.577865   0.000000
    8       16.083746   0.000000
 
  0.8000000E-01  0.8000000E-01  0.0000000E+00  0.3840000E-03
    1       -8.630882   1.000000
    2        7.818686   1.000000
    3        7.818686   1.000000
    4        7.979918   1.000000
    5       11.701220   0.000000
    6       13.039581   0.000000
    7       13.039582   0.000000
    8       16.162680   0.000000
 
  0.1200000E+00  0.8000000E-01  0.0000000E+00  0.1536000E-02
    1       -8.516402   1.000000
    2        7.092318   1.000000
    3        7.509273   1.000000
    4        7.911303   1.000000
    5       11.641215   0.000000
    6       13.392802   0.000000
    7       13.448566   0.000000
    8       16.260340   0.000000
 
  0.1600000E+00  0.8000000E-01  0.0000000E+00  0.1536000E-02
    1       -8.340129   1.000000
    2        6.114220   1.000000
    3        7.201173   1.000000
    4        7.771122   1.000000
    5       11.775714   0.000000
    6       13.626560   0.000000
    7       13.860566   0.000000
    8       16.378685   0.000000
 
  0.2000000E+00  0.8000000E-01  0.0000000E+00  0.1536000E-02
    1       -8.103070   1.000000
    2        5.050424   1.000000
    3        6.913850   1.000000
    4        7.541654   1.000000
    5       12.009169   0.000000
    6       13.750313   0.000000
    7       14.222156   0.000000
    8       16.468663   0.000000
 
  0.2400000E+00  0.8000000E-01  0.0000000E+00  0.1536000E-02
    1       -7.806787   1.000000
    2        3.962268   1.000000
    3        6.659364   1.000000
    4        7.267248   1.000000
    5       12.243769   0.000000
    6       13.810027   0.000000
    7       14.484763   0.000000
    8       16.562065   0.000000
 
  0.2800000E+00  0.8000000E-01  0.0000000E+00  0.1536000E-02
    1       -7.453951   1.000000
    2        2.885629   1.000000
    3        6.445165   1.000000
    4        6.979801   1.000000
    5       12.414144   0.000000
    6       13.831753   0.000000
    7       14.619150   0.000000
    8       16.740263   0.000000
 
  0.3200000E+00  0.8000000E-01  0.0000000E+00  0.1536000E-02
    1       -7.048978   1.000000
    2        1.844667   1.000000
    3        6.275769   1.000000
    4        6.699016   1.000000
    5       12.505756   0.000000
    6       13.819566   0.000000
    7       14.628895   0.000000
    8       17.039999   0.000000
 
  0.3600000E+00  0.8000000E-01  0.0000000E+00  0.1536000E-02
    1       -6.599833   1.000000
    2        0.859684   1.000000
    3        6.153685   1.000000
    4        6.437140   1.000000
    5       12.541932   0.000000
    6       13.780511   0.000000
    7       14.545620   0.000000
    8       17.414276   0.000000
 
  0.4000000E+00  0.8000000E-01  0.0000000E+00  0.1536000E-02
    1       -6.121702   1.000000
    2       -0.046162   1.000000
    3        6.080092   1.000000
    4        6.202105   1.000000
    5       12.554391   0.000000
    6       13.731338   0.000000
    7       14.410085   0.000000
    8       17.764660   0.000000
 
  0.4400000E+00  0.8000000E-01  0.0000000E+00  0.1536000E-02
    1       -5.646198   1.000000
    2       -0.836026   1.000000
    3        5.999584   1.000000
    4        6.055109   1.000000
    5       12.567581   0.000000
    6       13.688778   0.000000
    7       14.257447   0.000000
    8       18.012954   0.000000
 
  0.4800000E+00  0.8000000E-01  0.0000000E+00  0.1536000E-02
    1       -5.241961   1.000000
    2       -1.437982   1.000000
    3        5.833831   1.000000
    4        6.078075   1.000000
    5       12.595952   0.000000
    6       13.664762   0.000000
    7       14.112432   0.000000
    8       18.153169   0.000000
 
 -0.4800000E+00  0.8000000E-01  0.0000000E+00  0.1536000E-02
    1       -5.037492   1.000000
    2       -1.721581   1.000000
    3        5.708284   1.000000
    4        6.147641   1.000000
    5       12.645091   0.000000
    6       13.667729   0.000000
    7       13.989807   0.000000
    8       18.221977   0.000000
 
 -0.4400000E+00  0.8000000E-01  0.0000000E+00  0.1536000E-02
    1       -5.144496   1.000000
    2       -1.574420   1.000000
    3        5.625738   1.000000
    4        6.261840   1.000000
    5       12.713049   0.000000
    6       13.704585   0.000000
    7       13.895822   0.000000
    8       18.246572   0.000000
 
 -0.4000000E+00  0.8000000E-01  0.0000000E+00  0.1536000E-02
    1       -5.499424   1.000000
    2       -1.060384   1.000000
    3        5.588495   1.000000
    4        6.418045   1.000000
    5       12.792416   0.000000
    6       13.780385   0.000000
    7       13.828793   0.000000
    8       18.226911   0.000000
 
 -0.3600000E+00  0.8000000E-01  0.0000000E+00  0.1536000E-02
    1       -5.961576   1.000000
    2       -0.321737   1.000000
    3        5.598297   1.000000
    4        6.612923   1.000000
    5       12.873649   0.000000
    6       13.778561   0.000000
    7       13.894282   0.000000
    8       18.139260   0.000000
 
 -0.3200000E+00  0.8000000E-01  0.0000000E+00  0.1536000E-02
    1       -6.443511   1.000000
    2        0.551254   1.000000
    3        5.656370   1.000000
    4        6.842230   1.000000
    5       12.949071   0.000000
    6       13.725455   0.000000
    7       14.033001   0.000000
    8       17.955648   0.000000
 
 -0.2800000E+00  0.8000000E-01  0.0000000E+00  0.1536000E-02
    1       -6.904438   1.000000
    2        1.513104   1.000000
    3        5.763354   1.000000
    4        7.100302   1.000000
    5       13.013539   0.000000
    6       13.640669   0.000000
    7       14.164574   0.000000
    8       17.681238   0.000000
 
 -0.2400000E+00  0.8000000E-01  0.0000000E+00  0.1536000E-02
    1       -7.325130   1.000000
    2        2.537345   1.000000
    3        5.919291   1.000000
    4        7.379235   1.000000
    5       13.061044   0.000000
    6       13.493376   0.000000
    7       14.236891   0.000000
    8       17.374095   0.000000
 
 -0.2000000E+00  0.8000000E-01  0.0000000E+00  0.1536000E-02
    1       -7.695848   1.000000
    2        3.602472   1.000000
    3        6.123723   1.000000
    4        7.667271   1.000000
    5       13.079405   0.000000
    6       13.267876   0.000000
    7       14.191830   0.000000
    8       17.109110   0.000000
 
 -0.1600000E+00  0.8000000E-01  0.0000000E+00  0.1536000E-02
    1       -8.011223   1.000000
    2        4.683237   1.000000
    3        6.376909   1.000000
    4        7.946267   1.000000
    5       12.981851   0.000000
    6       13.045961   0.000000
    7       14.007183   0.000000
    8       16.911134   0.000000
 
 -0.1200000E+00  0.8000000E-01  0.0000000E+00  0.1536000E-02
    1       -8.268136   1.000000
    2        5.735433   1.000000
    3        6.686495   1.000000
    4        8.188160   1.000000
    5       12.688175   0.000000
    6       12.931290   0.000000
    7       13.720497   0.000000
    8       16.734577   0.000000
 
 -0.8000000E-01  0.8000000E-01  0.0000000E+00  0.7680000E-03
    1       -8.464707   1.000000
    2        6.628009   1.000000
    3        7.122733   1.000000
    4        8.353284   1.000000
    5       12.459872   0.000000
    6       12.734234   0.000000
    7       13.371719   0.000000
    8       16.536981   0.000000
 
  0.1200000E+00  0.1200000E+00  0.0000000E+00  0.3840000E-03
    1       -8.422720   1.000000
    2        7.184669   1.000000
    3        7.184669   1.000000
    4        7.330287   1.000000
    5       11.316978   0.000000
    6       13.892856   0.000000
    7       13.892856   0.000000
    8       16.092249   0.000000
 
  0.1600000E+00  0.1200000E+00  0.0000000E+00  0.1536000E-02
    1       -8.267188   1.000000
    2        6.385907   1.000000
    3        6.866237   1.000000
    4        7.261628   1.000000
    5       11.241601   0.000000
    6       14.266360   0.000000
    7       14.343313   0.000000
    8       15.924150   0.000000
 
  0.2000000E+00  0.1200000E+00  0.0000000E+00  0.1536000E-02
    1       -8.050616   1.000000
    2        5.395238   1.000000
    3        6.572107   1.000000
    4        7.116152   1.000000
    5       11.372095   0.000000
    6       14.463672   0.000000
    7       14.749496   0.000000
    8       15.781812   0.000000
 
  0.2400000E+00  0.1200000E+00  0.0000000E+00  0.1536000E-02
    1       -7.774384   1.000000
    2        4.348487   1.000000
    3        6.313819   1.000000
    4        6.875279   1.000000
    5       11.606725   0.000000
    6       14.533591   0.000000
    7       15.061483   0.000000
    8       15.710393   0.000000
 
  0.2800000E+00  0.1200000E+00  0.0000000E+00  0.1536000E-02
    1       -7.440777   1.000000
    2        3.292445   1.000000
    3        6.098663   1.000000
    4        6.585793   1.000000
    5       11.840786   0.000000
    6       14.540532   0.000000
    7       15.242147   0.000000
    8       15.774801   0.000000
 
  0.3200000E+00  0.1200000E+00  0.0000000E+00  0.1536000E-02
    1       -7.053521   1.000000
    2        2.257638   1.000000
    3        5.931239   1.000000
    4        6.281155   1.000000
    5       12.007823   0.000000
    6       14.511901   0.000000
    7       15.284353   0.000000
    8       16.033617   0.000000
 
  0.3600000E+00  0.1200000E+00  0.0000000E+00  0.1536000E-02
    1       -6.619229   1.000000
    2        1.267140   1.000000
    3        5.814242   1.000000
    4        5.982358   1.000000
    5       12.099446   0.000000
    6       14.458411   0.000000
    7       15.213447   0.000000
    8       16.484580   0.000000
 
  0.4000000E+00  0.1200000E+00  0.0000000E+00  0.1536000E-02
    1       -6.150093   1.000000
    2        0.343837   1.000000
    3        5.702773   1.000000
    4        5.749008   1.000000
    5       12.146427   0.000000
    6       14.394845   0.000000
    7       15.070572   0.000000
    8       17.058961   0.000000
 
  0.4400000E+00  0.1200000E+00  0.0000000E+00  0.1536000E-02
    1       -5.670836   1.000000
    2       -0.480701   1.000000
    3        5.451468   1.000000
    4        5.735834   1.000000
    5       12.184869   0.000000
    6       14.334214   0.000000
    7       14.894562   0.000000
    8       17.656396   0.000000
 
  0.4800000E+00  0.1200000E+00  0.0000000E+00  0.1536000E-02
    1       -5.234537   1.000000
    2       -1.148892   1.000000
    3        5.235077   1.000000
    4        5.774129   1.000000
    5       12.240020   0.000000
    6       14.284732   0.000000
    7       14.714112   0.000000
    8       18.166271   0.000000
 
 -0.4800000E+00  0.1200000E+00  0.0000000E+00  0.1536000E-02
    1       -4.949342   1.000000
    2       -1.549974   1.000000
    3        5.058678   1.000000
    4        5.862490   1.000000
    5       12.325343   0.000000
    6       14.251834   0.000000
    7       14.547215   0.000000
    8       18.504263   0.000000
 
 -0.4400000E+00  0.1200000E+00  0.0000000E+00  0.1536000E-02
    1       -4.950701   1.000000
    2       -1.547227   1.000000
    3        4.926297   1.000000
    4        5.998695   1.000000
    5       12.445019   0.000000
    6       14.239867   0.000000
    7       14.402668   0.000000
    8       18.651483   0.000000
 
 -0.4000000E+00  0.1200000E+00  0.0000000E+00  0.1536000E-02
    1       -5.237666   1.000000
    2       -1.141628   1.000000
    3        4.841173   1.000000
    4        6.179689   1.000000
    5       12.595916   0.000000
    6       14.253164   0.000000
    7       14.281037   0.000000
    8       18.622248   0.000000
 
 -0.3600000E+00  0.1200000E+00  0.0000000E+00  0.1536000E-02
    1       -5.674434   1.000000
    2       -0.470348   1.000000
    3        4.805898   1.000000
    4        6.401300   1.000000
    5       12.768076   0.000000
    6       14.174351   0.000000
    7       14.295735   0.000000
    8       18.422021   0.000000
 
 -0.3200000E+00  0.1200000E+00  0.0000000E+00  0.1536000E-02
    1       -6.153521   1.000000
    2        0.356264   1.000000
    3        4.822601   1.000000
    4        6.657983   1.000000
    5       12.945204   0.000000
    6       14.065268   0.000000
    7       14.368562   0.000000
    8       18.067991   0.000000
 
 -0.2800000E+00  0.1200000E+00  0.0000000E+00  0.1536000E-02
    1       -6.622256   1.000000
    2        1.280382   1.000000
    3        4.893167   1.000000
    4        6.942221   1.000000
    5       13.106493   0.000000
    6       13.927698   0.000000
    7       14.461253   0.000000
    8       17.620795   0.000000
 
 -0.2400000E+00  0.1200000E+00  0.0000000E+00  0.1536000E-02
    1       -7.056087   1.000000
    2        2.268793   1.000000
    3        5.019987   1.000000
    4        7.243441   1.000000
    5       13.230302   0.000000
    6       13.734238   0.000000
    7       14.536041   0.000000
    8       17.179215   0.000000
 
 -0.2000000E+00  0.1200000E+00  0.0000000E+00  0.1536000E-02
    1       -7.442891   1.000000
    2        3.293152   1.000000
    3        5.208416   1.000000
    4        7.546333   1.000000
    5       13.295700   0.000000
    6       13.474116   0.000000
    7       14.518544   0.000000
    8       16.858113   0.000000
 
 -0.1600000E+00  0.1200000E+00  0.0000000E+00  0.1536000E-02
    1       -7.776082   1.000000
    2        4.309067   1.000000
    3        5.478439   1.000000
    4        7.828108   1.000000
    5       13.171359   0.000000
    6       13.277698   0.000000
    7       14.349259   0.000000
    8       16.727639   0.000000
 
 -0.1200000E+00  0.1200000E+00  0.0000000E+00  0.7680000E-03
    1       -8.051921   1.000000
    2        5.186475   1.000000
    3        5.926153   1.000000
    4        8.055857   1.000000
    5       12.884619   0.000000
    6       13.150716   0.000000
    7       14.064931   0.000000
    8       16.728808   0.000000
 
  0.1600000E+00  0.1600000E+00  0.0000000E+00  0.3840000E-03
    1       -8.132400   1.000000
    2        6.523161   1.000000
    3        6.538601   1.000000
    4        6.538601   1.000000
    5       10.916861   0.000000
    6       14.839447   0.000000
    7       14.839447   0.000000
    8       15.464527   0.000000
 
  0.2000000E+00  0.1600000E+00  0.0000000E+00  0.1536000E-02
    1       -7.936452   1.000000
    2        5.648043   1.000000
    3        6.236246   1.000000
    4        6.513703   1.000000
    5       10.847905   0.000000
    6       15.002554   0.000000
    7       15.300870   0.000000
    8       15.305905   0.000000
 
  0.2400000E+00  0.1600000E+00  0.0000000E+00  0.1536000E-02
    1       -7.680576   1.000000
    2        4.678910   1.000000
    3        5.970854   1.000000
    4        6.344746   1.000000
    5       10.986747   0.000000
    6       14.726550   0.000000
    7       15.520001   0.000000
    8       15.676979   0.000000
 
  0.2800000E+00  0.1600000E+00  0.0000000E+00  0.1536000E-02
    1       -7.366712   1.000000
    2        3.672559   1.000000
    3        5.750002   1.000000
    4        6.076763   1.000000
    5       11.222328   0.000000
    6       14.598979   0.000000
    7       15.626437   0.000000
    8       15.923347   0.000000
 
  0.3200000E+00  0.1600000E+00  0.0000000E+00  0.1536000E-02
    1       -6.998096   1.000000
    2        2.666068   1.000000
    3        5.578518   1.000000
    4        5.760835   1.000000
    5       11.441966   0.000000
    6       14.668901   0.000000
    7       15.689495   0.000000
    8       16.020253   0.000000
 
  0.3600000E+00  0.1600000E+00  0.0000000E+00  0.1536000E-02
    1       -6.580263   1.000000
    2        1.687394   1.000000
    3        5.432264   1.000000
    4        5.459410   1.000000
    5       11.586390   0.000000
    6       14.878304   0.000000
    7       15.824473   0.000000
    8       15.983380   0.000000
 
  0.4000000E+00  0.1600000E+00  0.0000000E+00  0.1536000E-02
    1       -6.123197   1.000000
    2        0.761289   1.000000
    3        5.113140   1.000000
    4        5.394280   1.000000
    5       11.666263   0.000000
    6       15.039244   0.000000
    7       15.852117   0.000000
    8       16.198763   0.000000
 
  0.4400000E+00  0.1600000E+00  0.0000000E+00  0.1536000E-02
    1       -5.646502   1.000000
    2       -0.083012   1.000000
    3        4.817625   1.000000
    4        5.383679   1.000000
    5       11.722882   0.000000
    6       15.076478   0.000000
    7       15.668847   0.000000
    8       16.825068   0.000000
 
  0.4800000E+00  0.1600000E+00  0.0000000E+00  0.1536000E-02
    1       -5.191354   1.000000
    2       -0.797953   1.000000
    3        4.555302   1.000000
    4        5.427247   1.000000
    5       11.790848   0.000000
    6       15.057204   0.000000
    7       15.466828   0.000000
    8       17.560724   0.000000
 
 -0.4800000E+00  0.1600000E+00  0.0000000E+00  0.1536000E-02
    1       -4.844862   1.000000
    2       -1.292634   1.000000
    3        4.333092   1.000000
    4        5.523684   1.000000
    5       11.890071   0.000000
    6       15.024324   0.000000
    7       15.267702   0.000000
    8       18.263924   0.000000
 
 -0.4400000E+00  0.1600000E+00  0.0000000E+00  0.1536000E-02
    1       -4.743885   1.000000
    2       -1.428049   1.000000
    3        4.156278   1.000000
    4        5.670885   1.000000
    5       12.029333   0.000000
    6       14.995572   0.000000
    7       15.082819   0.000000
    8       18.766096   0.000000
 
 -0.4000000E+00  0.1600000E+00  0.0000000E+00  0.1536000E-02
    1       -4.947208   1.000000
    2       -1.145080   1.000000
    3        4.029007   1.000000
    4        5.865658   1.000000
    5       12.209868   0.000000
    6       14.914348   0.000000
    7       14.979553   0.000000
    8       18.898315   0.000000
 