 running on   48 total cores
 distrk:  each k-point on   12 cores,    4 groups
 distr:  one band on   12 cores,    1 groups
 using from now: INCAR     
 vasp.5.4.4.18Apr17-6-g9f103f2a35 (build Nov 04 2020 14:40:39) complex          
  
 POSCAR found type information on POSCAR  B  As
 POSCAR found :  2 types and       2 ions
 scaLAPACK will be used

 ----------------------------------------------------------------------------- 
|                                                                             |
|           W    W    AA    RRRRR   N    N  II  N    N   GGGG   !!!           |
|           W    W   A  A   R    R  NN   N  II  NN   N  G    G  !!!           |
|           W    W  A    A  R    R  N N  N  II  N N  N  G       !!!           |
|           W WW W  AAAAAA  RRRRR   N  N N  II  N  N N  G  GGG   !            |
|           WW  WW  A    A  R   R   N   NN  II  N   NN  G    G                |
|           W    W  A    A  R    R  N    N  II  N    N   GGGG   !!!           |
|                                                                             |
|      You have enabled k-point parallelism (KPAR>1).                         |
|      This developmental code was originally  written by Paul Kent at ORNL,  |
|      and carefully double checked in Vienna.                                |
|      GW as well as linear response parallelism added by Martijn Marsman     |
|      and Georg Kresse.                                                      |
|      Carefully verify results versus KPAR=1.                                |
|      Report problems to Paul Kent and Vienna.                               |
|                                                                             |
 ----------------------------------------------------------------------------- 

 LDA part: xc-table for Pade appr. of Perdew
 POSCAR found type information on POSCAR  B  As
 POSCAR found :  2 types and       2 ions
 generate k-points for:   25   25   25
 POSCAR, INCAR and KPOINTS ok, starting setup
 FFT: planning ...
 WAVECAR not read
 entering main loop
       N       E                     dE             d eps       ncg     rms          rms(c)
DAV:   1     0.111290934671E+02    0.11129E+02   -0.41707E+03  7312   0.892E+02
DAV:   2    -0.116432250679E+02   -0.22772E+02   -0.22043E+02 10920   0.113E+02
DAV:   3    -0.118590555117E+02   -0.21583E+00   -0.21583E+00  8400   0.132E+01
DAV:   4    -0.118592372704E+02   -0.18176E-03   -0.18176E-03 11312   0.388E-01
DAV:   5    -0.118592373693E+02   -0.98879E-07   -0.98879E-07  8336   0.406E-03    0.512E+00
RMM:   6    -0.108341103309E+02    0.10251E+01   -0.10874E+00  7362   0.765E+00    0.204E+00
RMM:   7    -0.107101982801E+02    0.12391E+00   -0.23097E-01  7802   0.346E+00    0.762E-01
RMM:   8    -0.107005378868E+02    0.96604E-02   -0.24068E-02  8170   0.120E+00    0.867E-02
RMM:   9    -0.107007703789E+02   -0.23249E-03   -0.20988E-04  8630   0.130E-01    0.480E-02
RMM:  10    -0.107008781576E+02   -0.10778E-03   -0.18772E-04  8079   0.117E-01    0.822E-03
RMM:  11    -0.107008779926E+02    0.16492E-06   -0.14845E-05  8365   0.267E-02    0.772E-03
RMM:  12    -0.107008751028E+02    0.28899E-05   -0.30111E-06  7865   0.132E-02    0.488E-04
RMM:  13    -0.107008751122E+02   -0.93867E-08   -0.11872E-07  5010   0.262E-03
   1 F= -.10700875E+02 E0= -.10700875E+02  d E =0.000000E+00
