   2   2   0   0
  0.1620333E+02  0.3578627E-09  0.3578627E-09  0.3578627E-09  0.0000000E+00
  1.000000000000000E-004
  CAR 
 unknown system                          
     15.36128405    -10.72057497  301      4.41233698      1.00000000
    -10.721  0.0000E+00  0.0000E+00
    -10.634  0.0000E+00  0.0000E+00
    -10.547  0.0000E+00  0.0000E+00
    -10.460  0.0000E+00  0.0000E+00
    -10.373  0.0000E+00  0.0000E+00
    -10.286  0.0000E+00  0.0000E+00
    -10.199  0.0000E+00  0.0000E+00
    -10.112  0.0000E+00  0.0000E+00
    -10.025  0.0000E+00  0.0000E+00
     -9.938  0.0000E+00  0.0000E+00
     -9.851  0.0000E+00  0.0000E+00
     -9.764  0.0000E+00  0.0000E+00
     -9.677  0.0000E+00  0.0000E+00
     -9.590  0.0000E+00  0.0000E+00
     -9.503  0.5317E-01  0.7200E-03
     -9.416  0.1019E+00  0.7570E-02
     -9.330  0.1411E+00  0.1832E-01
     -9.243  0.1714E+00  0.3182E-01
     -9.156  0.1957E+00  0.4786E-01
     -9.069  0.2216E+00  0.6596E-01
     -8.982  0.2418E+00  0.8614E-01
     -8.895  0.2638E+00  0.1081E+00
     -8.808  0.2846E+00  0.1320E+00
     -8.721  0.3038E+00  0.1576E+00
     -8.634  0.3250E+00  0.1849E+00
     -8.547  0.3438E+00  0.2140E+00
     -8.460  0.3635E+00  0.2447E+00
     -8.373  0.3846E+00  0.2773E+00
     -8.286  0.4048E+00  0.3116E+00
     -8.199  0.4260E+00  0.3477E+00
     -8.112  0.4485E+00  0.3857E+00
     -8.025  0.4720E+00  0.4257E+00
     -7.939  0.4970E+00  0.4678E+00
     -7.852  0.5241E+00  0.5122E+00
     -7.765  0.5536E+00  0.5590E+00
     -7.678  0.5874E+00  0.6086E+00
     -7.591  0.6262E+00  0.6613E+00
     -7.504  0.6712E+00  0.7176E+00
     -7.417  0.7293E+00  0.7784E+00
     -7.330  0.8138E+00  0.8451E+00
     -7.243  0.1080E+01  0.9230E+00
     -7.156  0.9891E+00  0.1010E+01
     -7.069  0.9869E+00  0.1097E+01
     -6.982  0.9595E+00  0.1182E+01
     -6.895  0.9565E+00  0.1265E+01
     -6.808  0.9429E+00  0.1348E+01
     -6.721  0.9314E+00  0.1429E+01
     -6.634  0.9243E+00  0.1510E+01
     -6.547  0.9267E+00  0.1590E+01
     -6.461  0.9308E+00  0.1671E+01
     -6.374  0.9666E+00  0.1753E+01
     -6.287  0.1035E+01  0.1839E+01
     -6.200  0.1437E+01  0.1942E+01
     -6.113  0.5474E-01  0.2000E+01
     -6.026  0.0000E+00  0.2000E+01
     -5.939  0.0000E+00  0.2000E+01
     -5.852  0.0000E+00  0.2000E+01
     -5.765  0.0000E+00  0.2000E+01
     -5.678  0.0000E+00  0.2000E+01
     -5.591  0.0000E+00  0.2000E+01
     -5.504  0.0000E+00  0.2000E+01
     -5.417  0.0000E+00  0.2000E+01
     -5.330  0.0000E+00  0.2000E+01
     -5.243  0.0000E+00  0.2000E+01
     -5.156  0.0000E+00  0.2000E+01
     -5.070  0.0000E+00  0.2000E+01
     -4.983  0.0000E+00  0.2000E+01
     -4.896  0.0000E+00  0.2000E+01
     -4.809  0.0000E+00  0.2000E+01
     -4.722  0.0000E+00  0.2000E+01
     -4.635  0.0000E+00  0.2000E+01
     -4.548  0.0000E+00  0.2000E+01
     -4.461  0.0000E+00  0.2000E+01
     -4.374  0.0000E+00  0.2000E+01
     -4.287  0.0000E+00  0.2000E+01
     -4.200  0.0000E+00  0.2000E+01
     -4.113  0.0000E+00  0.2000E+01
     -4.026  0.0000E+00  0.2000E+01
     -3.939  0.0000E+00  0.2000E+01
     -3.852  0.0000E+00  0.2000E+01
     -3.765  0.0000E+00  0.2000E+01
     -3.678  0.0000E+00  0.2000E+01
     -3.592  0.0000E+00  0.2000E+01
     -3.505  0.0000E+00  0.2000E+01
     -3.418  0.0000E+00  0.2000E+01
     -3.331  0.0000E+00  0.2000E+01
     -3.244  0.0000E+00  0.2000E+01
     -3.157  0.3604E+00  0.2015E+01
     -3.070  0.7299E+00  0.2062E+01
     -2.983  0.1127E+01  0.2139E+01
     -2.896  0.1868E+01  0.2265E+01
     -2.809  0.2898E+01  0.2472E+01
     -2.722  0.1520E+01  0.2648E+01
     -2.635  0.1142E+01  0.2762E+01
     -2.548  0.9461E+00  0.2852E+01
     -2.461  0.8219E+00  0.2928E+01
     -2.374  0.7127E+00  0.2995E+01
     -2.287  0.6511E+00  0.3054E+01
     -2.201  0.5969E+00  0.3108E+01
     -2.114  0.5427E+00  0.3158E+01
     -2.027  0.5006E+00  0.3203E+01
     -1.940  0.4709E+00  0.3245E+01
     -1.853  0.4406E+00  0.3285E+01
     -1.766  0.4087E+00  0.3322E+01
     -1.679  0.3828E+00  0.3356E+01
     -1.592  0.3648E+00  0.3389E+01
     -1.505  0.3471E+00  0.3420E+01
     -1.418  0.3281E+00  0.3449E+01
     -1.331  0.3085E+00  0.3477E+01
     -1.244  0.2909E+00  0.3502E+01
     -1.157  0.2795E+00  0.3527E+01
     -1.070  0.2678E+00  0.3551E+01
     -0.983  0.2550E+00  0.3574E+01
     -0.896  0.2420E+00  0.3595E+01
     -0.809  0.2267E+00  0.3616E+01
     -0.723  0.2183E+00  0.3635E+01
     -0.636  0.2101E+00  0.3654E+01
     -0.549  0.4206E+00  0.3679E+01
     -0.462  0.6263E+00  0.3727E+01
     -0.375  0.8385E+00  0.3790E+01
     -0.288  0.1130E+01  0.3877E+01
     -0.201  0.1099E+01  0.3974E+01
     -0.114  0.1018E+01  0.4067E+01
     -0.027  0.9563E+00  0.4152E+01
      0.060  0.9258E+00  0.4235E+01
      0.147  0.8993E+00  0.4314E+01
      0.234  0.8909E+00  0.4392E+01
      0.321  0.9410E+00  0.4471E+01
      0.408  0.9491E+00  0.4552E+01
      0.495  0.9540E+00  0.4634E+01
      0.582  0.9817E+00  0.4719E+01
      0.669  0.1029E+01  0.4807E+01
      0.755  0.1087E+01  0.4899E+01
      0.842  0.1114E+01  0.4995E+01
      0.929  0.1226E+01  0.5096E+01
      1.016  0.1442E+01  0.5212E+01
      1.103  0.1403E+01  0.5333E+01
      1.190  0.1360E+01  0.5453E+01
      1.277  0.1344E+01  0.5570E+01
      1.364  0.1318E+01  0.5686E+01
      1.451  0.1305E+01  0.5800E+01
      1.538  0.1291E+01  0.5913E+01
      1.625  0.1266E+01  0.6024E+01
      1.712  0.1253E+01  0.6133E+01
      1.799  0.1234E+01  0.6241E+01
      1.886  0.1215E+01  0.6348E+01
      1.973  0.1201E+01  0.6453E+01
      2.060  0.1187E+01  0.6557E+01
      2.146  0.1165E+01  0.6659E+01
      2.233  0.1147E+01  0.6759E+01
      2.320  0.1137E+01  0.6858E+01
      2.407  0.1123E+01  0.6957E+01
      2.494  0.1110E+01  0.7054E+01
      2.581  0.1096E+01  0.7150E+01
      2.668  0.1092E+01  0.7244E+01
      2.755  0.1071E+01  0.7339E+01
      2.842  0.1023E+01  0.7431E+01
      2.929  0.7947E+00  0.7508E+01
      3.016  0.6912E+00  0.7572E+01
      3.103  0.6166E+00  0.7629E+01
      3.190  0.5484E+00  0.7680E+01
      3.277  0.4967E+00  0.7725E+01
      3.364  0.4505E+00  0.7766E+01
      3.451  0.4048E+00  0.7803E+01
      3.538  0.3620E+00  0.7837E+01
      3.624  0.3237E+00  0.7866E+01
      3.711  0.2876E+00  0.7893E+01
      3.798  0.2561E+00  0.7916E+01
      3.885  0.2211E+00  0.7937E+01
      3.972  0.1881E+00  0.7955E+01
      4.059  0.1664E+00  0.7970E+01
      4.146  0.1290E+00  0.7983E+01
      4.233  0.8959E-01  0.7993E+01
      4.320  0.5040E-01  0.7999E+01
      4.407  0.0000E+00  0.8000E+01
      4.494  0.0000E+00  0.8000E+01
      4.581  0.0000E+00  0.8000E+01
      4.668  0.0000E+00  0.8000E+01
      4.755  0.0000E+00  0.8000E+01
      4.842  0.0000E+00  0.8000E+01
      4.929  0.0000E+00  0.8000E+01
      5.015  0.0000E+00  0.8000E+01
      5.102  0.0000E+00  0.8000E+01
      5.189  0.0000E+00  0.8000E+01
      5.276  0.0000E+00  0.8000E+01
      5.363  0.0000E+00  0.8000E+01
      5.450  0.0000E+00  0.8000E+01
      5.537  0.0000E+00  0.8000E+01
      5.624  0.0000E+00  0.8000E+01
      5.711  0.0000E+00  0.8000E+01
      5.798  0.5389E-01  0.8001E+01
      5.885  0.1354E+00  0.8010E+01
      5.972  0.2017E+00  0.8025E+01
      6.059  0.2594E+00  0.8044E+01
      6.146  0.3347E+00  0.8070E+01
      6.233  0.4105E+00  0.8103E+01
      6.320  0.5165E+00  0.8143E+01
      6.407  0.5989E+00  0.8192E+01
      6.493  0.6806E+00  0.8247E+01
      6.580  0.7720E+00  0.8310E+01
      6.667  0.8691E+00  0.8382E+01
      6.754  0.9694E+00  0.8462E+01
      6.841  0.1083E+01  0.8551E+01
      6.928  0.1230E+01  0.8651E+01
      7.015  0.1423E+01  0.8766E+01
      7.102  0.1978E+01  0.8908E+01
      7.189  0.2237E+01  0.9103E+01
      7.276  0.1543E+01  0.9253E+01
      7.363  0.1436E+01  0.9384E+01
      7.450  0.1353E+01  0.9505E+01
      7.537  0.1398E+01  0.9620E+01
      7.624  0.1249E+01  0.9733E+01
      7.711  0.1074E+01  0.9835E+01
      7.798  0.9562E+00  0.9922E+01
      7.884  0.9657E+00  0.1001E+02
      7.971  0.8752E+00  0.1009E+02
      8.058  0.9048E+00  0.1016E+02
      8.145  0.8575E+00  0.1024E+02
      8.232  0.8999E+00  0.1032E+02
      8.319  0.9647E+00  0.1040E+02
      8.406  0.1012E+01  0.1048E+02
      8.493  0.1137E+01  0.1058E+02
      8.580  0.1550E+01  0.1069E+02
      8.667  0.1310E+01  0.1082E+02
      8.754  0.1620E+01  0.1094E+02
      8.841  0.2103E+01  0.1111E+02
      8.928  0.1927E+01  0.1129E+02
      9.015  0.1448E+01  0.1143E+02
      9.102  0.1371E+01  0.1155E+02
      9.189  0.1330E+01  0.1167E+02
      9.276  0.1447E+01  0.1178E+02
      9.362  0.1202E+01  0.1190E+02
      9.449  0.1116E+01  0.1200E+02
      9.536  0.1073E+01  0.1209E+02
      9.623  0.1032E+01  0.1219E+02
      9.710  0.9839E+00  0.1227E+02
      9.797  0.9267E+00  0.1236E+02
      9.884  0.1029E+01  0.1244E+02
      9.971  0.1134E+01  0.1253E+02
     10.058  0.1230E+01  0.1264E+02
     10.145  0.1479E+01  0.1275E+02
     10.232  0.1404E+01  0.1288E+02
     10.319  0.1444E+01  0.1301E+02
     10.406  0.1370E+01  0.1313E+02
     10.493  0.1345E+01  0.1325E+02
     10.580  0.1349E+01  0.1337E+02
     10.667  0.1258E+01  0.1348E+02
     10.753  0.1242E+01  0.1359E+02
     10.840  0.1178E+01  0.1369E+02
     10.927  0.1102E+01  0.1379E+02
     11.014  0.1141E+01  0.1389E+02
     11.101  0.9477E+00  0.1398E+02
     11.188  0.8269E+00  0.1406E+02
     11.275  0.8204E+00  0.1413E+02
     11.362  0.7977E+00  0.1420E+02
     11.449  0.7885E+00  0.1427E+02
     11.536  0.7893E+00  0.1434E+02
     11.623  0.8095E+00  0.1441E+02
     11.710  0.8647E+00  0.1448E+02
     11.797  0.9060E+00  0.1456E+02
     11.884  0.9468E+00  0.1464E+02
     11.971  0.1017E+01  0.1472E+02
     12.058  0.1114E+01  0.1481E+02
     12.145  0.1334E+01  0.1492E+02
     12.231  0.1662E+01  0.1505E+02
     12.318  0.1340E+01  0.1519E+02
     12.405  0.1020E+01  0.1530E+02
     12.492  0.9699E+00  0.1538E+02
     12.579  0.8985E+00  0.1546E+02
     12.666  0.8149E+00  0.1554E+02
     12.753  0.8357E+00  0.1561E+02
     12.840  0.7580E+00  0.1568E+02
     12.927  0.4162E+00  0.1572E+02
     13.014  0.3908E+00  0.1576E+02
     13.101  0.3622E+00  0.1579E+02
     13.188  0.3342E+00  0.1582E+02
     13.275  0.3046E+00  0.1585E+02
     13.362  0.2748E+00  0.1587E+02
     13.449  0.2491E+00  0.1590E+02
     13.536  0.2273E+00  0.1592E+02
     13.622  0.2063E+00  0.1594E+02
     13.709  0.1864E+00  0.1595E+02
     13.796  0.1527E+00  0.1597E+02
     13.883  0.1219E+00  0.1598E+02
     13.970  0.9595E-01  0.1599E+02
     14.057  0.7924E-01  0.1600E+02
     14.144  0.5927E-02  0.1600E+02
     14.231  0.0000E+00  0.1600E+02
     14.318  0.0000E+00  0.1600E+02
     14.405  0.0000E+00  0.1600E+02
     14.492  0.0000E+00  0.1600E+02
     14.579  0.0000E+00  0.1600E+02
     14.666  0.0000E+00  0.1600E+02
     14.753  0.0000E+00  0.1600E+02
     14.840  0.0000E+00  0.1600E+02
     14.927  0.0000E+00  0.1600E+02
     15.014  0.0000E+00  0.1600E+02
     15.100  0.0000E+00  0.1600E+02
     15.187  0.0000E+00  0.1600E+02
     15.274  0.0000E+00  0.1600E+02
     15.361  0.0000E+00  0.1600E+02
