    2    2    1    1
  0.1620333E+02  0.3578627E-09  0.3578627E-09  0.3578627E-09  0.0000000E+00
  1.000000000000000E-004
  CAR 
 unknown system                          
      8    328      8
 
  0.0000000E+00  0.0000000E+00  0.0000000E+00  0.9391435E-04
    1       -9.535036   1.000000
    2        4.393575   1.000000
    3        4.393575   1.000000
    4        4.393575   1.000000
    5        7.033549   0.000000
    6        7.464055   0.000000
    7        7.464055   0.000000
    8        7.464056   0.000000
 
  0.4545455E-01  0.0000000E+00  0.0000000E+00  0.7513148E-03
    1       -9.506236   1.000000
    2        4.032772   1.000000
    3        4.337138   1.000000
    4        4.337138   1.000000
    5        7.113138   0.000000
    6        7.538954   0.000000
    7        7.538954   0.000000
    8        7.685316   0.000000
 
  0.9090909E-01  0.0000000E+00  0.0000000E+00  0.7513148E-03
    1       -9.420149   1.000000
    2        3.238336   1.000000
    3        4.186622   1.000000
    4        4.186622   1.000000
    5        7.075968   0.000000
    6        7.740250   0.000000
    7        7.740250   0.000000
    8        8.346716   0.000000
 
  0.1363636E+00  0.0000000E+00  0.0000000E+00  0.7513148E-03
    1       -9.278023   1.000000
    2        2.305232   1.000000
    3        3.981401   1.000000
    4        3.981401   1.000000
    5        6.955114   0.000000
    6        8.014789   0.000000
    7        8.014789   0.000000
    8        9.145488   0.000000
 
  0.1818182E+00  0.0000000E+00  0.0000000E+00  0.7513148E-03
    1       -9.082071   1.000000
    2        1.343777   1.000000
    3        3.757191   1.000000
    4        3.757191   1.000000
    5        6.806715   0.000000
    6        8.305410   0.000000
    7        8.305410   0.000000
    8        9.947837   0.000000
 
  0.2272727E+00  0.0000000E+00  0.0000000E+00  0.7513148E-03
    1       -8.836177   1.000000
    2        0.399955   1.000000
    3        3.538207   1.000000
    4        3.538207   1.000000
    5        6.654787   0.000000
    6        8.563419   0.000000
    7        8.563419   0.000000
    8       10.712699   0.000000
 
  0.2727273E+00  0.0000000E+00  0.0000000E+00  0.7513148E-03
    1       -8.546780   1.000000
    2       -0.499148   1.000000
    3        3.339294   1.000000
    4        3.339294   1.000000
    5        6.513407   0.000000
    6        8.756403   0.000000
    7        8.756403   0.000000
    8       11.414105   0.000000
 
  0.3181818E+00  0.0000000E+00  0.0000000E+00  0.7513148E-03
    1       -8.224865   1.000000
    2       -1.330708   1.000000
    3        3.169309   1.000000
    4        3.169309   1.000000
    5        6.391040   0.000000
    6        8.874964   0.000000
    7        8.874964   0.000000
    8       12.011397   0.000000
 
  0.3636364E+00  0.0000000E+00  0.0000000E+00  0.7513148E-03
    1       -7.889693   1.000000
    2       -2.068190   1.000000
    3        3.033449   1.000000
    4        3.033449   1.000000
    5        6.292619   0.000000
    6        8.931270   0.000000
    7        8.931270   0.000000
    8       12.446107   0.000000
 
  0.4090909E+00  0.0000000E+00  0.0000000E+00  0.7513148E-03
    1       -7.575216   1.000000
    2       -2.672877   1.000000
    3        2.934762   1.000000
    4        2.934762   1.000000
    5        6.220929   0.000000
    6        8.948485   0.000000
    7        8.948485   0.000000
    8       12.691198   0.000000
 
  0.4545455E+00  0.0000000E+00  0.0000000E+00  0.7513148E-03
    1       -7.337452   1.000000
    2       -3.085874   1.000000
    3        2.874963   1.000000
    4        2.874963   1.000000
    5        6.177459   0.000000
    6        8.948924   0.000000
    7        8.948924   0.000000
    8       12.794156   0.000000
 
  0.5000000E+00  0.0000000E+00  0.0000000E+00  0.3756574E-03
    1       -7.246134   1.000000
    2       -3.235724   1.000000
    3        2.854957   1.000000
    4        2.854957   1.000000
    5        6.162909   0.000000
    6        8.947409   0.000000
    7        8.947410   0.000000
    8       12.820085   0.000000
 
  0.4545455E-01  0.4545455E-01  0.0000000E+00  0.5634861E-03
    1       -9.496619   1.000000
    2        4.092290   1.000000
    3        4.224543   1.000000
    4        4.224543   1.000000
    5        7.169942   0.000000
    6        7.514611   0.000000
    7        7.675186   0.000000
    8        7.675187   0.000000
 
  0.9090909E-01  0.4545455E-01  0.0000000E+00  0.2253944E-02
    1       -9.429588   1.000000
    2        3.465291   1.000000
    3        4.035003   1.000000
    4        4.157668   1.000000
    5        7.185648   0.000000
    6        7.563228   0.000000
    7        7.922375   0.000000
    8        8.194238   0.000000
 
  0.1363636E+00  0.4545455E-01  0.0000000E+00  0.2253944E-02
    1       -9.306081   1.000000
    2        2.588169   1.000000
    3        3.808567   1.000000
    4        4.022784   1.000000
    5        7.145232   0.000000
    6        7.680835   0.000000
    7        8.227830   0.000000
    8        8.946977   0.000000
 
  0.1818182E+00  0.4545455E-01  0.0000000E+00  0.2253944E-02
    1       -9.127914   1.000000
    2        1.647021   1.000000
    3        3.576614   1.000000
    4        3.824733   1.000000
    5        7.032793   0.000000
    6        7.919741   0.000000
    7        8.539218   0.000000
    8        9.714204   0.000000
 
  0.2272727E+00  0.4545455E-01  0.0000000E+00  0.2253944E-02
    1       -8.898379   1.000000
    2        0.705283   1.000000
    3        3.359491   1.000000
    4        3.601256   1.000000
    5        6.891940   0.000000
    6        8.195126   0.000000
    7        8.810720   0.000000
    8       10.439981   0.000000
 
  0.2727273E+00  0.4545455E-01  0.0000000E+00  0.2253944E-02
    1       -8.622877   1.000000
    2       -0.203472   1.000000
    3        3.169622   1.000000
    4        3.378365   1.000000
    5        6.750638   0.000000
    6        8.440712   0.000000
    7        9.009196   0.000000
    8       11.105907   0.000000
 
  0.3181818E+00  0.4545455E-01  0.0000000E+00  0.2253944E-02
    1       -8.310619   1.000000
    2       -1.054646   1.000000
    3        3.014349   1.000000
    4        3.171926   1.000000
    5        6.622877   0.000000
    6        8.622577   0.000000
    7        9.122193   0.000000
    8       11.700190   0.000000
 
  0.3636364E+00  0.4545455E-01  0.0000000E+00  0.2253944E-02
    1       -7.977515   1.000000
    2       -1.822975   1.000000
    3        2.897866   1.000000
    4        2.991484   1.000000
    5        6.516167   0.000000
    6        8.738434   0.000000
    7        9.159865   0.000000
    8       12.196215   0.000000
 
  0.4090909E+00  0.4545455E-01  0.0000000E+00  0.2253944E-02
    1       -7.651730   1.000000
    2       -2.474431   1.000000
    3        2.822366   1.000000
    4        2.842960   1.000000
    5        6.434656   0.000000
    6        8.807333   0.000000
    7        9.145983   0.000000
    8       12.551970   0.000000
 
  0.4545455E+00  0.4545455E-01  0.0000000E+00  0.2253944E-02
    1       -7.381379   1.000000
    2       -2.957143   1.000000
    3        2.730232   1.000000
    4        2.788726   1.000000
    5        6.380615   0.000000
    6        8.853693   0.000000
    7        9.105670   0.000000
    8       12.753035   0.000000
 
  0.5000000E+00  0.4545455E-01  0.0000000E+00  0.2253944E-02
    1       -7.234628   1.000000
    2       -3.200778   1.000000
    3        2.655909   1.000000
    4        2.796856   1.000000
    5        6.355159   0.000000
    6        8.896126   0.000000
    7        9.057324   0.000000
    8       12.833361   0.000000
 
 -0.4545455E+00  0.4545455E-01  0.0000000E+00  0.2253944E-02
    1       -7.265584   1.000000
    2       -3.150338   1.000000
    3        2.621846   1.000000
    4        2.845954   1.000000
    5        6.358717   0.000000
    6        8.943380   0.000000
    7        9.009834   0.000000
    8       12.826057   0.000000
 
 -0.4090909E+00  0.4545455E-01  0.0000000E+00  0.2253944E-02
    1       -7.461554   1.000000
    2       -2.818653   1.000000
    3        2.629297   1.000000
    4        2.934586   1.000000
    5        6.391206   0.000000
    6        8.962033   0.000000
    7        8.993487   0.000000
    8       12.723942   0.000000
 
 -0.3636364E+00  0.4545455E-01  0.0000000E+00  0.2253944E-02
    1       -7.757259   1.000000
    2       -2.272402   1.000000
    3        2.678933   1.000000
    4        3.060572   1.000000
    5        6.452014   0.000000
    6        8.902940   0.000000
    7        9.033535   0.000000
    8       12.484260   0.000000
 
 -0.3181818E+00  0.4545455E-01  0.0000000E+00  0.2253944E-02
    1       -8.089671   1.000000
    2       -1.577236   1.000000
    3        2.770736   1.000000
    4        3.220754   1.000000
    5        6.539733   0.000000
    6        8.813672   0.000000
    7        9.040107   0.000000
    8       12.078673   0.000000
 
 -0.2727273E+00  0.4545455E-01  0.0000000E+00  0.2253944E-02
    1       -8.418197   1.000000
    2       -0.778298   1.000000
    3        2.903782   1.000000
    4        3.410469   1.000000
    5        6.651751   0.000000
    6        8.673379   0.000000
    7        8.982939   0.000000
    8       11.536129   0.000000
 
 -0.2272727E+00  0.4545455E-01  0.0000000E+00  0.2253944E-02
    1       -8.719517   1.000000
    2        0.094051   1.000000
    3        3.075874   1.000000
    4        3.622503   1.000000
    5        6.783310   0.000000
    6        8.470561   0.000000
    7        8.835940   0.000000
    8       10.907020   0.000000
 
 -0.1818182E+00  0.4545455E-01  0.0000000E+00  0.2253944E-02
    1       -8.980464   1.000000
    2        1.014952   1.000000
    3        3.282963   1.000000
    4        3.845319   1.000000
    5        6.926050   0.000000
    6        8.214699   0.000000
    7        8.593792   0.000000
    8       10.221962   0.000000
 
 -0.1363636E+00  0.4545455E-01  0.0000000E+00  0.2253944E-02
    1       -9.193312   1.000000
    2        1.956068   1.000000
    3        3.518557   1.000000
    4        4.060250   1.000000
    5        7.064905   0.000000
    6        7.939677   0.000000
    7        8.281791   0.000000
    8        9.495680   0.000000
 
 -0.9090909E-01  0.4545455E-01  0.0000000E+00  0.2253944E-02
    1       -9.353511   1.000000
    2        2.869806   1.000000
    3        3.774731   1.000000
    4        4.238304   1.000000
    5        7.170695   0.000000
    6        7.697814   0.000000
    7        7.953324   0.000000
    8        8.754996   0.000000
 
 -0.4545455E-01  0.4545455E-01  0.0000000E+00  0.1126972E-02
    1       -9.458313   1.000000
    2        3.637551   1.000000
    3        4.057889   1.000000
    4        4.341312   1.000000
    5        7.182662   0.000000
    6        7.548762   0.000000
    7        7.695145   0.000000
    8        8.082103   0.000000
 
  0.9090909E-01  0.9090909E-01  0.0000000E+00  0.5634861E-03
    1       -9.381696   1.000000
    2        3.407126   1.000000
    3        3.819867   1.000000
    4        3.819867   1.000000
    5        7.066020   0.000000
    6        7.964677   0.000000
    7        8.205081   0.000000
    8        8.205081   0.000000
 
  0.1363636E+00  0.9090909E-01  0.0000000E+00  0.2253944E-02
    1       -9.277099   1.000000
    2        2.747550   1.000000
    3        3.578972   1.000000
    4        3.692646   1.000000
    5        7.033825   0.000000
    6        7.971379   0.000000
    7        8.539079   0.000000
    8        8.833393   0.000000
 
  0.1818182E+00  0.9090909E-01  0.0000000E+00  0.2253944E-02
    1       -9.117313   1.000000
    2        1.885288   1.000000
    3        3.340359   1.000000
    4        3.544387   1.000000
    5        7.115980   0.000000
    6        7.926730   0.000000
    7        8.876252   0.000000
    8        9.536330   0.000000
 
  0.2272727E+00  0.9090909E-01  0.0000000E+00  0.2253944E-02
    1       -8.905107   1.000000
    2        0.980930   1.000000
    3        3.122277   1.000000
    4        3.336396   1.000000
    5        7.175957   0.000000
    6        7.993570   0.000000
    7        9.172442   0.000000
    8       10.157298   0.000000
 
  0.2727273E+00  0.9090909E-01  0.0000000E+00  0.2253944E-02
    1       -8.645056   1.000000
    2        0.086533   1.000000
    3        2.936001   1.000000
    4        3.102054   1.000000
    5        7.136619   0.000000
    6        8.184833   0.000000
    7        9.392210   0.000000
    8       10.682844   0.000000
 
  0.3181818E+00  0.9090909E-01  0.0000000E+00  0.2253944E-02
    1       -8.344920   1.000000
    2       -0.766430   1.000000
    3        2.788359   1.000000
    4        2.867650   1.000000
    5        7.045388   0.000000
    6        8.398248   0.000000
    7        9.517938   0.000000
    8       11.156999   0.000000
 
  0.3636364E+00  0.9090909E-01  0.0000000E+00  0.2253944E-02
    1       -8.017915   1.000000
    2       -1.550910   1.000000
    3        2.649557   1.000000
    4        2.683273   1.000000
    5        6.947988   0.000000
    6        8.563588   0.000000
    7        9.555083   0.000000
    8       11.630186   0.000000
 
  0.4090909E+00  0.9090909E-01  0.0000000E+00  0.2253944E-02
    1       -7.687352   1.000000
    2       -2.235157   1.000000
    3        2.457865   1.000000
    4        2.622718   1.000000
    5        6.864635   0.000000
    6        8.673275   0.000000
    7        9.526051   0.000000
    8       12.099251   0.000000
 
  0.4545455E+00  0.9090909E-01  0.0000000E+00  0.2253944E-02
    1       -7.393738   1.000000
    2       -2.773288   1.000000
    3        2.299142   1.000000
    4        2.607275   1.000000
    5        6.804046   0.000000
    6        8.750054   0.000000
    7        9.457704   0.000000
    8       12.502302   0.000000
 
  0.5000000E+00  0.9090909E-01  0.0000000E+00  0.2253944E-02
    1       -7.199650   1.000000
    2       -3.099590   1.000000
    3        2.177988   1.000000
    4        2.636490   1.000000
    5        6.770137   0.000000
    6        8.818769   0.000000
    7        9.371713   0.000000
    8       12.765077   0.000000
 
 -0.4545455E+00  0.9090909E-01  0.0000000E+00  0.2253944E-02
    1       -7.169559   1.000000
    2       -3.148009   1.000000
    3        2.097804   1.000000
    4        2.708888   1.000000
    5        6.764336   0.000000
    6        8.894619   0.000000
    7        9.280410   0.000000
    8       12.850417   0.000000
 
 -0.4090909E+00  0.9090909E-01  0.0000000E+00  0.2253944E-02
    1       -7.315705   1.000000
    2       -2.906171   1.000000
    3        2.061292   1.000000
    4        2.822182   1.000000
    5        6.786764   0.000000
    6        8.981068   0.000000
    7        9.186117   0.000000
    8       12.748859   0.000000
 
 -0.3636364E+00  0.9090909E-01  0.0000000E+00  0.2253944E-02
    1       -7.584473   1.000000
    2       -2.428950   1.000000
    3        2.070538   1.000000
    4        2.973013   1.000000
    5        6.836434   0.000000
    6        9.069136   0.000000
    7        9.081273   0.000000
    8       12.458569   0.000000
 
 -0.3181818E+00  0.9090909E-01  0.0000000E+00  0.2253944E-02
    1       -7.908400   1.000000
    2       -1.786791   1.000000
    3        2.127253   1.000000
    4        3.156701   1.000000
    5        6.911349   0.000000
    6        8.950449   0.000000
    7        9.135590   0.000000
    8       12.014819   0.000000
 
 -0.2727273E+00  0.9090909E-01  0.0000000E+00  0.2253944E-02
    1       -8.239727   1.000000
    2       -1.032835   1.000000
    3        2.232937   1.000000
    4        3.366564   1.000000
    5        7.007790   0.000000
    6        8.776098   0.000000
    7        9.140937   0.000000
    8       11.492744   0.000000
 
 -0.2272727E+00  0.9090909E-01  0.0000000E+00  0.2253944E-02
    1       -8.550453   1.000000
    2       -0.204469   1.000000
    3        2.389458   1.000000
    4        3.592779   1.000000
    5        7.118956   0.000000
    6        8.549745   0.000000
    7        9.036280   0.000000
    8       10.961674   0.000000
 
 -0.1818182E+00  0.9090909E-01  0.0000000E+00  0.2253944E-02
    1       -8.824673   1.000000
    2        0.665081   1.000000
    3        2.600963   1.000000
    4        3.820311   1.000000
    5        7.231621   0.000000
    6        8.283949   0.000000
    7        8.795860   0.000000
    8       10.445204   0.000000
 
 -0.1363636E+00  0.9090909E-01  0.0000000E+00  0.2253944E-02
    1       -9.053193   1.000000
    2        1.530600   1.000000
    3        2.880185   1.000000
    4        4.026199   1.000000
    5        7.317121   0.000000
    6        8.016134   0.000000
    7        8.461678   0.000000
    8        9.912849   0.000000
 
 -0.9090909E-01  0.9090909E-01  0.0000000E+00  0.1126972E-02
    1       -9.230559   1.000000
    2        2.304883   1.000000
    3        3.264601   1.000000
    4        4.177777   1.000000
    5        7.312521   0.000000
    6        7.801558   0.000000
    7        8.148076   0.000000
    8        9.334722   0.000000
 
  0.1363636E+00  0.1363636E+00  0.0000000E+00  0.5634861E-03
    1       -9.191455   1.000000
    2        2.578652   1.000000
    3        3.328500   1.000000
    4        3.328500   1.000000
    5        6.803098   0.000000
    6        8.473833   0.000000
    7        8.901972   0.000000
    8        8.901972   0.000000
 
  0.1818182E+00  0.1363636E+00  0.0000000E+00  0.2253944E-02
    1       -9.050388   1.000000
    2        1.958189   1.000000
    3        3.083611   1.000000
    4        3.143820   1.000000
    5        6.759926   0.000000
    6        8.472755   0.000000
    7        9.271048   0.000000
    8        9.452086   0.000000
 
  0.2272727E+00  0.1363636E+00  0.0000000E+00  0.2253944E-02
    1       -8.856194   1.000000
    2        1.161437   1.000000
    3        2.861838   1.000000
    4        2.951571   1.000000
    5        6.875697   0.000000
    6        8.400602   0.000000
    7        9.602845   0.000000
    8        9.962669   0.000000
 
  0.2727273E+00  0.1363636E+00  0.0000000E+00  0.2253944E-02
    1       -8.612804   1.000000
    2        0.324036   1.000000
    3        2.674264   1.000000
    4        2.712484   1.000000
    5        7.036396   0.000000
    6        8.400371   0.000000
    7        9.859148   0.000000
    8       10.316241   0.000000
 
  0.3181818E+00  0.1363636E+00  0.0000000E+00  0.2253944E-02
    1       -8.326795   1.000000
    2       -0.501008   1.000000
    3        2.453660   1.000000
    4        2.527729   1.000000
    5        7.132824   0.000000
    6        8.506538   0.000000
    7       10.015959   0.000000
    8       10.591736   0.000000
 
  0.3636364E+00  0.1363636E+00  0.0000000E+00  0.2253944E-02
    1       -8.009265   1.000000
    2       -1.279017   1.000000
    3        2.199660   1.000000
    4        2.426292   1.000000
    5        7.145712   0.000000
    6        8.662792   0.000000
    7       10.071745   0.000000
    8       10.917153   0.000000
 
  0.4090909E+00  0.1363636E+00  0.0000000E+00  0.2253944E-02
    1       -7.679568   1.000000
    2       -1.976772   1.000000
    3        1.966377   1.000000
    4        2.372071   1.000000
    5        7.118996   0.000000
    6        8.789965   0.000000
    7       10.045434   0.000000
    8       11.359217   0.000000
 
  0.4545455E+00  0.1363636E+00  0.0000000E+00  0.2253944E-02
    1       -7.371509   1.000000
    2       -2.551929   1.000000
    3        1.763903   1.000000
    4        2.365721   1.000000
    5        7.090035   0.000000
    6        8.872649   0.000000
    7        9.964396   0.000000
    8       11.884643   0.000000
 
  0.5000000E+00  0.1363636E+00  0.0000000E+00  0.2253944E-02
    1       -7.140153   1.000000
    2       -2.944313   1.000000
    3        1.599093   1.000000
    4        2.406724   1.000000
    5        7.077408   0.000000
    6        8.935495   0.000000
    7        9.853030   0.000000
    8       12.387786   0.000000
 
 -0.4545455E+00  0.1363636E+00  0.0000000E+00  0.2253944E-02
    1       -7.052956   1.000000
    2       -3.083750   1.000000
    3        1.477037   1.000000
    4        2.493450   1.000000
    5        7.088413   0.000000
    6        9.002901   0.000000
    7        9.726906   0.000000
    8       12.716274   0.000000
 
 -0.4090909E+00  0.1363636E+00  0.0000000E+00  0.2253944E-02
    1       -7.143868   1.000000
    2       -2.935678   1.000000
    3        1.401853   1.000000
    4        2.623168   1.000000
    5        7.124457   0.000000
    6        9.087231   0.000000
    7        9.591242   0.000000
    8       12.728368   0.000000
 
 -0.3636364E+00  0.1363636E+00  0.0000000E+00  0.2253944E-02
    1       -7.377427   1.000000
    2       -2.536993   1.000000
    3        1.377318   1.000000
    4        2.791763   1.000000
    5        7.183611   0.000000
    6        9.187659   0.000000
    7        9.441175   0.000000
    8       12.418633   0.000000
 
 -0.3181818E+00  0.1363636E+00  0.0000000E+00  0.2253944E-02
    1       -7.686156   1.000000
    2       -1.959344   1.000000
    3        1.407514   1.000000
    4        2.993380   1.000000
    5        7.261629   0.000000
    6        9.264072   0.000000
    7        9.287407   0.000000
    8       11.915628   0.000000
 
 -0.2727273E+00  0.1363636E+00  0.0000000E+00  0.2253944E-02
    1       -8.015595   1.000000
    2       -1.265611   1.000000
    3        1.498147   1.000000
    4        3.219646   1.000000
    5        7.351356   0.000000
    6        9.045868   0.000000
    7        9.344532   0.000000
    8       11.363408   0.000000
 
 -0.2272727E+00  0.1363636E+00  0.0000000E+00  0.2253944E-02
    1       -8.332416   1.000000
    2       -0.505845   1.000000
    3        1.659671   1.000000
    4        3.458339   1.000000
    5        7.440060   0.000000
    6        8.782786   0.000000
    7        9.282707   0.000000
    8       10.884575   0.000000
 
 -0.1818182E+00  0.1363636E+00  0.0000000E+00  0.2253944E-02
    1       -8.617528   1.000000
    2        0.266174   1.000000
    3        1.915090   1.000000
    4        3.691274   1.000000
    5        7.501851   0.000000
    6        8.492851   0.000000
    7        9.043560   0.000000
    8       10.544792   0.000000
 
 -0.1363636E+00  0.1363636E+00  0.0000000E+00  0.1126972E-02
    1       -8.859961   1.000000
    2        0.971633   1.000000
    3        2.311095   1.000000
    4        3.892066   1.000000
    5        7.482902   0.000000
    6        8.218328   0.000000
    7        8.715789   0.000000
    8       10.262311   0.000000
 
  0.1818182E+00  0.1818182E+00  0.0000000E+00  0.5634861E-03
    1       -8.928067   1.000000
    2        1.700685   1.000000
    3        2.832670   1.000000
    4        2.832670   1.000000
    5        6.510792   0.000000
    6        8.735545   0.000000
    7        9.679197   0.000000
    8        9.679197   0.000000
 
  0.2272727E+00  0.1818182E+00  0.0000000E+00  0.2253944E-02
    1       -8.752296   1.000000
    2        1.130218   1.000000
    3        2.605213   1.000000
    4        2.610986   1.000000
    5        6.475467   0.000000
    6        8.683118   0.000000
    7       10.057397   0.000000
    8       10.083263   0.000000
 
  0.2727273E+00  0.1818182E+00  0.0000000E+00  0.2253944E-02
    1       -8.526482   1.000000
    2        0.422267   1.000000
    3        2.361907   1.000000
    4        2.412708   1.000000
    5        6.611850   0.000000
    6        8.619108   0.000000
    7       10.333396   0.000000
    8       10.364746   0.000000
 
  0.3181818E+00  0.1818182E+00  0.0000000E+00  0.2253944E-02
    1       -8.256244   1.000000
    2       -0.324386   1.000000
    3        2.074891   1.000000
    4        2.262365   1.000000
    5        6.803186   0.000000
    6        8.665761   0.000000
    7       10.431849   0.000000
    8       10.570483   0.000000
 
  0.3636364E+00  0.1818182E+00  0.0000000E+00  0.2253944E-02
    1       -7.951050   1.000000
    2       -1.058082   1.000000
    3        1.778419   1.000000
    4        2.158588   1.000000
    5        6.942037   0.000000
    6        8.858877   0.000000
    7       10.507357   0.000000
    8       10.664298   0.000000
 
  0.4090909E+00  0.1818182E+00  0.0000000E+00  0.2253944E-02
    1       -7.627125   1.000000
    2       -1.739118   1.000000
    3        1.496491   1.000000
    4        2.103792   1.000000
    5        7.006605   0.000000
    6        9.112776   0.000000
    7       10.659077   0.000000
    8       10.702049   0.000000
 
  0.4545455E+00  0.1818182E+00  0.0000000E+00  0.2253944E-02
    1       -7.312713   1.000000
    2       -2.324942   1.000000
    3        1.244393   1.000000
    4        2.098857   1.000000
    5        7.036042   0.000000
    6        9.293689   0.000000
    7       10.581076   0.000000
    8       11.111556   0.000000
 
  0.5000000E+00  0.1818182E+00  0.0000000E+00  0.2253944E-02
    1       -7.055080   1.000000
    2       -2.759517   1.000000
    3        1.031967   1.000000
    4        2.143434   1.000000
    5        7.066864   0.000000
    6        9.382618   0.000000
    7       10.456865   0.000000
    8       11.686319   0.000000
 
 -0.4545455E+00  0.1818182E+00  0.0000000E+00  0.2253944E-02
    1       -6.919063   1.000000
    2       -2.973211   1.000000
    3        0.866206   1.000000
    4        2.235951   1.000000
    5        7.117228   0.000000
    6        9.434526   0.000000
    7       10.304938   0.000000
    8       12.261125   0.000000
 
 -0.4090909E+00  0.1818182E+00  0.0000000E+00  0.2253944E-02
    1       -6.953589   1.000000
    2       -2.915592   1.000000
    3        0.752985   1.000000
    4        2.373590   1.000000
    5        7.192427   0.000000
    6        9.489300   0.000000
    7       10.132977   0.000000
    8       12.565485   0.000000
 
 -0.3636364E+00  0.1818182E+00  0.0000000E+00  0.2253944E-02
    1       -7.144707   1.000000
    2       -2.602718   1.000000
    3        0.698404   1.000000
    4        2.551913   1.000000
    5        7.289774   0.000000
    6        9.563490   0.000000
    7        9.938027   0.000000
    8       12.361214   0.000000
 
 -0.3181818E+00  0.1818182E+00  0.0000000E+00  0.2253944E-02
    1       -7.430758   1.000000
    2       -2.103256   1.000000
    3        0.710717   1.000000
    4        2.764482   1.000000
    5        7.400858   0.000000
    6        9.655213   0.000000
    7        9.709443   0.000000
    8       11.825830   0.000000
 
 -0.2727273E+00  0.1818182E+00  0.0000000E+00  0.2253944E-02
    1       -7.752485   1.000000
    2       -1.492373   1.000000
    3        0.804045   1.000000
    4        3.001854   1.000000
    5        7.511291   0.000000
    6        9.436680   0.000000
    7        9.733193   0.000000
    8       11.219227   0.000000
 
 -0.2272727E+00  0.1818182E+00  0.0000000E+00  0.2253944E-02
    1       -8.071006   1.000000
    2       -0.841874   1.000000
    3        1.006064   1.000000
    4        3.250273   1.000000
    5        7.597233   0.000000
    6        9.122182   0.000000
    7        9.689701   0.000000
    8       10.747009   0.000000
 
 -0.1818182E+00  0.1818182E+00  0.0000000E+00  0.1126972E-02
    1       -8.363735   1.000000
    2       -0.233113   1.000000
    3        1.364831   1.000000
    4        3.489546   1.000000
    5        7.615996   0.000000
    6        8.791625   0.000000
    7        9.398476   0.000000
    8       10.576579   0.000000
 
  0.2272727E+00  0.2272727E+00  0.0000000E+00  0.5634861E-03
    1       -8.595058   1.000000
    2        0.809722   1.000000
    3        2.370915   1.000000
    4        2.370915   1.000000
    5        6.235690   0.000000
    6        8.605797   0.000000
    7       10.492366   0.000000
    8       10.492366   0.000000
 
  0.2727273E+00  0.2272727E+00  0.0000000E+00  0.2253944E-02
    1       -8.387419   1.000000
    2        0.285343   1.000000
    3        2.132878   1.000000
    4        2.171137   1.000000
    5        6.220637   0.000000
    6        8.448769   0.000000
    7       10.808456   0.000000
    8       10.864642   0.000000
 
  0.3181818E+00  0.2272727E+00  0.0000000E+00  0.2253944E-02
    1       -8.134297   1.000000
    2       -0.329930   1.000000
    3        1.832091   1.000000
    4        2.013671   1.000000
    5        6.378051   0.000000
    6        8.378073   0.000000
    7       10.914041   0.000000
    8       11.136826   0.000000
 
  0.3636364E+00  0.2272727E+00  0.0000000E+00  0.2253944E-02
    1       -7.843922   1.000000
    2       -0.970232   1.000000
    3        1.490614   1.000000
    4        1.903392   1.000000
    5        6.579710   0.000000
    6        8.493134   0.000000
    7       10.896090   0.000000
    8       11.288511   0.000000
 
  0.4090909E+00  0.2272727E+00  0.0000000E+00  0.2253944E-02
    1       -7.530150   1.000000
    2       -1.590871   1.000000
    3        1.147872   1.000000
    4        1.843084   1.000000
    5        6.721518   0.000000
    6        8.835520   0.000000
    7       10.855562   0.000000
    8       11.323557   0.000000
 
  0.4545455E+00  0.2272727E+00  0.0000000E+00  0.2253944E-02
    1       -7.216857   1.000000
    2       -2.148549   1.000000
    3        0.831812   1.000000
    4        1.833995   1.000000
    5        6.800823   0.000000
    6        9.323306   0.000000
    7       10.881103   0.000000
    8       11.264797   0.000000
 
  0.5000000E+00  0.2272727E+00  0.0000000E+00  0.2253944E-02
    1       -6.944291   1.000000
    2       -2.590289   1.000000
    3        0.559115   1.000000
    4        1.875976   1.000000
    5        6.863131   0.000000
    6        9.762486   0.000000
    7       11.103397   0.000000
    8       11.139732   0.000000
 