 running on   48 total cores
 distrk:  each k-point on   12 cores,    4 groups
 distr:  one band on   12 cores,    1 groups
 using from now: INCAR     
 vasp.5.4.4.18Apr17-6-g9f103f2a35 (build Nov 04 2020 14:40:39) complex          
  
 POSCAR found type information on POSCAR  B  As
 POSCAR found :  2 types and       2 ions
 scaLAPACK will be used

 ----------------------------------------------------------------------------- 
|                                                                             |
|           W    W    AA    RRRRR   N    N  II  N    N   GGGG   !!!           |
|           W    W   A  A   R    R  NN   N  II  NN   N  G    G  !!!           |
|           W    W  A    A  R    R  N N  N  II  N N  N  G       !!!           |
|           W WW W  AAAAAA  RRRRR   N  N N  II  N  N N  G  GGG   !            |
|           WW  WW  A    A  R   R   N   NN  II  N   NN  G    G                |
|           W    W  A    A  R    R  N    N  II  N    N   GGGG   !!!           |
|                                                                             |
|      You have enabled k-point parallelism (KPAR>1).                         |
|      This developmental code was originally  written by Paul Kent at ORNL,  |
|      and carefully double checked in Vienna.                                |
|      GW as well as linear response parallelism added by Martijn Marsman     |
|      and Georg Kresse.                                                      |
|      Carefully verify results versus KPAR=1.                                |
|      Report problems to Paul Kent and Vienna.                               |
|                                                                             |
 ----------------------------------------------------------------------------- 

 LDA part: xc-table for Pade appr. of Perdew
 POSCAR found type information on POSCAR  B  As
 POSCAR found :  2 types and       2 ions
 generate k-points for:   22   22   22
 POSCAR, INCAR and KPOINTS ok, starting setup
 FFT: planning ...
 WAVECAR not read
 entering main loop
       N       E                     dE             d eps       ncg     rms          rms(c)
DAV:   1     0.935830424228E+01    0.93583E+01   -0.37098E+03  5248   0.847E+02
DAV:   2    -0.112200322976E+02   -0.20578E+02   -0.20042E+02  8416   0.984E+01
DAV:   3    -0.115239024146E+02   -0.30387E+00   -0.30387E+00  6200   0.141E+01
DAV:   4    -0.115243144053E+02   -0.41199E-03   -0.41199E-03  7728   0.574E-01
DAV:   5    -0.115243146318E+02   -0.22650E-06   -0.22650E-06  6096   0.924E-03    0.320E+00
RMM:   6    -0.111838858591E+02    0.34043E+00   -0.38918E-01  5303   0.383E+00    0.145E+00
RMM:   7    -0.111547317824E+02    0.29154E-01   -0.49929E-02  5621   0.144E+00    0.703E-01
RMM:   8    -0.111506373826E+02    0.40944E-02   -0.17287E-02  5533   0.102E+00    0.801E-02
RMM:   9    -0.111511167069E+02   -0.47932E-03   -0.15440E-03  5788   0.269E-01    0.611E-02
RMM:  10    -0.111509459057E+02    0.17080E-03   -0.12959E-04  5739   0.791E-02    0.177E-02
RMM:  11    -0.111509481758E+02   -0.22701E-05   -0.93681E-05  5667   0.579E-02    0.121E-02
RMM:  12    -0.111509394210E+02    0.87547E-05   -0.89347E-06  5659   0.201E-02    0.906E-04
RMM:  13    -0.111509394453E+02   -0.24226E-07   -0.23800E-07  3896   0.360E-03
   1 F= -.11150939E+02 E0= -.11150939E+02  d E =0.000000E+00
