   3   3   0   0
  0.1926324E+02  0.4339655E-09  0.4339655E-09  0.4339655E-09  0.5000000E-15
  1.000000000000000E-004
  CAR
 unknown system
     15.19488363    -23.44062264  301     10.47637856      1.00000000
    -23.441  0.0000E+00  0.0000E+00
    -23.312  0.0000E+00  0.0000E+00
    -23.183  0.0000E+00  0.0000E+00
    -23.054  0.0000E+00  0.0000E+00
    -22.925  0.0000E+00  0.0000E+00
    -22.797  0.0000E+00  0.0000E+00
    -22.668  0.0000E+00  0.0000E+00
    -22.539  0.0000E+00  0.0000E+00
    -22.410  0.0000E+00  0.0000E+00
    -22.282  0.0000E+00  0.0000E+00
    -22.153  0.0000E+00  0.0000E+00
    -22.024  0.0000E+00  0.0000E+00
    -21.895  0.0000E+00  0.0000E+00
    -21.766  0.0000E+00  0.0000E+00
    -21.638  0.4607E+02  0.5933E+01
    -21.509  0.0000E+00  0.6000E+01
    -21.380  0.0000E+00  0.6000E+01
    -21.251  0.0000E+00  0.6000E+01
    -21.122  0.0000E+00  0.6000E+01
    -20.994  0.0000E+00  0.6000E+01
    -20.865  0.0000E+00  0.6000E+01
    -20.736  0.0000E+00  0.6000E+01
    -20.607  0.0000E+00  0.6000E+01
    -20.479  0.0000E+00  0.6000E+01
    -20.350  0.0000E+00  0.6000E+01
    -20.221  0.0000E+00  0.6000E+01
    -20.092  0.0000E+00  0.6000E+01
    -19.963  0.0000E+00  0.6000E+01
    -19.835  0.0000E+00  0.6000E+01
    -19.706  0.0000E+00  0.6000E+01
    -19.577  0.0000E+00  0.6000E+01
    -19.448  0.0000E+00  0.6000E+01
    -19.320  0.0000E+00  0.6000E+01
    -19.191  0.0000E+00  0.6000E+01
    -19.062  0.0000E+00  0.6000E+01
    -18.933  0.0000E+00  0.6000E+01
    -18.804  0.0000E+00  0.6000E+01
    -18.676  0.0000E+00  0.6000E+01
    -18.547  0.0000E+00  0.6000E+01
    -18.418  0.0000E+00  0.6000E+01
    -18.289  0.0000E+00  0.6000E+01
    -18.160  0.0000E+00  0.6000E+01
    -18.032  0.0000E+00  0.6000E+01
    -17.903  0.0000E+00  0.6000E+01
    -17.774  0.0000E+00  0.6000E+01
    -17.645  0.0000E+00  0.6000E+01
    -17.517  0.0000E+00  0.6000E+01
    -17.388  0.0000E+00  0.6000E+01
    -17.259  0.0000E+00  0.6000E+01
    -17.130  0.0000E+00  0.6000E+01
    -17.001  0.0000E+00  0.6000E+01
    -16.873  0.0000E+00  0.6000E+01
    -16.744  0.0000E+00  0.6000E+01
    -16.615  0.0000E+00  0.6000E+01
    -16.486  0.0000E+00  0.6000E+01
    -16.357  0.0000E+00  0.6000E+01
    -16.229  0.0000E+00  0.6000E+01
    -16.100  0.0000E+00  0.6000E+01
    -15.971  0.0000E+00  0.6000E+01
    -15.842  0.0000E+00  0.6000E+01
    -15.714  0.0000E+00  0.6000E+01
    -15.585  0.0000E+00  0.6000E+01
    -15.456  0.0000E+00  0.6000E+01
    -15.327  0.0000E+00  0.6000E+01
    -15.198  0.0000E+00  0.6000E+01
    -15.070  0.0000E+00  0.6000E+01
    -14.941  0.0000E+00  0.6000E+01
    -14.812  0.0000E+00  0.6000E+01
    -14.683  0.0000E+00  0.6000E+01
    -14.554  0.0000E+00  0.6000E+01
    -14.426  0.0000E+00  0.6000E+01
    -14.297  0.0000E+00  0.6000E+01
    -14.168  0.0000E+00  0.6000E+01
    -14.039  0.0000E+00  0.6000E+01
    -13.911  0.0000E+00  0.6000E+01
    -13.782  0.0000E+00  0.6000E+01
    -13.653  0.0000E+00  0.6000E+01
    -13.524  0.0000E+00  0.6000E+01
    -13.395  0.0000E+00  0.6000E+01
    -13.267  0.0000E+00  0.6000E+01
    -13.138  0.0000E+00  0.6000E+01
    -13.009  0.0000E+00  0.6000E+01
    -12.880  0.0000E+00  0.6000E+01
    -12.751  0.0000E+00  0.6000E+01
    -12.623  0.0000E+00  0.6000E+01
    -12.494  0.0000E+00  0.6000E+01
    -12.365  0.0000E+00  0.6000E+01
    -12.236  0.0000E+00  0.6000E+01
    -12.108  0.0000E+00  0.6000E+01
    -11.979  0.0000E+00  0.6000E+01
    -11.850  0.0000E+00  0.6000E+01
    -11.721  0.0000E+00  0.6000E+01
    -11.592  0.0000E+00  0.6000E+01
    -11.464  0.0000E+00  0.6000E+01
    -11.335  0.0000E+00  0.6000E+01
    -11.206  0.0000E+00  0.6000E+01
    -11.077  0.0000E+00  0.6000E+01
    -10.948  0.0000E+00  0.6000E+01
    -10.820  0.0000E+00  0.6000E+01
    -10.691  0.0000E+00  0.6000E+01
    -10.562  0.0000E+00  0.6000E+01
    -10.433  0.0000E+00  0.6000E+01
    -10.305  0.0000E+00  0.6000E+01
    -10.176  0.0000E+00  0.6000E+01
    -10.047  0.0000E+00  0.6000E+01
     -9.918  0.0000E+00  0.6000E+01
     -9.789  0.0000E+00  0.6000E+01
     -9.661  0.0000E+00  0.6000E+01
     -9.532  0.0000E+00  0.6000E+01
     -9.403  0.0000E+00  0.6000E+01
     -9.274  0.0000E+00  0.6000E+01
     -9.145  0.0000E+00  0.6000E+01
     -9.017  0.0000E+00  0.6000E+01
     -8.888  0.0000E+00  0.6000E+01
     -8.759  0.0000E+00  0.6000E+01
     -8.630  0.0000E+00  0.6000E+01
     -8.502  0.0000E+00  0.6000E+01
     -8.373  0.0000E+00  0.6000E+01
     -8.244  0.0000E+00  0.6000E+01
     -8.115  0.0000E+00  0.6000E+01
     -7.986  0.0000E+00  0.6000E+01
     -7.858  0.0000E+00  0.6000E+01
     -7.729  0.0000E+00  0.6000E+01
     -7.600  0.0000E+00  0.6000E+01
     -7.471  0.0000E+00  0.6000E+01
     -7.342  0.0000E+00  0.6000E+01
     -7.214  0.0000E+00  0.6000E+01
     -7.085  0.0000E+00  0.6000E+01
     -6.956  0.0000E+00  0.6000E+01
     -6.827  0.0000E+00  0.6000E+01
     -6.699  0.0000E+00  0.6000E+01
     -6.570  0.0000E+00  0.6000E+01
     -6.441  0.0000E+00  0.6000E+01
     -6.312  0.0000E+00  0.6000E+01
     -6.183  0.0000E+00  0.6000E+01
     -6.055  0.0000E+00  0.6000E+01
     -5.926  0.0000E+00  0.6000E+01
     -5.797  0.0000E+00  0.6000E+01
     -5.668  0.0000E+00  0.6000E+01
     -5.540  0.0000E+00  0.6000E+01
     -5.411  0.0000E+00  0.6000E+01
     -5.282  0.0000E+00  0.6000E+01
     -5.153  0.0000E+00  0.6000E+01
     -5.024  0.0000E+00  0.6000E+01
     -4.896  0.0000E+00  0.6000E+01
     -4.767  0.0000E+00  0.6000E+01
     -4.638  0.0000E+00  0.6000E+01
     -4.509  0.0000E+00  0.6000E+01
     -4.380  0.0000E+00  0.6000E+01
     -4.252  0.0000E+00  0.6000E+01
     -4.123  0.0000E+00  0.6000E+01
     -3.994  0.0000E+00  0.6000E+01
     -3.865  0.0000E+00  0.6000E+01
     -3.737  0.0000E+00  0.6000E+01
     -3.608  0.0000E+00  0.6000E+01
     -3.479  0.0000E+00  0.6000E+01
     -3.350  0.4143E-12  0.6000E+01
     -3.221  0.4889E-01  0.6007E+01
     -3.093  0.8234E-01  0.6024E+01
     -2.964  0.2262E+00  0.6054E+01
     -2.835  0.1905E+00  0.6084E+01
     -2.706  0.1697E+00  0.6125E+01
     -2.577  0.1598E-01  0.6156E+01
     -2.449  0.5514E+00  0.6236E+01
     -2.320  0.3393E+00  0.6301E+01
     -2.191  0.5639E+00  0.6374E+01
     -2.062  0.8646E+00  0.6485E+01
     -1.934  0.6647E+00  0.6574E+01
     -1.805  0.9306E+00  0.6707E+01
     -1.676  0.5522E+00  0.6906E+01
     -1.547  0.2786E+01  0.7374E+01
     -1.418  0.2799E+01  0.8000E+01
     -1.290  0.0000E+00  0.8000E+01
     -1.161  0.0000E+00  0.8000E+01
     -1.032  0.0000E+00  0.8000E+01
     -0.903  0.0000E+00  0.8000E+01
     -0.774  0.0000E+00  0.8000E+01
     -0.646  0.0000E+00  0.8000E+01
     -0.517  0.0000E+00  0.8000E+01
     -0.388  0.0000E+00  0.8000E+01
     -0.259  0.0000E+00  0.8000E+01
     -0.131  0.0000E+00  0.8000E+01
     -0.002  0.0000E+00  0.8000E+01
      0.127  0.0000E+00  0.8000E+01
      0.256  0.0000E+00  0.8000E+01
      0.385  0.0000E+00  0.8000E+01
      0.513  0.0000E+00  0.8000E+01
      0.642  0.0000E+00  0.8000E+01
      0.771  0.0000E+00  0.8000E+01
      0.900  0.0000E+00  0.8000E+01
      1.029  0.0000E+00  0.8000E+01
      1.157  0.0000E+00  0.8000E+01
      1.286  0.0000E+00  0.8000E+01
      1.415  0.0000E+00  0.8000E+01
      1.544  0.0000E+00  0.8000E+01
      1.672  0.0000E+00  0.8000E+01
      1.801  0.0000E+00  0.8000E+01
      1.930  0.0000E+00  0.8000E+01
      2.059  0.2262E+00  0.8029E+01
      2.188  0.9684E+00  0.8176E+01
      2.316  0.2951E+01  0.8682E+01
      2.445  0.1482E+01  0.9047E+01
      2.574  0.1632E+01  0.9415E+01
      2.703  0.1935E+01  0.9717E+01
      2.832  0.6015E+00  0.9825E+01
      2.960  0.5514E+00  0.9917E+01
      3.089  0.5655E-01  0.9924E+01
      3.218  0.7176E+00  0.1010E+02
      3.347  0.3993E+01  0.1078E+02
      3.475  0.2865E+01  0.1147E+02
      3.604  0.2369E+01  0.1201E+02
      3.733  0.2912E+01  0.1267E+02
      3.862  0.2758E+01  0.1320E+02
      3.991  0.1759E+01  0.1359E+02
      4.119  0.1145E+01  0.1386E+02
      4.248  0.5087E+00  0.1401E+02
      4.377  0.1094E+00  0.1403E+02
      4.506  0.1600E+01  0.1424E+02
      4.635  0.3176E+01  0.1487E+02
      4.763  0.6542E+01  0.1615E+02
      4.892  0.4140E+01  0.1697E+02
      5.021  0.2530E+01  0.1790E+02
      5.150  0.1921E+01  0.1823E+02
      5.278  0.1988E+01  0.1879E+02
      5.407  0.1188E+01  0.1907E+02
      5.536  0.1227E+01  0.1936E+02
      5.665  0.1100E+01  0.1957E+02
      5.794  0.6786E+00  0.1967E+02
      5.922  0.5539E+00  0.1981E+02
      6.051  0.3930E+00  0.1994E+02
      6.180  0.7605E+00  0.2009E+02
      6.309  0.1527E+01  0.2030E+02
      6.438  0.7593E+00  0.2048E+02
      6.566  0.4220E+00  0.2060E+02
      6.695  0.1036E+01  0.2076E+02
      6.824  0.9539E+00  0.2099E+02
      6.953  0.8481E+00  0.2114E+02
      7.081  0.8390E+00  0.2137E+02
      7.210  0.1404E+01  0.2166E+02
      7.339  0.4614E+01  0.2236E+02
      7.468  0.1077E+01  0.2264E+02
      7.597  0.2079E+01  0.2304E+02
      7.725  0.1883E+01  0.2335E+02
      7.854  0.1307E+01  0.2364E+02
      7.983  0.7616E+00  0.2376E+02
      8.112  0.5085E+00  0.2387E+02
      8.240  0.1947E+00  0.2393E+02
      8.369  0.2115E-08  0.2397E+02
      8.498  0.2120E-01  0.2400E+02
      8.627  0.0000E+00  0.2400E+02
      8.756  0.0000E+00  0.2400E+02
      8.884  0.0000E+00  0.2400E+02
      9.013  0.0000E+00  0.2400E+02
      9.142  0.0000E+00  0.2400E+02
      9.271  0.0000E+00  0.2400E+02
      9.400  0.0000E+00  0.2400E+02
      9.528  0.0000E+00  0.2400E+02
      9.657  0.1589E-01  0.2400E+02
      9.786  0.3739E+00  0.2406E+02
      9.915  0.5032E+00  0.2416E+02
     10.043  0.6154E+00  0.2426E+02
     10.172  0.1073E+01  0.2444E+02
     10.301  0.7922E+00  0.2462E+02
     10.430  0.1485E+01  0.2491E+02
     10.559  0.1839E+01  0.2522E+02
     10.687  0.3101E+01  0.2578E+02
     10.816  0.1481E+01  0.2617E+02
     10.945  0.1415E+01  0.2640E+02
     11.074  0.2319E+01  0.2687E+02
     11.203  0.3393E+01  0.2740E+02
     11.331  0.2655E+01  0.2811E+02
     11.460  0.2007E+01  0.2849E+02
     11.589  0.2079E+01  0.2884E+02
     11.718  0.2949E+01  0.2942E+02
     11.846  0.1659E+01  0.2971E+02
     11.975  0.5821E+00  0.2985E+02
     12.104  0.1979E+01  0.3023E+02
     12.233  0.7210E+00  0.3042E+02
     12.362  0.1548E+01  0.3064E+02
     12.490  0.1953E+01  0.3110E+02
     12.619  0.1343E+01  0.3146E+02
     12.748  0.1568E+01  0.3178E+02
     12.877  0.6787E+00  0.3187E+02
     13.006  0.7775E+00  0.3197E+02
     13.134  0.0000E+00  0.3199E+02
     13.263  0.0000E+00  0.3199E+02
     13.392  0.9959E-12  0.3199E+02
     13.521  0.0000E+00  0.3200E+02
     13.649  0.0000E+00  0.3200E+02
     13.778  0.0000E+00  0.3200E+02
     13.907  0.0000E+00  0.3200E+02
     14.036  0.0000E+00  0.3200E+02
     14.165  0.0000E+00  0.3200E+02
     14.293  0.0000E+00  0.3200E+02
     14.422  0.0000E+00  0.3200E+02
     14.551  0.0000E+00  0.3200E+02
     14.680  0.0000E+00  0.3200E+02
     14.809  0.0000E+00  0.3200E+02
     14.937  0.0000E+00  0.3200E+02
     15.066  0.0000E+00  0.3200E+02
     15.195  0.0000E+00  0.3200E+02
