    3    3    1    1
  0.1926324E+02  0.4339655E-09  0.4339655E-09  0.4339655E-09  0.5000000E-15
  1.000000000000000E-004
  CAR
 unknown system
     25     84     16

  0.0000000E+00  0.0000000E+00  0.0000000E+00  0.4551661E-03
    1      -21.652288   1.000000
    2      -21.652288   1.000000
    3      -21.652288   1.000000
    4       -3.304601   1.000000
    5        3.651023   1.000000
    6        3.651023   1.000000
    7        3.651023   1.000000
    8        4.455125   1.000000
    9        4.455125   1.000000
   10        8.473494   1.000000
   11        8.473494   1.000000
   12        8.473494   1.000000
   13       10.118614   1.000000
   14       11.418903   0.000000
   15       11.418903   0.000000
   16       11.418903   0.000000

  0.7692308E-01  0.3033048E-18 -0.8803093E-19  0.3641329E-02
    1      -21.654129   1.000000
    2      -21.652141   1.000000
    3      -21.652141   1.000000
    4       -3.228978   1.000000
    5        3.575976   1.000000
    6        3.607248   1.000000
    7        3.607248   1.000000
    8        4.512845   1.000000
    9        4.512845   1.000000
   10        7.971613   1.000000
   11        8.408188   1.000000
   12        8.408188   1.000000
   13       10.186874   1.000000
   14       11.240489   0.000000
   15       11.240489   0.000000
   16       11.920936   0.000000

  0.1538462E+00 -0.1320463E-16  0.2988840E-17  0.3641329E-02
    1      -21.659171   1.000000
    2      -21.651700   1.000000
    3      -21.651700   1.000000
    4       -3.009907   1.000000
    5        3.365572   1.000000
    6        3.518642   1.000000
    7        3.518642   1.000000
    8        4.633900   1.000000
    9        4.633900   1.000000
   10        7.047778   1.000000
   11        8.245923   1.000000
   12        8.245923   1.000000
   13       10.285752   1.000000
   14       11.118946   0.000000
   15       11.118946   0.000000
   16       12.717146   0.000000

  0.2307692E+00  0.6299629E-17 -0.5653808E-17  0.3641329E-02
    1      -21.666181   1.000000
    2      -21.651080   1.000000
    3      -21.651080   1.000000
    4       -2.672190   1.000000
    5        3.050963   1.000000
    6        3.442013   1.000000
    7        3.442013   1.000000
    8        4.738169   1.000000
    9        4.738169   1.000000
   10        6.170702   1.000000
   11        8.061865   1.000000
   12        8.061865   1.000000
   13       10.383799   1.000000
   14       11.135778   0.000000
   15       11.135778   0.000000
   16       13.438724   0.000000

  0.3076923E+00 -0.2640927E-16  0.5977679E-17  0.3641329E-02
    1      -21.673488   1.000000
    2      -21.650425   1.000000
    3      -21.650425   1.000000
    4       -2.262727   1.000000
    5        2.667826   1.000000
    6        3.400483   1.000000
    7        3.400483   1.000000
    8        4.781561   1.000000
    9        4.781561   1.000000
   10        5.490797   1.000000
   11        7.921165   1.000000
   12        7.921165   1.000000
   13       10.479055   0.352525
   14       11.261220   0.000000
   15       11.261220   0.000000
   16       12.948039   0.000000

  0.3846154E+00  0.5098926E-18  0.5664767E-18  0.3641329E-02
    1      -21.679449   1.000000
    2      -21.649883   1.000000
    3      -21.649883   1.000000
    4       -1.861948   1.000000
    5        2.281357   1.000000
    6        3.391337   1.000000
    7        3.391337   1.000000
    8        4.768363   1.000000
    9        4.768363   1.000000
   10        5.054356   1.000000
   11        7.845282   1.000000
   12        7.845282   1.000000
   13       10.574954   0.000000
   14       11.444022   0.000000
   15       11.444022   0.000000
   16       12.126609   0.000000

  0.4615385E+00 -0.1185833E-16  0.1314997E-16  0.3641329E-02
    1      -21.682789   1.000000
    2      -21.649593   1.000000
    3      -21.649593   1.000000
    4       -1.596339   1.000000
    5        2.018895   1.000000
    6        3.396146   1.000000
    7        3.396146   1.000000
    8        4.741093   1.000000
    9        4.741093   1.000000
   10        4.849019   1.000000
   11        7.817870   1.000000
   12        7.817870   1.000000
   13       10.661652   0.000000
   14       11.591369   0.000000
   15       11.591369   0.000000
   16       11.636056   0.000000

  0.7692308E-01  0.7692308E-01 -0.1478352E-17  0.2730997E-02
    1      -21.654084   1.000000
    2      -21.652426   1.000000
    3      -21.652426   1.000000
    4       -3.204191   1.000000
    5        3.396588   1.000000
    6        3.685267   1.000000
    7        3.685267   1.000000
    8        4.492822   1.000000
    9        4.544544   1.000000
   10        8.046938   1.000000
   11        8.267123   1.000000
   12        8.267123   1.000000
   13       10.178678   1.000000
   14       11.185241   0.000000
   15       11.676079   0.000000
   16       11.730486   0.000000

  0.1538462E+00  0.7692308E-01  0.3507418E-17  0.1092399E-01
    1      -21.657814   1.000000
    2      -21.652371   1.000000
    3      -21.652048   1.000000
    4       -3.034289   1.000000
    5        3.169172   1.000000
    6        3.654787   1.000000
    7        3.677493   1.000000
    8        4.575786   1.000000
    9        4.626996   1.000000
   10        7.332640   1.000000
   11        8.069531   1.000000
   12        8.168571   1.000000
   13       10.303046   1.000000
   14       11.018282   0.000000
   15       11.407197   0.000000
   16       12.310874   0.000000

  0.2307692E+00  0.7692308E-01  0.3419387E-17  0.1092399E-01
    1      -21.664043   1.000000
    2      -21.652004   1.000000
    3      -21.651453   1.000000
    4       -2.738544   1.000000
    5        2.930158   1.000000
    6        3.536338   1.000000
    7        3.625253   1.000000
    8        4.687534   1.000000
    9        4.725214   1.000000
   10        6.466323   1.000000
   11        7.891273   1.000000
   12        8.005712   1.000000
   13       10.521356   0.000000
   14       10.973693   0.000000
   15       11.259091   0.000000
   16       12.954379   0.000000

  0.3076923E+00  0.7692308E-01  0.5356540E-17  0.1092399E-01
    1      -21.671083   1.000000
    2      -21.651413   1.000000
    3      -21.650978   1.000000
    4       -2.356425   1.000000
    5        2.661969   1.000000
    6        3.413784   1.000000
    7        3.571508   1.000000
    8        4.753407   1.000000
    9        4.790695   1.000000
   10        5.727272   1.000000
   11        7.779725   1.000000
   12        7.836619   1.000000
   13       10.551140   0.000000
   14       11.245517   0.000000
   15       11.251031   0.000000
   16       13.044775   0.000000

  0.3846154E+00  0.7692308E-01  0.6408227E-17  0.1092399E-01
    1      -21.677300   1.000000
    2      -21.650719   1.000000
    3      -21.650713   1.000000
    4       -1.955808   1.000000
    5        2.362100   1.000000
    6        3.348280   1.000000
    7        3.524564   1.000000
    8        4.762113   1.000000
    9        4.799541   1.000000
   10        5.208689   1.000000
   11        7.717515   1.000000
   12        7.738057   1.000000
   13       10.557411   0.000000
   14       11.367990   0.000000
   15       11.544868   0.000000
   16       12.326592   0.000000

  0.4615385E+00  0.7692308E-01 -0.2300964E-17  0.1092399E-01
    1      -21.681352   1.000000
    2      -21.650744   1.000000
    3      -21.650080   1.000000
    4       -1.644330   1.000000
    5        2.106888   1.000000
    6        3.349963   1.000000
    7        3.472177   1.000000
    8        4.755368   1.000000
    9        4.765088   1.000000
   10        4.929320   1.000000
   11        7.653863   1.000000
   12        7.737471   1.000000
   13       10.632064   0.000000
   14       11.439333   0.000000
   15       11.540478   0.000000
   16       12.059205   0.000000

 -0.4615385E+00  0.7692308E-01 -0.8453326E-18  0.1092399E-01
    1      -21.682400   1.000000
    2      -21.651032   1.000000
    3      -21.649657   1.000000
    4       -1.552042   1.000000
    5        2.029513   1.000000
    6        3.398836   1.000000
    7        3.405591   1.000000
    8        4.729432   1.000000
    9        4.774653   1.000000
   10        4.865796   1.000000
   11        7.618919   1.000000
   12        7.757022   1.000000
   13       10.715772   0.000000
   14       11.237419   0.000000
   15       11.626120   0.000000
   16       12.101529   0.000000

 -0.3846154E+00  0.7692308E-01  0.1173816E-16  0.1092399E-01
    1      -21.680223   1.000000
    2      -21.651502   1.000000
    3      -21.649530   1.000000
    4       -1.729156   1.000000
    5        2.186869   1.000000
    6        3.337918   1.000000
    7        3.472436   1.000000
    8        4.723161   1.000000
    9        4.817571   1.000000
   10        5.003045   1.000000
   11        7.588147   1.000000
   12        7.805653   1.000000
   13       10.654783   0.000000
   14       11.453452   0.000000
   15       11.529486   0.000000
   16       12.094719   0.000000

 -0.3076923E+00  0.7692308E-01  0.1278985E-16  0.1092399E-01
    1      -21.675295   1.000000
    2      -21.652041   1.000000
    3      -21.649746   1.000000
    4       -2.084720   1.000000
    5        2.490347   1.000000
    6        3.296280   1.000000
    7        3.557657   1.000000
    8        4.728631   1.000000
    9        4.845148   1.000000
   10        5.361371   1.000000
   11        7.568808   1.000000
   12        7.910054   1.000000
   13       10.629484   0.000000
   14       11.317438   0.000000
   15       11.448800   0.000000
   16       12.570523   0.000000

 -0.2307692E+00  0.7692308E-01 -0.2382230E-17  0.1092399E-01
    1      -21.668673   1.000000
    2      -21.652505   1.000000
    3      -21.650230   1.000000
    4       -2.489152   1.000000
    5        2.823634   1.000000
    6        3.303282   1.000000
    7        3.645815   1.000000
    8        4.703087   1.000000
    9        4.819827   1.000000
   10        5.954337   1.000000
   11        7.602794   1.000000
   12        8.081232   1.000000
   13       10.663232   0.000000
   14       11.097436   0.000000
   15       11.269535   0.000000
   16       12.935959   0.000000

 -0.1538462E+00  0.7692308E-01  0.6084355E-17  0.1092399E-01
    1      -21.661880   1.000000
    2      -21.652766   1.000000
    3      -21.650901   1.000000
    4       -2.848647   1.000000
    5        3.128712   1.000000
    6        3.367653   1.000000
    7        3.715253   1.000000
    8        4.626733   1.000000
    9        4.734521   1.000000
   10        6.736861   1.000000
   11        7.738212   1.000000
   12        8.280558   1.000000
   13       10.586452   0.000000
   14       10.956056   0.000000
   15       11.258914   0.000000
   16       12.378725   0.000000

 -0.7692308E-01  0.7692308E-01  0.6066096E-18  0.5461994E-02
    1      -21.656603   1.000000
    2      -21.652622   1.000000
    3      -21.651585   1.000000
    4       -3.105969   1.000000
    5        3.388082   1.000000
    6        3.480343   1.000000
    7        3.714304   1.000000
    8        4.542923   1.000000
    9        4.615367   1.000000
   10        7.525004   1.000000
   11        8.029493   1.000000
   12        8.416551   1.000000
   13       10.340889   1.000000
   14       10.982082   0.000000
   15       11.438343   0.000000
   16       11.877039   0.000000

  0.1538462E+00  0.1538462E+00 -0.2956704E-17  0.2730997E-02
    1      -21.659073   1.000000
    2      -21.652767   1.000000
    3      -21.652767   1.000000
    4       -2.919043   1.000000
    5        2.891509   1.000000
    6        3.780991   1.000000
    7        3.780991   1.000000
    8        4.601100   1.000000
    9        4.613746   1.000000
   10        7.312193   1.000000
   11        7.843675   1.000000
   12        7.843675   1.000000
   13       10.113653   1.000000
   14       11.197189   0.000000
   15       11.455737   0.000000
   16       12.411358   0.000000

  0.2307692E+00  0.1538462E+00 -0.8257556E-17  0.1092399E-01
    1      -21.663652   1.000000
    2      -21.652807   1.000000
    3      -21.652679   1.000000
    4       -2.678881   1.000000
    5        2.649041   1.000000
    6        3.766286   1.000000
    7        3.802530   1.000000
    8        4.644432   1.000000
    9        4.693710   1.000000
   10        6.720415   1.000000
   11        7.652907   1.000000
   12        7.680777   1.000000
   13       10.231516   1.000000
   14       11.209498   0.000000
   15       11.279300   0.000000
   16       12.823405   0.000000

  0.3076923E+00  0.1538462E+00  0.3849935E-17  0.1092399E-01
    1      -21.669571   1.000000
    2      -21.652629   1.000000
    3      -21.652453   1.000000
    4       -2.347928   1.000000
    5        2.455977   1.000000
    6        3.638151   1.000000
    7        3.773048   1.000000
    8        4.715635   1.000000
    9        4.774730   1.000000
   10        6.017080   1.000000
   11        7.506661   1.000000
   12        7.547936   1.000000
   13       10.413222   1.000000
   14       11.178131   0.000000
   15       11.414863   0.000000
   16       12.946468   0.000000

  0.3846154E+00  0.1538462E+00  0.1670177E-17  0.1092399E-01
    1      -21.675099   1.000000
    2      -21.652993   1.000000
    3      -21.651815   1.000000
    4       -1.984554   1.000000
    5        2.309768   1.000000
    6        3.479530   1.000000
    7        3.713576   1.000000
    8        4.773429   1.000000
    9        4.805664   1.000000
   10        5.435079   1.000000
   11        7.350906   1.000000
   12        7.527125   1.000000
   13       10.431881   1.000000
   14       11.234104   0.000000
   15       11.857241   0.000000
   16       12.395824   0.000000

  0.4615385E+00  0.1538462E+00  0.3758851E-18  0.1092399E-01
    1      -21.678971   1.000000
    2      -21.653728   1.000000
    3      -21.651033   1.000000
    4       -1.675679   1.000000
    5        2.205168   1.000000
    6        3.365893   1.000000
    7        3.621138   1.000000
    8        4.768838   1.000000
    9        4.818128   1.000000
   10        5.082666   1.000000
   11        7.242962   1.000000
   12        7.547465   1.000000
   13       10.463246   0.968361
   14       11.432659   0.000000
   15       11.614932   0.000000
   16       12.410444   0.000000

 -0.4615385E+00  0.1538462E+00 -0.1109426E-16  0.1092399E-01
    1      -21.680413   1.000000
    2      -21.654624   1.000000
    3      -21.650279   1.000000
    4       -1.524960   1.000000
    5        2.160576   1.000000
    6        3.351413   1.000000
    7        3.498556   1.000000
    8        4.700539   1.000000
    9        4.850974   1.000000
   10        4.996281   1.000000
   11        7.168401   1.000000
   12        7.580158   1.000000
   13       10.610165   0.000000
   14       11.171445   0.000000
   15       11.635913   0.000000
   16       12.680890   0.000000

 -0.3846154E+00  0.1538462E+00 -0.1334056E-16  0.1092399E-01
    1      -21.679205   1.000000
    2      -21.655391   1.000000
    3      -21.649716   1.000000
    4       -1.597939   1.000000
    5        2.212570   1.000000
    6        3.371747   1.000000
    7        3.445831   1.000000
    8        4.680963   1.000000
    9        4.899613   1.000000
   10        5.082271   1.000000
   11        7.091613   1.000000
   12        7.639040   1.000000
   13       10.718920   0.000000
   14       11.208026   0.000000
   15       11.643621   0.000000
   16       12.634564   0.000000

 -0.3076923E+00  0.1538462E+00 -0.1228888E-16  0.1092399E-01
    1      -21.675734   1.000000
    2      -21.655752   1.000000
    3      -21.649493   1.000000
    4       -1.862591   1.000000
    5        2.362946   1.000000
    6        3.275449   1.000000
    7        3.607016   1.000000
    8        4.691140   1.000000
    9        4.928589   1.000000
   10        5.356273   1.000000
   11        7.005217   1.000000
   12        7.756864   1.000000
   13       10.743707   0.000000
   14       11.459824   0.000000
   15       11.685451   0.000000
   16       12.440765   0.000000

 -0.2307692E+00  0.1538462E+00  0.2946187E-18  0.1092399E-01
    1      -21.670878   1.000000
    2      -21.655441   1.000000
    3      -21.649655   1.000000
    4       -2.219530   1.000000
    5        2.582919   1.000000
    6        3.236271   1.000000
    7        3.757720   1.000000
    8        4.678815   1.000000
    9        4.908375   1.000000
   10        5.827753   1.000000
   11        6.975122   1.000000
   12        7.942957   1.000000
   13       10.902478   0.000000
   14       11.213135   0.000000
   15       11.674434   0.000000
   16       12.521397   0.000000

 -0.1538462E+00  0.1538462E+00 -0.5116584E-17  0.5461994E-02
    1      -21.665897   1.000000
    2      -21.654346   1.000000
    3      -21.650158   1.000000
    4       -2.571199   1.000000
    5        2.846580   1.000000
    6        3.267391   1.000000
    7        3.814057   1.000000
    8        4.643007   1.000000
    9        4.836731   1.000000
   10        6.361853   1.000000
   11        7.171396   1.000000
   12        8.151050   1.000000
   13       11.010174   0.000000
   14       11.090446   0.000000
   15       11.230664   0.000000
   16       12.312680   0.000000

  0.2307692E+00  0.2307692E+00 -0.4435056E-17  0.2730997E-02
    1      -21.666256   1.000000
    2      -21.653269   1.000000
    3      -21.653269   1.000000
    4       -2.503159   1.000000
    5        2.409898   1.000000
    6        3.916769   1.000000
    7        3.916769   1.000000
    8        4.545800   1.000000
    9        4.764603   1.000000
   10        6.632983   1.000000
   11        7.437983   1.000000
   12        7.437983   1.000000
   13        9.969214   1.000000
   14       11.136639   0.000000
   15       11.391240   0.000000
   16       12.961328   0.000000

  0.3076923E+00  0.2307692E+00 -0.9509274E-17  0.1092399E-01
    1      -21.670690   1.000000
    2      -21.653621   1.000000
    3      -21.653315   1.000000
    4       -2.241121   1.000000
    5        2.255098   1.000000
    6        3.884041   1.000000
    7        3.950720   1.000000
    8        4.553626   1.000000
    9        4.851770   1.000000
   10        6.175926   1.000000
   11        7.247551   1.000000
   12        7.312196   1.000000
   13       10.041750   1.000000
   14       10.992630   0.000000
   15       11.564616   0.000000
   16       12.961937   0.000000

  0.3846154E+00  0.2307692E+00 -0.3134416E-17  0.1092399E-01
    1      -21.674927   1.000000
    2      -21.654626   1.000000
    3      -21.652932   1.000000
    4       -1.943221   1.000000
    5        2.203207   1.000000
    6        3.706795   1.000000
    7        3.915892   1.000000
    8        4.662344   1.000000
    9        4.900463   1.000000
   10        5.637071   1.000000
   11        7.021393   1.000000
   12        7.287242   1.000000
   13       10.157786   1.000000
   14       10.994137   0.000000
   15       11.987571   0.000000
   16       12.494890   0.000000

  0.4615385E+00  0.2307692E+00 -0.1197263E-17  0.1092399E-01
    1      -21.677648   1.000000
    2      -21.656389   1.000000
    3      -21.652198   1.000000
    4       -1.677412   1.000000
    5        2.251731   1.000000
    6        3.504309   1.000000
    7        3.814779   1.000000
    8        4.731745   1.000000
    9        4.924415   1.000000
   10        5.234095   1.000000
   11        6.816158   1.000000
   12        7.314472   1.000000
   13       10.209795   1.000000
   14       11.205218   0.000000
   15       11.850572   0.000000
   16       12.529372   0.000000

 -0.4615385E+00  0.2307692E+00 -0.1361942E-16  0.1092399E-01
    1      -21.678296   1.000000
    2      -21.658531   1.000000
    3      -21.651290   1.000000
    4       -1.514704   1.000000
    5        2.351075   1.000000
    6        3.348948   1.000000
    7        3.659253   1.000000
    8        4.640002   1.000000
    9        4.958812   1.000000
   10        5.165294   1.000000
   11        6.658836   1.000000
   12        7.352266   1.000000
   13       10.321660   1.000000
   14       11.353706   0.000000
   15       11.559097   0.000000
   16       12.710678   0.000000

 -0.3846154E+00  0.2307692E+00  0.1379387E-16  0.1092399E-01
    1      -21.677058   1.000000
    2      -21.660259   1.000000
    3      -21.650414   1.000000
    4       -1.504608   1.000000
    5        2.395808   1.000000
    6        3.338567   1.000000
    7        3.486482   1.000000
    8        4.590522   1.000000
    9        4.998417   1.000000
   10        5.278457   1.000000
   11        6.539089   1.000000
   12        7.414436   1.000000
   13       10.540480   0.000000
   14       11.138008   0.000000
   15       11.760475   0.000000
   16       12.600313   0.000000

 -0.3076923E+00  0.2307692E+00 -0.1291002E-16  0.1092399E-01
    1      -21.674852   1.000000
    2      -21.660533   1.000000
    3      -21.649762   1.000000
    4       -1.653177   1.000000
    5        2.381507   1.000000
    6        3.339402   1.000000
    7        3.491618   1.000000
    8        4.638112   1.000000
    9        5.011908   1.000000
   10        5.477042   1.000000
   11        6.457886   1.000000
   12        7.538036   1.000000
   13       10.695439   0.000000
   14       11.433058   0.000000
   15       11.652752   0.000000
   16       12.494305   0.000000

 -0.2307692E+00  0.2307692E+00  0.1259926E-16  0.5461994E-02
    1      -21.672768   1.000000
    2      -21.658673   1.000000
    3      -21.649486   1.000000
    4       -1.916425   1.000000
    5        2.427401   1.000000
    6        3.249970   1.000000
    7        3.677246   1.000000
    8        4.676408   1.000000
    9        4.979679   1.000000
   10        5.702813   1.000000
   11        6.541613   1.000000
   12        7.730437   1.000000
   13       10.814655   0.000000
   14       11.428384   0.000000
   15       12.049010   0.000000
   16       12.422604   0.000000

  0.3076923E+00  0.3076923E+00 -0.5913408E-17  0.2730997E-02
    1      -21.674056   1.000000
    2      -21.653806   1.000000
    3      -21.653806   1.000000
    4       -2.060310   1.000000
    5        2.143126   1.000000
    6        4.058600   1.000000
    7        4.058600   1.000000
    8        4.378546   1.000000
    9        4.955113   1.000000
   10        5.985691   1.000000
   11        7.148601   1.000000
   12        7.148601   1.000000
   13        9.831306   1.000000
   14       10.783110   0.000000
   15       11.660560   0.000000
   16       12.896051   0.000000

  0.3846154E+00  0.3076923E+00 -0.5780738E-17  0.1092399E-01
    1      -21.677469   1.000000
    2      -21.654549   1.000000
    3      -21.653812   1.000000
    4       -1.847079   1.000000
    5        2.153586   1.000000
    6        3.944840   1.000000
    7        4.080619   1.000000
    8        4.458140   1.000000
    9        5.026364   1.000000
   10        5.588407   1.000000
   11        6.958552   1.000000
   12        7.092801   1.000000
   13        9.865069   1.000000
   14       10.695596   0.000000
   15       11.910900   0.000000
   16       12.567529   0.000000

  0.4615385E+00  0.3076923E+00  0.4711030E-17  0.1092399E-01
    1      -21.679259   1.000000
    2      -21.656560   1.000000
    3      -21.653341   1.000000
    4       -1.651012   1.000000
    5        2.288429   1.000000
    6        3.714200   1.000000
    7        4.010666   1.000000
    8        4.620282   1.000000
    9        5.056394   1.000000
   10        5.207867   1.000000
   11        6.657792   1.000000
   12        7.108682   1.000000
   13        9.946482   1.000000
   14       10.847727   0.000000
   15       12.002417   0.000000
   16       12.520244   0.000000

 -0.4615385E+00  0.3076923E+00 -0.2386835E-16  0.1092399E-01
    1      -21.678727   1.000000
    2      -21.659684   1.000000
    3      -21.652484   1.000000
    4       -1.514567   1.000000
    5        2.499277   1.000000
    6        3.482936   1.000000
    7        3.857718   1.000000
    8        4.546182   1.000000
    9        5.077745   1.000000
   10        5.190079   1.000000
   11        6.354827   1.000000
   12        7.144219   1.000000
   13       10.047663   1.000000
   14       11.271232   0.000000
   15       11.554005   0.000000
   16       12.372271   0.000000

 -0.3846154E+00  0.3076923E+00  0.1647072E-16  0.1092399E-01
    1      -21.676304   1.000000
    2      -21.662957   1.000000
    3      -21.651444   1.000000
    4       -1.463667   1.000000
    5        2.646224   1.000000
    6        3.285057   1.000000
    7        3.662718   1.000000
    8        4.459091   1.000000
    9        5.090777   1.000000
   10        5.434400   1.000000
   11        6.111031   1.000000
   12        7.208132   1.000000
   13       10.241201   1.000000
   14       11.242811   0.000000
   15       11.808493   0.000000
   16       12.322411   0.000000

 -0.3076923E+00  0.3076923E+00 -0.1023317E-16  0.5461994E-02
    1      -21.674238   1.000000
    2      -21.663945   1.000000
    3      -21.650466   1.000000
    4       -1.510614   1.000000
    5        2.539381   1.000000
    6        3.321851   1.000000
    7        3.476724   1.000000
    8        4.532523   1.000000
    9        5.071389   1.000000
   10        5.599993   1.000000
   11        6.076854   1.000000
   12        7.338359   1.000000
   13       10.509462   0.000001
   14       11.182321   0.000000
   15       11.837560   0.000000
   16       12.321904   0.000000

  0.3846154E+00  0.3846154E+00 -0.7391760E-17  0.2730997E-02
    1      -21.680669   1.000000
    2      -21.654267   1.000000
    3      -21.654267   1.000000
    4       -1.725291   1.000000
    5        2.210362   1.000000
    6        4.169887   1.000000
    7        4.169887   1.000000
    8        4.216747   1.000000
    9        5.129836   1.000000
   10        5.282337   1.000000
   11        6.994527   1.000000
   12        6.994527   1.000000
   13        9.721546   1.000000
   14       10.474965   0.579223
   15       11.823256   0.000000
   16       12.482609   0.000000

  0.4615385E+00  0.3846154E+00 -0.9787897E-17  0.1092399E-01
    1      -21.682392   1.000000
    2      -21.655222   1.000000
    3      -21.654184   1.000000
    4       -1.609474   1.000000
    5        2.369854   1.000000
    6        3.948327   1.000000
    7        4.161665   1.000000
    8        4.429653   1.000000
    9        4.929728   1.000000
   10        5.174613   1.000000
   11        6.822445   1.000000
   12        6.982317   1.000000
   13        9.743327   1.000000
   14       10.481709   0.225468
   15       11.930368   0.000000
   16       12.278566   0.000000

 -0.4615385E+00  0.3846154E+00 -0.2639351E-16  0.1092399E-01
    1      -21.681711   1.000000
    2      -21.657724   1.000000
    3      -21.653573   1.000000
    4       -1.521670   1.000000
    5        2.571016   1.000000
    6        3.729688   1.000000
    7        4.050696   1.000000
    8        4.435349   1.000000
    9        4.910323   1.000000
   10        5.178417   1.000000
   11        6.485954   1.000000
   12        7.007444   1.000000
   13        9.834462   1.000000
   14       10.794276   0.000000
   15       11.741194   0.000000
   16       12.177504   0.000000

 -0.3846154E+00  0.3846154E+00  0.1019785E-17  0.5461994E-02
    1      -21.678931   1.000000
    2      -21.661079   1.000000
    3      -21.652577   1.000000
    4       -1.471548   1.000000
    5        2.710078   1.000000
    6        3.464632   1.000000
    7        3.866818   1.000000
    8        4.361217   1.000000
    9        5.153162   1.000000
   10        5.232270   1.000000
   11        6.159296   1.000000
   12        7.071377   1.000000
   13        9.993485   1.000000
   14       11.362870   0.000000
   15       11.449256   0.000000
   16       12.094571   0.000000

  0.4615385E+00  0.4615385E+00 -0.8870112E-17  0.2730997E-02
    1      -21.684463   1.000000
    2      -21.654529   1.000000
    3      -21.654529   1.000000
    4       -1.568565   1.000000
    5        2.487211   1.000000
    6        4.185093   1.000000
    7        4.228069   1.000000
    8        4.228069   1.000000
    9        4.621924   1.000000
   10        5.236929   1.000000
   11        6.941364   1.000000
   12        6.941364   1.000000
   13        9.659385   1.000000
   14       10.293242   1.000000
   15       11.745122   0.000000
   16       12.182226   0.000000

 -0.4615385E+00  0.4615385E+00 -0.2371666E-16  0.5461994E-02
    1      -21.684185   1.000000
    2      -21.655450   1.000000
    3      -21.654304   1.000000
    4       -1.538618   1.000000
    5        2.570820   1.000000
    6        3.988500   1.000000
    7        4.187783   1.000000
    8        4.386112   1.000000
    9        4.572063   1.000000
   10        5.235164   1.000000
   11        6.788183   1.000000
   12        6.949991   1.000000
   13        9.700654   1.000000
   14       10.405616   1.000000
   15       11.822550   0.000000
   16       12.140015   0.000000

  0.2307692E+00  0.1538462E+00  0.7692308E-01  0.1092399E-01
    1      -21.661475   1.000000
    2      -21.653187   1.000000
    3      -21.651461   1.000000
    4       -2.827692   1.000000
    5        2.916681   1.000000
    6        3.557025   1.000000
    7        3.792608   1.000000
    8        4.615823   1.000000
    9        4.709769   1.000000
   10        6.891116   1.000000
   11        7.593000   1.000000
   12        8.121613   1.000000
   13       10.480791   0.266297
   14       11.023486   0.000000
   15       11.349117   0.000000
   16       12.335383   0.000000

  0.3076923E+00  0.1538462E+00  0.7692308E-01  0.2184797E-01
    1      -21.667029   1.000000
    2      -21.653709   1.000000
    3      -21.650799   1.000000
    4       -2.512838   1.000000
    5        2.681685   1.000000
    6        3.444077   1.000000
    7        3.788642   1.000000
    8        4.673870   1.000000