 vasp.6.0.8 29Jun18 (build Jun 13 2019 12:54:44) complex

 executed on      IFC18_CrayMPICH date 2021.12.05  14:21:50
 running   64 mpi-ranks, with    1 threads/rank
 distrk:  each k-point on   16 cores,    4 groups
 distr:  one band on NCORES_PER_BAND=   4 cores,    4 groups


--------------------------------------------------------------------------------------------------------


 INCAR:
 POTCAR:    PAW_PBE Hf_pv 06Sep2000
 POTCAR:    PAW_PBE Sb 06Sep2000
 POTCAR:    PAW_PBE Pt 04Feb2005
 POTCAR:    PAW_PBE Hf_pv 06Sep2000
   VRHFIN =Hf: 5p6s5d
   LEXCH  = PE
   EATOM  =   860.9206 eV,   63.2759 Ry

   TITEL  = PAW_PBE Hf_pv 06Sep2000
   LULTRA =        F    use ultrasoft PP ?
   IUNSCR =        1    unscreen: 0-lin 1-nonlin 2-no
   RPACOR =    2.500    partial core radius
   POMASS =  178.490; ZVAL   =   10.000    mass and valenz
   RCORE  =    2.600    outmost cutoff radius
   RWIGS  =    3.050; RWIGS  =    1.614    wigner-seitz radius (au A)
   ENMAX  =  220.334; ENMIN  =  165.250 eV
   RCLOC  =    2.212    cutoff for local pot
   LCOR   =        T    correct aug charges
   LPAW   =        T    paw PP
   EAUG   =  380.878
   DEXC   =    0.000
   RMAX   =    2.665    core radius for proj-oper
   RAUG   =    1.300    factor for augmentation sphere
   RDEP   =    2.681    radius for radial grids
   RDEPT  =    2.139    core radius for aug-charge

   Atomic configuration
   15 entries
     n  l   j            E        occ.
     1  0  0.50    -65259.4397   2.0000
     2  0  0.50    -11157.9884   2.0000
     2  1  1.50     -9795.2114   6.0000
     3  0  0.50     -2541.4060   2.0000
     3  1  1.50     -2134.4772   6.0000
     3  2  2.50     -1653.5420  10.0000
     4  0  0.50      -510.9577   2.0000
     4  1  1.50      -377.5024   6.0000
     4  2  2.50      -205.2086  10.0000
     4  3  3.50       -15.4906  14.0000
     5  0  0.50       -65.6020   2.0000
     5  1  1.50       -34.2798   6.0000
     5  2  2.50        -1.9877   3.0000
     6  0  0.50        -4.7357   1.0000
     5  3  2.50        -1.3606   0.0000
   Description
     l       E           TYP  RCUT    TYP  RCUT
     1    -34.2797769     23  2.500
     1    -35.6403595     23  2.500
     2     -1.9876655     23  2.500
     2      0.0744675     23  2.500
     0     -4.7356889     23  2.600
     0      3.2364748     23  2.600
  local pseudopotential read in
  partial core-charges read in
  partial kinetic energy density read in
  atomic valenz-charges read in
  non local Contribution for L=           1  read in
    real space projection operators read in
  non local Contribution for L=           1  read in
    real space projection operators read in
  non local Contribution for L=           2  read in
    real space projection operators read in
  non local Contribution for L=           2  read in
    real space projection operators read in
  non local Contribution for L=           0  read in
    real space projection operators read in
  non local Contribution for L=           0  read in
    real space projection operators read in
    PAW grid and wavefunctions read in

   number of l-projection  operators is LMAX  =           6
   number of lm-projection operators is LMMAX =          18

 POTCAR:    PAW_PBE Sb 06Sep2000
   VRHFIN =Sb: s2p3
   LEXCH  = PE
   EATOM  =   149.9515 eV,   11.0211 Ry

   TITEL  = PAW_PBE Sb 06Sep2000
   LULTRA =        F    use ultrasoft PP ?
   IUNSCR =        1    unscreen: 0-lin 1-nonlin 2-no
   RPACOR =    2.200    partial core radius
   POMASS =  121.750; ZVAL   =    5.000    mass and valenz
   RCORE  =    2.300    outmost cutoff radius
   RWIGS  =    2.980; RWIGS  =    1.577    wigner-seitz radius (au A)
   ENMAX  =  172.069; ENMIN  =  129.052 eV
   ICORE  =        3    local potential
   LCOR   =        T    correct aug charges
   LPAW   =        T    paw PP
   EAUG   =  380.513
   DEXC   =    0.000
   RMAX   =    2.346    core radius for proj-oper
   RAUG   =    1.300    factor for augmentation sphere
   RDEP   =    2.360    radius for radial grids
   RDEPT  =    2.192    core radius for aug-charge

   Atomic configuration
   13 entries
     n  l   j            E        occ.
     1  0  0.50    -30298.2797   2.0000
     2  0  0.50     -4610.2252   2.0000
     2  1  1.50     -4138.3407   6.0000
     3  0  0.50      -903.8815   2.0000
     3  1  1.50      -750.1337   6.0000
     3  2  2.50      -515.7092  10.0000
     4  0  0.50      -148.8034   2.0000
     4  1  1.50      -101.7581   6.0000
     4  2  2.50       -33.5048  10.0000
     5  0  0.50       -12.8298   2.0000
     5  1  0.50        -4.8276   3.0000
     5  2  1.50        -4.0817   0.0000
     4  3  2.50        -4.0817   0.0000
   Description
     l       E           TYP  RCUT    TYP  RCUT
     0    -12.8297861     23  2.300
     0     13.6058260     23  2.300
     1     -4.8275512     23  2.300
     1     -0.7245443     23  2.300
     2     -4.0817478     23  2.300
     3     -1.3605826     23  2.300
  local pseudopotential read in
  partial core-charges read in
  partial kinetic energy density read in
  atomic valenz-charges read in
  non local Contribution for L=           0  read in
    real space projection operators read in
  non local Contribution for L=           0  read in
    real space projection operators read in
  non local Contribution for L=           1  read in
    real space projection operators read in
  non local Contribution for L=           1  read in
    real space projection operators read in
  non local Contribution for L=           2  read in
    real space projection operators read in
    PAW grid and wavefunctions read in

   number of l-projection  operators is LMAX  =           5
   number of lm-projection operators is LMMAX =          13

 POTCAR:    PAW_PBE Pt 04Feb2005
   VRHFIN =Pt: s1d9
   LEXCH  = PE
   EATOM  =   729.1176 eV,   53.5886 Ry

   TITEL  = PAW_PBE Pt 04Feb2005
   LULTRA =        F    use ultrasoft PP ?
   IUNSCR =        1    unscreen: 0-lin 1-nonlin 2-no
   RPACOR =    2.330    partial core radius
   POMASS =  195.080; ZVAL   =   10.000    mass and valenz
   RCORE  =    2.600    outmost cutoff radius
   RWIGS  =    2.750; RWIGS  =    1.455    wigner-seitz radius (au A)
   ENMAX  =  230.283; ENMIN  =  172.712 eV
   ICORE  =        3    local potential
   LCOR   =        T    correct aug charges
   LPAW   =        T    paw PP
   EAUG   =  358.966
   DEXC   =    0.000
   RMAX   =    2.658    core radius for proj-oper
   RAUG   =    1.300    factor for augmentation sphere
   RDEP   =    2.761    radius for radial grids
   RDEPT  =    2.203    core radius for aug-charge

   Atomic configuration
   16 entries
     n  l   j            E        occ.
     1  0  0.50    -78401.1885   2.0000
     2  0  0.50    -13770.7750   2.0000
     2  1  1.50    -11931.0468   6.0000
     3  0  0.50     -3234.7234   2.0000
     3  1  1.50     -2699.2216   6.0000
     3  2  2.50     -2119.5714  10.0000
     4  0  0.50      -695.1528   2.0000
     4  1  1.50      -519.6034   6.0000
     4  2  2.50      -306.6786  10.0000
     4  3  3.50       -70.1041  14.0000
     5  0  0.50      -101.7747   2.0000
     5  1  1.50       -55.9873   6.0000
     5  2  2.50        -6.1423   9.0000
     6  0  0.50        -5.6573   1.0000
     6  1  1.50        -6.8029   0.0000
     5  3  2.50        -1.3606   0.0000
   Description
     l       E           TYP  RCUT    TYP  RCUT
     2     -6.1423404     23  2.500
     2     -7.5029230     23  2.500
     0     -5.6573207     23  2.500
     0      0.7416693     23  2.500
     1     -2.7211652     23  2.600
     1     20.4087390     23  2.600
     3     -1.3605826     23  2.500
  local pseudopotential read in
  partial core-charges read in
  partial kinetic energy density read in
  atomic valenz-charges read in
  non local Contribution for L=           2  read in
    real space projection operators read in
  non local Contribution for L=           2  read in
    real space projection operators read in
  non local Contribution for L=           0  read in
    real space projection operators read in
  non local Contribution for L=           0  read in
    real space projection operators read in
  non local Contribution for L=           1  read in
    real space projection operators read in
  non local Contribution for L=           1  read in
    real space projection operators read in
    PAW grid and wavefunctions read in

   number of l-projection  operators is LMAX  =           6
   number of lm-projection operators is LMMAX =          18


 -----------------------------------------------------------------------------
|                                                                             |
|  ADVICE TO THIS USER RUNNING 'VASP/VAMP'   (HEAR YOUR MASTER'S VOICE ...):  |
|                                                                             |
|      You enforced a specific xc-type in the INCAR file,                     |
|      a different type was found on the POTCAR file                          |
|          I HOPE YOU KNOW, WHAT YOU ARE  DOING                               |
|                                                                             |
 -----------------------------------------------------------------------------

  PAW_PBE Hf_pv 06Sep2000               :
 energy of atom  1       EATOM= -860.9206
 kinetic energy error for atom=    0.0004 (will be added to EATOM!!)
  PAW_PBE Sb 06Sep2000                  :
 energy of atom  2       EATOM= -149.9515
 kinetic energy error for atom=    0.0002 (will be added to EATOM!!)
  PAW_PBE Pt 04Feb2005                  :
 energy of atom  3       EATOM= -729.1176
 kinetic energy error for atom=    0.0010 (will be added to EATOM!!)


 POSCAR: Hf1 Sb1 Pt1
  positions in direct lattice
  No initial velocities read in
 exchange correlation table for  LEXCH =       14
   RHO(1)=    0.500       N(1)  =     2000
   RHO(2)=  100.500       N(2)  =     4000



--------------------------------------------------------------------------------------------------------


 ion  position               nearest neighbor table
   1  0.750  0.750  0.750-   3 2.66   3 2.66   3 2.66   3 2.66   2 3.07   2 3.07   2 3.07   2 3.07
                             2 3.07   2 3.07
   2  0.250  0.250  0.250-   3 2.66   3 2.66   3 2.66   3 2.66   1 3.07   1 3.07   1 3.07   1 3.07
                             1 3.07   1 3.07
   3  0.000  0.000  0.000-   1 2.66   1 2.66   1 2.66   2 2.66   2 2.66   2 2.66   2 2.66   1 2.66


  LATTYP: Found a face centered cubic cell.
 ALAT       =     6.1371989265

  Lattice vectors:

 A1 = (   0.0000000000,   3.0685994633,   3.0685994633)
 A2 = (   3.0685994633,   0.0000000000,   3.0685994633)
 A3 = (   3.0685994633,   3.0685994633,   0.0000000000)


Analysis of symmetry for initial positions (statically):
=====================================================================
 Subroutine PRICEL returns:
 Original cell was already a primitive cell.


 Routine SETGRP: Setting up the symmetry group for a
 face centered cubic supercell.


 Subroutine GETGRP returns: Found 24 space group operations
 (whereof 24 operations were pure point group operations)
 out of a pool of 48 trial point group operations.


The static configuration has the point symmetry T_d .


Analysis of symmetry for dynamics (positions and initial velocities):
=====================================================================
 Subroutine PRICEL returns:
 Original cell was already a primitive cell.


 Routine SETGRP: Setting up the symmetry group for a
 face centered cubic supercell.


 Subroutine GETGRP returns: Found 24 space group operations
 (whereof 24 operations were pure point group operations)
 out of a pool of 48 trial point group operations.


The dynamic configuration has the point symmetry T_d .


 Subroutine INISYM returns: Found 24 space group operations
 (whereof 24 operations are pure point group operations),
 and found     1 'primitive' translations


----------------------------------------------------------------------------------------

                                     Primitive cell

  volume of cell :      57.7897

  direct lattice vectors                    reciprocal lattice vectors
     0.000000000  3.068599463  3.068599463    -0.162940783  0.162940783  0.162940783
     3.068599463  0.000000000  3.068599463     0.162940783 -0.162940783  0.162940783
     3.068599463  3.068599463  0.000000000     0.162940783  0.162940783 -0.162940783

  length of vectors
     4.339654978  4.339654978  4.339654978     0.282221715  0.282221715  0.282221715

  position of ions in fractional coordinates (direct lattice)
     0.750000000  0.750000000  0.750000000
     0.250000000  0.250000000  0.250000000
     0.000000000  0.000000000  0.000000000

  ion indices of the primitive-cell ions
   primitive index   ion index
                 1           1
                 2           2
                 3           3

----------------------------------------------------------------------------------------



 KPOINTS: KPOINTS

Automatic generation of k-mesh.
Space group operators:
 irot       det(A)        alpha          n_x          n_y          n_z        tau_x        tau_y        tau_z
    1     1.000000     0.000001     1.000000     0.000000     0.000000     0.000000     0.000000     0.000000
    2     1.000000   120.000000    -0.577350    -0.577350    -0.577350     0.000000     0.000000     0.000000
    3     1.000000   120.000000     0.577350     0.577350     0.577350     0.000000     0.000000     0.000000
    4    -1.000000    90.000000    -0.000000    -0.000000    -1.000000     0.000000     0.000000     0.000000
    5    -1.000000   180.000000     0.000000     0.707107     0.707107     0.000000     0.000000     0.000000
    6    -1.000000    90.000000    -0.000000     1.000000    -0.000000     0.000000     0.000000     0.000000
    7     1.000000   180.000000     0.000000     0.000000    -1.000000     0.000000     0.000000     0.000000
    8     1.000000   120.000000    -0.577350     0.577350     0.577350     0.000000     0.000000     0.000000
    9     1.000000   120.000000    -0.577350     0.577350    -0.577350     0.000000     0.000000     0.000000
   10    -1.000000    90.000000     0.000000     0.000000     1.000000     0.000000     0.000000     0.000000
   11    -1.000000    90.000000    -1.000000     0.000000    -0.000000     0.000000     0.000000     0.000000
   12    -1.000000   180.000000     0.707107     0.000000     0.707107     0.000000     0.000000     0.000000
   13     1.000000   120.000000     0.577350    -0.577350     0.577350     0.000000     0.000000     0.000000
   14     1.000000   120.000000    -0.577350    -0.577350     0.577350     0.000000     0.000000     0.000000
   15     1.000000   180.000000     1.000000     0.000000     0.000000     0.000000     0.000000     0.000000
   16    -1.000000    90.000000     0.000000    -1.000000     0.000000     0.000000     0.000000     0.000000
   17    -1.000000   180.000000     0.707107     0.707107    -0.000000     0.000000     0.000000     0.000000
   18    -1.000000    90.000000     1.000000     0.000000     0.000000     0.000000     0.000000     0.000000
   19     1.000000   120.000000     0.577350    -0.577350    -0.577350     0.000000     0.000000     0.000000
   20     1.000000   180.000000    -0.000000    -1.000000     0.000000     0.000000     0.000000     0.000000
   21     1.000000   120.000000     0.577350     0.577350    -0.577350     0.000000     0.000000     0.000000
   22    -1.000000   180.000000    -0.000000    -0.707107     0.707107     0.000000     0.000000     0.000000
   23    -1.000000   180.000000     0.707107    -0.707107     0.000000     0.000000     0.000000     0.000000
   24    -1.000000   180.000000    -0.707107     0.000000     0.707107     0.000000     0.000000     0.000000

 Subroutine IBZKPT returns following result:
 ===========================================

 Found     84 irreducible k-points:

 Following reciprocal coordinates:
            Coordinates               Weight
  0.000000  0.000000  0.000000      1.000000
  0.076923  0.000000 -0.000000      8.000000
  0.153846 -0.000000  0.000000      8.000000
  0.230769  0.000000 -0.000000      8.000000
  0.307692 -0.000000  0.000000      8.000000
  0.384615  0.000000  0.000000      8.000000
  0.461538 -0.000000  0.000000      8.000000
  0.076923  0.076923 -0.000000      6.000000
  0.153846  0.076923  0.000000     24.000000
  0.230769  0.076923  0.000000     24.000000
  0.307692  0.076923  0.000000     24.000000
  0.384615  0.076923  0.000000     24.000000
  0.461538  0.076923 -0.000000     24.000000
 -0.461538  0.076923 -0.000000     24.000000
 -0.384615  0.076923  0.000000     24.000000
 -0.307692  0.076923  0.000000     24.000000
 -0.230769  0.076923 -0.000000     24.000000
 -0.153846  0.076923  0.000000     24.000000
 -0.076923  0.076923  0.000000     12.000000
  0.153846  0.153846 -0.000000      6.000000
  0.230769  0.153846 -0.000000     24.000000
  0.307692  0.153846  0.000000     24.000000
  0.384615  0.153846  0.000000     24.000000
  0.461538  0.153846  0.000000     24.000000
 -0.461538  0.153846 -0.000000     24.000000
 -0.384615  0.153846 -0.000000     24.000000
 -0.307692  0.153846 -0.000000     24.000000
 -0.230769  0.153846  0.000000     24.000000
 -0.153846  0.153846 -0.000000     12.000000
  0.230769  0.230769 -0.000000      6.000000
  0.307692  0.230769 -0.000000     24.000000
  0.384615  0.230769 -0.000000     24.000000
  0.461538  0.230769 -0.000000     24.000000
 -0.461538  0.230769 -0.000000     24.000000
 -0.384615  0.230769  0.000000     24.000000
 -0.307692  0.230769 -0.000000     24.000000
 -0.230769  0.230769  0.000000     12.000000
  0.307692  0.307692 -0.000000      6.000000
  0.384615  0.307692 -0.000000     24.000000
  0.461538  0.307692  0.000000     24.000000
 -0.461538  0.307692 -0.000000     24.000000
 -0.384615  0.307692  0.000000     24.000000
 -0.307692  0.307692 -0.000000     12.000000
  0.384615  0.384615 -0.000000      6.000000
  0.461538  0.384615 -0.000000     24.000000
 -0.461538  0.384615 -0.000000     24.000000
 -0.384615  0.384615  0.000000     12.000000
  0.461538  0.461538 -0.000000      6.000000
 -0.461538  0.461538 -0.000000     12.000000
  0.230769  0.153846  0.076923     24.000000
  0.307692  0.153846  0.076923     48.000000
  0.384615  0.153846  0.076923     48.000000
  0.461538  0.153846  0.076923     48.000000
 -0.461538  0.153846  0.076923     48.000000
  0.307692  0.230769  0.076923     24.000000
  0.384615  0.230769  0.076923     48.000000
  0.461538  0.230769  0.076923     48.000000
 -0.461538  0.230769  0.076923     48.000000
 -0.384615  0.230769  0.076923     48.000000
 -0.307692  0.230769  0.076923     48.000000
 -0.230769  0.230769  0.076923     48.000000
 -0.153846  0.230769  0.076923     24.000000
  0.384615  0.307692  0.076923     24.000000
  0.461538  0.307692  0.076923     48.000000
 -0.461538  0.307692  0.076923     48.000000
 -0.384615  0.307692  0.076923     48.000000
 -0.307692  0.307692  0.076923     48.000000
 -0.230769  0.307692  0.076923     24.000000
  0.461538  0.384615  0.076923     24.000000
 -0.461538  0.384615  0.076923     48.000000
 -0.384615  0.384615  0.076923     48.000000
 -0.307692  0.384615  0.076923     24.000000
 -0.461538  0.461538  0.076923     24.000000
 -0.384615  0.461538  0.076923     24.000000
  0.461538  0.307692  0.153846     24.000000
 -0.461538  0.307692  0.153846     48.000000
 -0.384615  0.307692  0.153846     48.000000
 -0.461538  0.384615  0.153846     24.000000
 -0.384615  0.384615  0.153846     48.000000
 -0.307692  0.384615  0.153846     48.000000
 -0.230769  0.384615  0.153846     24.000000
 -0.384615  0.461538  0.153846     24.000000
 -0.307692  0.461538  0.153846     24.000000
 -0.307692  0.461538  0.230769     24.000000

 Following cartesian coordinates:
            Coordinates               Weight
  0.000000  0.000000  0.000000      1.000000
 -0.012101  0.012101  0.012101      8.000000
 -0.024203  0.024203  0.024203      8.000000
 -0.036304  0.036304  0.036304      8.000000
 -0.048405  0.048405  0.048405      8.000000
 -0.060507  0.060507  0.060507      8.000000
 -0.072608  0.072608  0.072608      8.000000
 -0.000000  0.000000  0.024203      6.000000
 -0.012101  0.012101  0.036304     24.000000
 -0.024203  0.024203  0.048405     24.000000
 -0.036304  0.036304  0.060507     24.000000
 -0.048405  0.048405  0.072608     24.000000
 -0.060507  0.060507  0.084709     24.000000
  0.084709 -0.084709 -0.060507     24.000000
  0.072608 -0.072608 -0.048405     24.000000
  0.060507 -0.060507 -0.036304     24.000000
  0.048405 -0.048405 -0.024203     24.000000
  0.036304 -0.036304 -0.012101     24.000000
  0.024203 -0.024203 -0.000000     12.000000
 -0.000000  0.000000  0.048405      6.000000
 -0.012101  0.012101  0.060507     24.000000
 -0.024203  0.024203  0.072608     24.000000
 -0.036304  0.036304  0.084709     24.000000
 -0.048405  0.048405  0.096811     24.000000
  0.096811 -0.096811 -0.048405     24.000000
  0.084709 -0.084709 -0.036304     24.000000
  0.072608 -0.072608 -0.024203     24.000000
  0.060507 -0.060507 -0.012101     24.000000
  0.048405 -0.048405 -0.000000     12.000000
  0.000000 -0.000000  0.072608      6.000000
 -0.012101  0.012101  0.084709     24.000000
 -0.024203  0.024203  0.096811     24.000000
 -0.036304  0.036304  0.108912     24.000000
  0.108912 -0.108912 -0.036304     24.000000
  0.096811 -0.096811 -0.024203     24.000000
  0.084709 -0.084709 -0.012101     24.000000
  0.072608 -0.072608 -0.000000     12.000000
 -0.000000  0.000000  0.096811      6.000000
 -0.012101  0.012101  0.108912     24.000000
 -0.024203  0.024203  0.121014     24.000000
  0.121014 -0.121014 -0.024203     24.000000
  0.108912 -0.108912 -0.012101     24.000000
  0.096811 -0.096811 -0.000000     12.000000
 -0.000000  0.000000  0.121014      6.000000
 -0.012101  0.012101  0.133115     24.000000
  0.133115 -0.133115 -0.012101     24.000000
  0.121014 -0.121014  0.000000     12.000000
  0.000000 -0.000000  0.145216      6.000000
  0.145216 -0.145216  0.000000     12.000000
 -0.000000  0.024203  0.048405     24.000000
 -0.012101  0.036304  0.060507     48.000000
 -0.024203  0.048405  0.072608     48.000000
 -0.036304  0.060507  0.084709     48.000000
  0.108912 -0.084709 -0.060507     48.000000
  0.000000  0.024203  0.072608     24.000000
 -0.012101  0.036304  0.084709     48.000000
 -0.024203  0.048405  0.096811     48.000000
  0.121014 -0.096811 -0.048405     48.000000
  0.108912 -0.084709 -0.036304     48.000000
  0.096811 -0.072608 -0.024203     48.000000
  0.084709 -0.060507 -0.012101     48.000000
  0.072608 -0.048405  0.000000     24.000000
 -0.000000  0.024203  0.096811     24.000000
 -0.012101  0.036304  0.108912     48.000000
  0.133115 -0.108912 -0.036304     48.000000
  0.121014 -0.096811 -0.024203     48.000000
  0.108912 -0.084709 -0.012101     48.000000
  0.096811 -0.072608 -0.000000     24.000000
  0.000000  0.024203  0.121014     24.000000
  0.145216 -0.121014 -0.024203     48.000000
  0.133115 -0.108912 -0.012101     48.000000
  0.121014 -0.096811  0.000000     24.000000
  0.157318 -0.133115 -0.012101     24.000000
  0.145216 -0.121014 -0.000000     24.000000
 -0.000000  0.048405  0.096811     24.000000
  0.145216 -0.096811 -0.048405     48.000000
  0.133115 -0.084709 -0.036304     48.000000
  0.157318 -0.108912 -0.036304     24.000000
  0.145216 -0.096811 -0.024203     48.000000
  0.133115 -0.084709 -0.012101     48.000000
  0.121014 -0.072608  0.000000     24.000000
  0.157318 -0.108912 -0.012101     24.000000
  0.145216 -0.096811 -0.000000     24.000000
  0.157318 -0.084709 -0.012101     24.000000



--------------------------------------------------------------------------------------------------------




 Dimension of arrays:
   k-points           NKPTS =     84   k-points in BZ     NKDIM =     84   number of bands    NBANDS=     16
   number of dos      NEDOS =    301   number of ions     NIONS =      3
   non local maximal  LDIM  =      6   non local SUM 2l+1 LMDIM =     18
   total plane-waves  NPLWV =  64000
   max r-space proj   IRMAX =      1   max aug-charges    IRDMAX= 536747
   dimension x,y,z NGX =    40 NGY =   40 NGZ =   40
   dimension x,y,z NGXF=    80 NGYF=   80 NGZF=   80
   support grid    NGXF=   160 NGYF=  160 NGZF=  160
   ions per type =               1   1   1
   NGX,Y,Z   is equivalent  to a cutoff of  15.32, 15.32, 15.32 a.u.
   NGXF,Y,Z  is equivalent  to a cutoff of  30.65, 30.65, 30.65 a.u.

 SYSTEM =  unknown system
 POSCAR =  Hf1 Sb1 Pt1

 Startparameter for this run:
   NWRITE =      2    write-flag & timer
   PREC   = acc       normal or accurate (medium, high low for compatibility)
   ISTART =      0    job   : 0-new  1-cont  2-samecut
   ICHARG =      2    charge: 1-file 2-atom 10-const
   ISPIN  =      1    spin polarized calculation?
   LNONCOLLINEAR =      F non collinear calculations
   LSORBIT =      F    spin-orbit coupling
   INIWAV =      1    electr: 0-lowe 1-rand  2-diag
   LASPH  =      F    aspherical Exc in radial PAW
   METAGGA=      F    non-selfconsistent MetaGGA calc.

 Electronic Relaxation 1
   ENCUT  =  700.0 eV  51.45 Ry    7.17 a.u.   9.36  9.36  9.36*2*pi/ulx,y,z
   ENINI  =  700.0     initial cutoff
   ENAUG  =  380.9 eV  augmentation charge cutoff
   NELM   =     60;   NELMIN=  5; NELMDL= -5     # of ELM steps
   EDIFF  = 0.1E-06   stopping-criterion for ELM
   LREAL  =      F    real-space projection
   NLSPLINE    = F    spline interpolate recip. space projectors
   LCOMPAT=      F    compatible to vasp.4.4
   GGA_COMPAT  = T    GGA compatible to vasp.4.4-vasp.4.6
   LMAXPAW     = -100 max onsite density
   LMAXMIX     =    2 max onsite mixed and CHGCAR
   VOSKOWN=      0    Vosko Wilk Nusair interpolation
   ROPT   =    0.00000   0.00000   0.00000
 Ionic relaxation
   EDIFFG = 0.1E-05   stopping-criterion for IOM
   NSW    =      0    number of steps for IOM
   NBLOCK =      1;   KBLOCK =      1    inner block; outer block
   IBRION =     -1    ionic relax: 0-MD 1-quasi-New 2-CG
   NFREE  =      0    steps in history (QN), initial steepest desc. (CG)
   ISIF   =      3    stress and relaxation
   IWAVPR =     10    prediction:  0-non 1-charg 2-wave 3-comb
   ISYM   =      2    0-nonsym 1-usesym 2-fastsym
   LCORR  =      T    Harris-Foulkes like correction to forces

   POTIM  = 0.5000    time-step for ionic-motion
   TEIN   =    0.0    initial temperature
   TEBEG  =    0.0;   TEEND  =   0.0 temperature during run
   SMASS  =  -3.00    Nose mass-parameter (am)
   estimated Nose-frequenzy (Omega)   =  0.10E-29 period in steps = 0.13E+47 mass=  -0.430E-27a.u.
   SCALEE = 1.0000    scale energy and forces
   NPACO  =    256;   APACO  = 16.0  distance and # of slots for P.C.
   PSTRESS=    0.0 pullay stress

  Mass of Ions in am
   POMASS = 178.49121.75195.08
  Ionic Valenz
   ZVAL   =  10.00  5.00 10.00
  Atomic Wigner-Seitz radii
   RWIGS  =  -1.00 -1.00 -1.00
  virtual crystal weights
   VCA    =   1.00  1.00  1.00
   NELECT =      25.0000    total number of electrons
   NUPDOWN=      -1.0000    fix difference up-down

 DOS related values:
   EMIN   =  10.00;   EMAX   =-10.00  energy-range for DOS
   EFERMI =   0.00
   ISMEAR =     0;   SIGMA  =   0.01  broadening in eV -4-tet -1-fermi 0-gaus

 Electronic relaxation 2 (details)
   IALGO  =     38    algorithm
   LDIAG  =      T    sub-space diagonalisation (order eigenvalues)
   LSUBROT=      F    optimize rotation matrix (better conditioning)
   TURBO    =      0    0=normal 1=particle mesh
   IRESTART =      0    0=no restart 2=restart with 2 vectors
   NREBOOT  =      0    no. of reboots
   NMIN     =      0    reboot dimension
   EREF     =   0.00    reference energy to select bands
   IMIX   =      4    mixing-type and parameters
     AMIX     =   0.40;   BMIX     =  1.00
     AMIX_MAG =   1.60;   BMIX_MAG =  1.00
     AMIN     =   0.10
     WC   =   100.;   INIMIX=   1;  MIXPRE=   1;  MAXMIX= -45

 Intra band minimization:
   WEIMIN = 0.0000     energy-eigenvalue tresh-hold
   EBREAK =  0.16E-08  absolut break condition
   DEPER  =   0.30     relativ break condition

   TIME   =   0.40     timestep for ELM

  volume/ion in A,a.u.               =      19.26       129.99
  Fermi-wavevector in a.u.,A,eV,Ry     =   1.238144  2.339754 20.857752  1.533002
  Thomas-Fermi vector in A             =   2.372682

 Write flags
   LWAVE        =      F    write WAVECAR
   LDOWNSAMPLE  =      F    k-point downsampling of WAVECAR
   LCHARG       =      F    write CHGCAR
   LVTOT        =      F    write LOCPOT, total local potential
   LVHAR        =      F    write LOCPOT, Hartree potential only
   LELF         =      F    write electronic localiz. function (ELF)
   LORBIT       =      0    0 simple, 1 ext, 2 COOP (PROOUT), +10 PAW based schemes


 Dipole corrections
   LMONO  =      F    monopole corrections only (constant potential shift)
   LDIPOL =      F    correct potential (dipole corrections)
   IDIPOL =      0    1-x, 2-y, 3-z, 4-all directions
   EPSILON=  1.0000000 bulk dielectric constant

 Exchange correlation treatment:
   GGA     =    PS    GGA type
   LEXCH   =    14    internal setting for exchange type
   VOSKOWN=      0    Vosko Wilk Nusair interpolation
   LHFCALC =     F    Hartree Fock is set to
   LHFONE  =     F    Hartree Fock one center treatment
   AEXX    =    0.0000 exact exchange contribution

 Linear response parameters
   LEPSILON=     F    determine dielectric tensor
   LRPA    =     F    only Hartree local field effects (RPA)
   LNABLA  =     F    use nabla operator in PAW spheres
   LVEL    =     F    velocity operator in full k-point grid
   LINTERFAST=   F  fast interpolation
   KINTER  =     0    interpolate to denser k-point grid
   CSHIFT  =0.1000    complex shift for real part using Kramers Kronig
   OMEGAMAX=  -1.0    maximum frequency
   DEG_THRESHOLD= 0.2000000E-02 threshold for treating states as degnerate
   RTIME   =   -0.100 relaxation time in fs
  (WPLASMAI=    0.000 imaginary part of plasma frequency in eV, 0.658/RTIME)
   DFIELD  = 0.0000000 0.0000000 0.0000000 field for delta impulse in time

 Orbital magnetization related:
   ORBITALMAG=     F  switch on orbital magnetization
   LCHIMAG   =     F  perturbation theory with respect to B field
   DQ        =  0.001000  dq finite difference perturbation B field
   LLRAUG    =     F  two centre corrections for induced B field



--------------------------------------------------------------------------------------------------------


 Static calculation
 charge density and potential will be updated during run
 non-spin polarized calculation
 Variant of blocked Davidson
 Davidson routine will perform the subspace rotation
 perform sub-space diagonalisation
    after iterative eigenvector-optimisation
 modified Broyden-mixing scheme, WC =      100.0
 initial mixing is a Kerker type mixing with AMIX =  0.4000 and BMIX =      1.0000
 Hartree-type preconditioning will be used
 using additional bands            3
 reciprocal scheme for non local part
 use partial core corrections
 calculate Harris-corrections to forces
   (improved forces if not selfconsistent)
 use gradient corrections
 use of overlap-Matrix (Vanderbilt PP)
 Gauss-broadening in eV      SIGMA  =   0.01


--------------------------------------------------------------------------------------------------------


  energy-cutoff  :      700.00
  volume of cell :       57.79
      direct lattice vectors                 reciprocal lattice vectors
     0.000000000  3.068599463  3.068599463    -0.162940783  0.162940783  0.162940783
     3.068599463  0.000000000  3.068599463     0.162940783 -0.162940783  0.162940783
     3.068599463  3.068599463  0.000000000     0.162940783  0.162940783 -0.162940783

  length of vectors
     4.339654978  4.339654978  4.339654978     0.282221715  0.282221715  0.282221715



 k-points in units of 2pi/SCALE and weight: KPOINTS
   0.00000000  0.00000000  0.00000000       0.000
  -0.01210135  0.01210135  0.01210135       0.004
  -0.02420271  0.02420271  0.02420271       0.004
  -0.03630406  0.03630406  0.03630406       0.004
  -0.04840541  0.04840541  0.04840541       0.004
  -0.06050677  0.06050677  0.06050677       0.004
  -0.07260812  0.07260812  0.07260812       0.004
  -0.00000000  0.00000000  0.02420271       0.003
  -0.01210135  0.01210135  0.03630406       0.011
  -0.02420271  0.02420271  0.04840541       0.011
  -0.03630406  0.03630406  0.06050677       0.011
  -0.04840541  0.04840541  0.07260812       0.011
  -0.06050677  0.06050677  0.08470948       0.011
   0.08470948 -0.08470948 -0.06050677       0.011
   0.07260812 -0.07260812 -0.04840541       0.011
   0.06050677 -0.06050677 -0.03630406       0.011
   0.04840541 -0.04840541 -0.02420271       0.011
   0.03630406 -0.03630406 -0.01210135       0.011
   0.02420271 -0.02420271 -0.00000000       0.005
  -0.00000000  0.00000000  0.04840541       0.003
  -0.01210135  0.01210135  0.06050677       0.011
  -0.02420271  0.02420271  0.07260812       0.011
  -0.03630406  0.03630406  0.08470948       0.011
  -0.04840541  0.04840541  0.09681083       0.011
   0.09681083 -0.09681083 -0.04840541       0.011
   0.08470948 -0.08470948 -0.03630406       0.011
   0.07260812 -0.07260812 -0.02420271       0.011
   0.06050677 -0.06050677 -0.01210135       0.011
   0.04840541 -0.04840541 -0.00000000       0.005
   0.00000000 -0.00000000  0.07260812       0.003
  -0.01210135  0.01210135  0.08470948       0.011
  -0.02420271  0.02420271  0.09681083       0.011
  -0.03630406  0.03630406  0.10891218       0.011
   0.10891218 -0.10891218 -0.03630406       0.011
   0.09681083 -0.09681083 -0.02420271       0.011
   0.08470948 -0.08470948 -0.01210135       0.011
   0.07260812 -0.07260812 -0.00000000       0.005
  -0.00000000  0.00000000  0.09681083       0.003
  -0.01210135  0.01210135  0.10891218       0.011
  -0.02420271  0.02420271  0.12101354       0.011
   0.12101354 -0.12101354 -0.02420271       0.011
   0.10891218 -0.10891218 -0.01210135       0.011
   0.09681083 -0.09681083 -0.00000000       0.005
  -0.00000000  0.00000000  0.12101354       0.003
  -0.01210135  0.01210135  0.13311489       0.011
   0.13311489 -0.13311489 -0.01210135       0.011
   0.12101354 -0.12101354  0.00000000       0.005
   0.00000000 -0.00000000  0.14521624       0.003
   0.14521624 -0.14521624  0.00000000       0.005
  -0.00000000  0.02420271  0.04840541       0.011
  -0.01210135  0.03630406  0.06050677       0.022
  -0.02420271  0.04840541  0.07260812       0.022
  -0.03630406  0.06050677  0.08470948       0.022
   0.10891218 -0.08470948 -0.06050677       0.022
   0.00000000  0.02420271  0.07260812       0.011
  -0.01210135  0.03630406  0.08470948       0.022
  -0.02420271  0.04840541  0.09681083       0.022
   0.12101354 -0.09681083 -0.04840541       0.022
   0.10891218 -0.08470948 -0.03630406       0.022
   0.09681083 -0.07260812 -0.02420271       0.022
   0.08470948 -0.06050677 -0.01210135       0.022
   0.07260812 -0.04840541  0.00000000       0.011
  -0.00000000  0.02420271  0.09681083       0.011
  -0.01210135  0.03630406  0.10891218       0.022
   0.13311489 -0.10891218 -0.03630406       0.022
   0.12101354 -0.09681083 -0.02420271       0.022
   0.10891218 -0.08470948 -0.01210135       0.022
   0.09681083 -0.07260812 -0.00000000       0.011
   0.00000000  0.02420271  0.12101354       0.011
   0.14521624 -0.12101354 -0.02420271       0.022
   0.13311489 -0.10891218 -0.01210135       0.022
   0.12101354 -0.09681083  0.00000000       0.011
   0.15731760 -0.13311489 -0.01210135       0.011
   0.14521624 -0.12101354 -0.00000000       0.011
  -0.00000000  0.04840541  0.09681083       0.011
   0.14521624 -0.09681083 -0.04840541       0.022
   0.13311489 -0.08470948 -0.03630406       0.022
   0.15731760 -0.10891218 -0.03630406       0.011
   0.14521624 -0.09681083 -0.02420271       0.022
   0.13311489 -0.08470948 -0.01210135       0.022
   0.12101354 -0.07260812  0.00000000       0.011
   0.15731760 -0.10891218 -0.01210135       0.011
   0.14521624 -0.09681083 -0.00000000       0.011
   0.15731760 -0.08470948 -0.01210135       0.011

 k-points in reciprocal lattice and weights: KPOINTS
   0.00000000  0.00000000  0.00000000       0.000
   0.07692308  0.00000000 -0.00000000       0.004
   0.15384615 -0.00000000  0.00000000       0.004
   0.23076923  0.00000000 -0.00000000       0.004
   0.30769231 -0.00000000  0.00000000       0.004
   0.38461538  0.00000000  0.00000000       0.004
   0.46153846 -0.00000000  0.00000000       0.004
   0.07692308  0.07692308 -0.00000000       0.003
   0.15384615  0.07692308  0.00000000       0.011
   0.23076923  0.07692308  0.00000000       0.011
   0.30769231  0.07692308  0.00000000       0.011
   0.38461538  0.07692308  0.00000000       0.011
   0.46153846  0.07692308 -0.00000000       0.011
  -0.46153846  0.07692308 -0.00000000       0.011
  -0.38461538  0.07692308  0.00000000       0.011
  -0.30769231  0.07692308  0.00000000       0.011
  -0.23076923  0.07692308 -0.00000000       0.011
  -0.15384615  0.07692308  0.00000000       0.011
  -0.07692308  0.07692308  0.00000000       0.005
   0.15384615  0.15384615 -0.00000000       0.003
   0.23076923  0.15384615 -0.00000000       0.011
   0.30769231  0.15384615  0.00000000       0.011
   0.38461538  0.15384615  0.00000000       0.011
   0.46153846  0.15384615  0.00000000       0.011
  -0.46153846  0.15384615 -0.00000000       0.011
  -0.38461538  0.15384615 -0.00000000       0.011
  -0.30769231  0.15384615 -0.00000000       0.011
  -0.23076923  0.15384615  0.00000000       0.011
  -0.15384615  0.15384615 -0.00000000       0.005
   0.23076923  0.23076923 -0.00000000       0.003
   0.30769231  0.23076923 -0.00000000       0.011
   0.38461538  0.23076923 -0.00000000       0.011
   0.46153846  0.23076923 -0.00000000       0.011
  -0.46153846  0.23076923 -0.00000000       0.011
  -0.38461538  0.23076923  0.00000000       0.011
  -0.30769231  0.23076923 -0.00000000       0.011
  -0.23076923  0.23076923  0.00000000       0.005
   0.30769231  0.30769231 -0.00000000       0.003
   0.38461538  0.30769231 -0.00000000       0.011
   0.46153846  0.30769231  0.00000000       0.011
  -0.46153846  0.30769231 -0.00000000       0.011
  -0.38461538  0.30769231  0.00000000       0.011
  -0.30769231  0.30769231 -0.00000000       0.005
   0.38461538  0.38461538 -0.00000000       0.003
   0.46153846  0.38461538 -0.00000000       0.011
  -0.46153846  0.38461538 -0.00000000       0.011
  -0.38461538  0.38461538  0.00000000       0.005
   0.46153846  0.46153846 -0.00000000       0.003
  -0.46153846  0.46153846 -0.00000000       0.005
   0.23076923  0.15384615  0.07692308       0.011
   0.30769231  0.15384615  0.07692308       0.022
   0.38461538  0.15384615  0.07692308       0.022
   0.46153846  0.15384615  0.07692308       0.022
  -0.46153846  0.15384615  0.07692308       0.022
   0.30769231  0.23076923  0.07692308       0.011
   0.38461538  0.23076923  0.07692308       0.022
   0.46153846  0.23076923  0.07692308       0.022
  -0.46153846  0.23076923  0.07692308       0.022
  -0.38461538  0.23076923  0.07692308       0.022
  -0.30769231  0.23076923  0.07692308       0.022
  -0.23076923  0.23076923  0.07692308       0.022
  -0.15384615  0.23076923  0.07692308       0.011
   0.38461538  0.30769231  0.07692308       0.011
   0.46153846  0.30769231  0.07692308       0.022
  -0.46153846  0.30769231  0.07692308       0.022
  -0.38461538  0.30769231  0.07692308       0.022
  -0.30769231  0.30769231  0.07692308       0.022
  -0.23076923  0.30769231  0.07692308       0.011
   0.46153846  0.38461538  0.07692308       0.011
  -0.46153846  0.38461538  0.07692308       0.022
  -0.38461538  0.38461538  0.07692308       0.022
  -0.30769231  0.38461538  0.07692308       0.011
  -0.46153846  0.46153846  0.07692308       0.011
  -0.38461538  0.46153846  0.07692308       0.011
   0.46153846  0.30769231  0.15384615       0.011
  -0.46153846  0.30769231  0.15384615       0.022
  -0.38461538  0.30769231  0.15384615       0.022
  -0.46153846  0.38461538  0.15384615       0.011
  -0.38461538  0.38461538  0.15384615       0.022
  -0.30769231  0.38461538  0.15384615       0.022
  -0.23076923  0.38461538  0.15384615       0.011
  -0.38461538  0.46153846  0.15384615       0.011
  -0.30769231  0.46153846  0.15384615       0.011
  -0.30769231  0.46153846  0.23076923       0.011

 position of ions in fractional coordinates (direct lattice)
   0.75000000  0.75000000  0.75000000
   0.25000000  0.25000000  0.25000000
   0.00000000  0.00000000  0.00000000

 position of ions in cartesian coordinates  (Angst):
   4.60289919  4.60289919  4.60289919
   1.53429973  1.53429973  1.53429973
   0.00000000  0.00000000  0.00000000



--------------------------------------------------------------------------------------------------------


 k-point  1 :   0.0000 0.0000 0.0000  plane waves:    2421
 k-point  2 :   0.0769 0.0000-0.0000  plane waves:    2427
 k-point  3 :   0.1538-0.0000 0.0000  plane waves:    2445
 k-point  4 :   0.2308 0.0000-0.0000  plane waves:    2442
 k-point  5 :   0.3077-0.0000 0.0000  plane waves:    2442
 k-point  6 :   0.3846 0.0000 0.0000  plane waves:    2434
 k-point  7 :   0.4615-0.0000 0.0000  plane waves:    2443
 k-point  8 :   0.0769 0.0769-0.0000  plane waves:    2441
 k-point  9 :   0.1538 0.0769 0.0000  plane waves:    2434
 k-point 10 :   0.2308 0.0769 0.0000  plane waves:    2437
 k-point 11 :   0.3077 0.0769 0.0000  plane waves:    2445
 k-point 12 :   0.3846 0.0769 0.0000  plane waves:    2432
 k-point 13 :   0.4615 0.0769-0.0000  plane waves:    2435
 k-point 14 :  -0.4615 0.0769-0.0000  plane waves:    2431
 k-point 15 :  -0.3846 0.0769 0.0000  plane waves:    2431
 k-point 16 :  -0.3077 0.0769 0.0000  plane waves:    2435
 k-point 17 :  -0.2308 0.0769-0.0000  plane waves:    2439
 k-point 18 :  -0.1538 0.0769 0.0000  plane waves:    2442
 k-point 19 :  -0.0769 0.0769 0.0000  plane waves:    2439
 k-point 20 :   0.1538 0.1538-0.0000  plane waves:    2445
 k-point 21 :   0.2308 0.1538-0.0000  plane waves:    2444
 k-point 22 :   0.3077 0.1538 0.0000  plane waves:    2445
 k-point 23 :   0.3846 0.1538 0.0000  plane waves:    2437
 k-point 24 :   0.4615 0.1538 0.0000  plane waves:    2434
 k-point 25 :  -0.4615 0.1538-0.0000  plane waves:    2431
 k-point 26 :  -0.3846 0.1538-0.0000  plane waves:    2425
 k-point 27 :  -0.3077 0.1538-0.0000  plane waves:    2433
 k-point 28 :  -0.2308 0.1538 0.0000  plane waves:    2435
 k-point 29 :  -0.1538 0.1538-0.0000  plane waves:    2441
 k-point 30 :   0.2308 0.2308-0.0000  plane waves:    2429
 k-point 31 :   0.3077 0.2308-0.0000  plane waves:    2436
 k-point 32 :   0.3846 0.2308-0.0000  plane waves:    2431
 k-point 33 :   0.4615 0.2308-0.0000  plane waves:    2426
 k-point 34 :  -0.4615 0.2308-0.0000  plane waves:    2422
 k-point 35 :  -0.3846 0.2308 0.0000  plane waves:    2423
 k-point 36 :  -0.3077 0.2308-0.0000  plane waves:    2421
 k-point 37 :  -0.2308 0.2308 0.0000  plane waves:    2427
 k-point 38 :   0.3077 0.3077-0.0000  plane waves:    2425
 k-point 39 :   0.3846 0.3077-0.0000  plane waves:    2428
 k-point 40 :   0.4615 0.3077 0.0000  plane waves:    2435
 k-point 41 :  -0.4615 0.3077-0.0000  plane waves:    2416
 k-point 42 :  -0.3846 0.3077 0.0000  plane waves:    2421
 k-point 43 :  -0.3077 0.3077-0.0000  plane waves:    2423
 k-point 44 :   0.3846 0.3846-0.0000  plane waves:    2430
 k-point 45 :   0.4615 0.3846-0.0000  plane waves:    2432
 k-point 46 :  -0.4615 0.3846-0.0000  plane waves:    2421
 k-point 47 :  -0.3846 0.3846 0.0000  plane waves:    2430
 k-point 48 :   0.4615 0.4615-0.0000  plane waves:    2446
 k-point 49 :  -0.4615 0.4615-0.0000  plane waves:    2434
 k-point 50 :   0.2308 0.1538 0.0769  plane waves:    2442
 k-point 51 :   0.3077 0.1538 0.0769  plane waves:    2437
 k-point 52 :   0.3846 0.1538 0.0769  plane waves:    2441
 k-point 53 :   0.4615 0.1538 0.0769  plane waves:    2432
 k-point 54 :  -0.4615 0.1538 0.0769  plane waves:    2429
 k-point 55 :   0.3077 0.2308 0.0769  plane waves:    2443
 k-point 56 :   0.3846 0.2308 0.0769  plane waves:    2435
 k-point 57 :   0.4615 0.2308 0.0769  plane waves:    2431
 k-point 58 :  -0.4615 0.2308 0.0769  plane waves:    2426
 k-point 59 :  -0.3846 0.2308 0.0769  plane waves:    2419
 k-point 60 :  -0.3077 0.2308 0.0769  plane waves:    2426
 k-point 61 :  -0.2308 0.2308 0.0769  plane waves:    2428
 k-point 62 :  -0.1538 0.2308 0.0769  plane waves:    2432
 k-point 63 :   0.3846 0.3077 0.0769  plane waves:    2433
 k-point 64 :   0.4615 0.3077 0.0769  plane waves:    2421
 k-point 65 :  -0.4615 0.3077 0.0769  plane waves:    2426
 k-point 66 :  -0.3846 0.3077 0.0769  plane waves:    2420
 k-point 67 :  -0.3077 0.3077 0.0769  plane waves:    2429
 k-point 68 :  -0.2308 0.3077 0.0769  plane waves:    2422
 k-point 69 :   0.4615 0.3846 0.0769  plane waves:    2423
 k-point 70 :  -0.4615 0.3846 0.0769  plane waves:    2426
 k-point 71 :  -0.3846 0.3846 0.0769  plane waves:    2419
 k-point 72 :  -0.3077 0.3846 0.0769  plane waves:    2425
 k-point 73 :  -0.4615 0.4615 0.0769  plane waves:    2431
 k-point 74 :  -0.3846 0.4615 0.0769  plane waves:    2418
 k-point 75 :   0.4615 0.3077 0.1538  plane waves:    2429
 k-point 76 :  -0.4615 0.3077 0.1538  plane waves:    2428
 k-point 77 :  -0.3846 0.3077 0.1538  plane waves:    2423
 k-point 78 :  -0.4615 0.3846 0.1538  plane waves:    2427
 k-point 79 :  -0.3846 0.3846 0.1538  plane waves:    2433
 k-point 80 :  -0.3077 0.3846 0.1538  plane waves:    2429
 k-point 81 :  -0.2308 0.3846 0.1538  plane waves:    2432
 k-point 82 :  -0.3846 0.4615 0.1538  plane waves:    2432
 k-point 83 :  -0.3077 0.4615 0.1538  plane waves:    2424
 k-point 84 :  -0.3077 0.4615 0.2308  plane waves:    2431

 maximum and minimum number of plane-waves per node :       623      590

 maximum number of plane-waves:      2446
 maximum index in each direction:
   IXMAX=    9   IYMAX=    9   IZMAX=    9
   IXMIN=   -9   IYMIN=   -9   IZMIN=   -9


 parallel 3D FFT for wavefunctions:
    minimum data exchange during FFTs selected (reduces bandwidth)
 parallel 3D FFT for charge:
    minimum data exchange during FFTs selected (reduces bandwidth)


 total amount of memory used by VASP MPI-rank0    64085. kBytes
=======================================================================

   base      :      30000. kBytes
   nonl-proj :      22673. kBytes
   fftplans  :       5203. kBytes
   grid      :       2732. kBytes
   one-center:         15. kBytes
   wavefun   :       3462. kBytes

     INWAV:  cpu time    0.0003: real time    0.0011
 Broyden mixing: mesh for mixing (old mesh)
   NGX = 19   NGY = 19   NGZ = 19
  (NGX  = 80   NGY  = 80   NGZ  = 80)
  gives a total of   6859 points

 initial charge density was supplied:
 charge density of overlapping atoms calculated
 number of electron      25.0000000 magnetization
 keeping initial charge density in first step


--------------------------------------------------------------------------------------------------------


 Maximum index for augmentation-charges        32847 (set IRDMAX)


--------------------------------------------------------------------------------------------------------


 First call to EWALD:  gamma=   0.458
 Maximum number of real-space cells 3x 3x 3
 Maximum number of reciprocal cells 3x 3x 3

    FEWALD:  cpu time    0.0062: real time    0.0068


--------------------------------------- Iteration      1(   1)  ---------------------------------------


    POTLOK:  cpu time    0.0532: real time    0.1286
    SETDIJ:  cpu time    0.0829: real time    0.0831
     EDDAV:  cpu time    0.9054: real time    0.9169
       DOS:  cpu time    0.0033: real time    0.0037
    --------------------------------------------
      LOOP:  cpu time    1.0453: real time    1.1363

 eigenvalue-minimisations  :  2696
 total energy-change (2. order) : 0.1445964E+03  (-0.1447936E+04)
 number of electron      25.0000000 magnetization
 augmentation part       25.0000000 magnetization

 Free energy of the ion-electron system (eV)
  ---------------------------------------------------
  alpha Z        PSCENC =       117.88866977
  Ewald energy   TEWEN  =     -1620.30255954
  -Hartree energ DENC   =      -304.68104356
  -exchange      EXHF   =         0.00000000
  -V(xc)+E(xc)   XCENC  =       -18.05247606
  PAW double counting   =      1514.36848356    -1421.27055995
  entropy T*S    EENTRO =        -0.00000788
  eigenvalues    EBANDS =       135.54137468
  atomic energy  EATOM  =      1741.10451121
  Solvation  Ediel_sol  =         0.00000000
  ---------------------------------------------------
  free energy    TOTEN  =       144.59639222 eV

  energy without entropy =      144.59640010  energy(sigma->0) =      144.59639616


--------------------------------------------------------------------------------------------------------




--------------------------------------- Iteration      1(   2)  ---------------------------------------


     EDDAV:  cpu time    1.0551: real time    1.0983
       DOS:  cpu time    0.0026: real time    0.0027
    --------------------------------------------
      LOOP:  cpu time    1.0577: real time    1.0995

 eigenvalue-minimisations  :  3384
 total energy-change (2. order) :-0.1644313E+03  (-0.1629368E+03)
 number of electron      25.0000000 magnetization
 augmentation part       25.0000000 magnetization

 Free energy of the ion-electron system (eV)
  ---------------------------------------------------
  alpha Z        PSCENC =       117.88866977
  Ewald energy   TEWEN  =     -1620.30255954
  -Hartree energ DENC   =      -304.68104356
  -exchange      EXHF   =         0.00000000
  -V(xc)+E(xc)   XCENC  =       -18.05247606
  PAW double counting   =      1514.36848356    -1421.27055995
  entropy T*S    EENTRO =        -0.00005231
  eigenvalues    EBANDS =       -28.88985492
  atomic energy  EATOM  =      1741.10451121
  Solvation  Ediel_sol  =         0.00000000
  ---------------------------------------------------
  free energy    TOTEN  =       -19.83488181 eV

  energy without entropy =      -19.83482950  energy(sigma->0) =      -19.83485566


--------------------------------------------------------------------------------------------------------




--------------------------------------- Iteration      1(   3)  ---------------------------------------


     EDDAV:  cpu time    1.1156: real time    1.1372
       DOS:  cpu time    0.0027: real time    0.0033
    --------------------------------------------
      LOOP:  cpu time    1.1183: real time    1.1397

 eigenvalue-minimisations  :  3560
 total energy-change (2. order) :-0.4602756E+01  (-0.4557575E+01)
 number of electron      25.0000000 magnetization
 augmentation part       25.0000000 magnetization

 Free energy of the ion-electron system (eV)
  ---------------------------------------------------
  alpha Z        PSCENC =       117.88866977
  Ewald energy   TEWEN  =     -1620.30255954
  -Hartree energ DENC   =      -304.68104356
  -exchange      EXHF   =         0.00000000
  -V(xc)+E(xc)   XCENC  =       -18.05247606
  PAW double counting   =      1514.36848356    -1421.27055995
  entropy T*S    EENTRO =        -0.00035558
  eigenvalues    EBANDS =       -33.49230769
  atomic energy  EATOM  =      1741.10451121
  Solvation  Ediel_sol  =         0.00000000
  ---------------------------------------------------
  free energy    TOTEN  =       -24.43763786 eV

  energy without entropy =      -24.43728228  energy(sigma->0) =      -24.43746007


--------------------------------------------------------------------------------------------------------




--------------------------------------- Iteration      1(   4)  ---------------------------------------


     EDDAV:  cpu time    1.0760: real time    1.1119
       DOS:  cpu time    0.0026: real time    0.0029
    --------------------------------------------
      LOOP:  cpu time    1.0787: real time    1.1149

 eigenvalue-minimisations  :  3368
 total energy-change (2. order) :-0.6422907E-01  (-0.6178997E-01)
 number of electron      25.0000000 magnetization
 augmentation part       25.0000000 magnetization

 Free energy of the ion-electron system (eV)
  ---------------------------------------------------
  alpha Z        PSCENC =       117.88866977
  Ewald energy   TEWEN  =     -1620.30255954
  -Hartree energ DENC   =      -304.68104356
  -exchange      EXHF   =         0.00000000
  -V(xc)+E(xc)   XCENC  =       -18.05247606
  PAW double counting   =      1514.36848356    -1421.27055995
  entropy T*S    EENTRO =        -0.00045887
  eigenvalues    EBANDS =       -33.55643348
  atomic energy  EATOM  =      1741.10451121
  Solvation  Ediel_sol  =         0.00000000
  ---------------------------------------------------
  free energy    TOTEN  =       -24.50186693 eV

  energy without entropy =      -24.50140806  energy(sigma->0) =      -24.50163749


--------------------------------------------------------------------------------------------------------




--------------------------------------- Iteration      1(   5)  ---------------------------------------


     EDDAV:  cpu time    1.1256: real time    1.1564
       DOS:  cpu time    0.0026: real time    0.0027
    CHARGE:  cpu time    0.2691: real time    0.2694
    MIXING:  cpu time    0.0047: real time    0.0062
    --------------------------------------------
      LOOP:  cpu time    1.4021: real time    1.4349

 eigenvalue-minimisations  :  3608
 total energy-change (2. order) :-0.1383141E-02  (-0.1382869E-02)
 number of electron      25.0000000 magnetization
 augmentation part        4.7981341 magnetization

 Broyden mixing:
  rms(total) = 0.50655E+01    rms(broyden)= 0.50655E+01
  rms(prec ) = 0.52211E+01
  weight for this iteration     100.00

 Free energy of the ion-electron system (eV)
  ---------------------------------------------------
  alpha Z        PSCENC =       117.88866977
  Ewald energy   TEWEN  =     -1620.30255954
  -Hartree energ DENC   =      -304.68104356
  -exchange      EXHF   =         0.00000000
  -V(xc)+E(xc)   XCENC  =       -18.05247606
  PAW double counting   =      1514.36848356    -1421.27055995
  entropy T*S    EENTRO =        -0.00045715
  eigenvalues    EBANDS =       -33.55781834
  atomic energy  EATOM  =      1741.10451121
  Solvation  Ediel_sol  =         0.00000000
  ---------------------------------------------------
  free energy    TOTEN  =       -24.50325007 eV

  energy without entropy =      -24.50279292  energy(sigma->0) =      -24.50302149


--------------------------------------------------------------------------------------------------------




--------------------------------------- Iteration      1(   6)  ---------------------------------------


    POTLOK:  cpu time    0.0471: real time    0.0717
    SETDIJ:  cpu time    0.0930: real time    0.0931
     EDDAV:  cpu time    1.0778: real time    1.0779
       DOS:  cpu time    0.0025: real time    0.0027
    CHARGE:  cpu time    0.2168: real time    0.2169
    MIXING:  cpu time    0.0058: real time    0.0063
    --------------------------------------------
      LOOP:  cpu time    1.4428: real time    1.4681

 eigenvalue-minimisations  :  3472
 total energy-change (2. order) : 0.6088159E+00  (-0.1288055E+00)
 number of electron      25.0000000 magnetization
 augmentation part        4.9721335 magnetization

 Broyden mixing:
  rms(total) = 0.30109E+01    rms(broyden)= 0.30109E+01
  rms(prec ) = 0.30574E+01
  weight for this iteration     100.00

 eigenvalues of (default mixing * dielectric matrix)
  average eigenvalue GAMMA=   2.4278
  2.4278

 Free energy of the ion-electron system (eV)
  ---------------------------------------------------
  alpha Z        PSCENC =       117.88866977
  Ewald energy   TEWEN  =     -1620.30255954
  -Hartree energ DENC   =      -291.54695144
  -exchange      EXHF   =         0.00000000
  -V(xc)+E(xc)   XCENC  =       -18.47568572
  PAW double counting   =      2099.75856183    -2009.43404882
  entropy T*S    EENTRO =        -0.00004417
  eigenvalues    EBANDS =       -42.88688733
  atomic energy  EATOM  =      1741.10451121
  Solvation  Ediel_sol  =         0.00000000
  ---------------------------------------------------
  free energy    TOTEN  =       -23.89443421 eV

  energy without entropy =      -23.89439005  energy(sigma->0) =      -23.89441213


--------------------------------------------------------------------------------------------------------




--------------------------------------- Iteration      1(   7)  ---------------------------------------


    POTLOK:  cpu time    0.0344: real time    0.0632
    SETDIJ:  cpu time    0.0807: real time    0.0808
     EDDAV:  cpu time    1.1090: real time    1.1092
       DOS:  cpu time    0.0027: real time    0.0033
    CHARGE:  cpu time    0.1742: real time    0.1744
    MIXING:  cpu time    0.0053: real time    0.0054
    --------------------------------------------
      LOOP:  cpu time    1.4064: real time    1.4364

 eigenvalue-minimisations  :  3608
 total energy-change (2. order) : 0.1313816E+00  (-0.8326890E-01)
 number of electron      25.0000000 magnetization
 augmentation part        4.9859766 magnetization

 Broyden mixing:
  rms(total) = 0.41497E+00    rms(broyden)= 0.41497E+00
  rms(prec ) = 0.54118E+00
  weight for this iteration     100.00

 eigenvalues of (default mixing * dielectric matrix)
  average eigenvalue GAMMA=   1.8498
  1.0874  2.6122

 Free energy of the ion-electron system (eV)
  ---------------------------------------------------
  alpha Z        PSCENC =       117.88866977
  Ewald energy   TEWEN  =     -1620.30255954
  -Hartree energ DENC   =      -284.41073932
  -exchange      EXHF   =         0.00000000
  -V(xc)+E(xc)   XCENC  =       -18.62297664
  PAW double counting   =      3042.63871602    -2955.65943381
  entropy T*S    EENTRO =        -0.00036058
  eigenvalues    EBANDS =       -46.39887966
  atomic energy  EATOM  =      1741.10451121
  Solvation  Ediel_sol  =         0.00000000
  ---------------------------------------------------
  free energy    TOTEN  =       -23.76305257 eV

  energy without entropy =      -23.76269198  energy(sigma->0) =      -23.76287227


--------------------------------------------------------------------------------------------------------




--------------------------------------- Iteration      1(   8)  ---------------------------------------


    POTLOK:  cpu time    0.0428: real time    0.0663
    SETDIJ:  cpu time    0.0833: real time    0.0834
     EDDAV:  cpu time    1.0659: real time    1.0668
       DOS:  cpu time    0.0026: real time    0.0032
    CHARGE:  cpu time    0.1868: real time    0.1869
    MIXING:  cpu time    0.0037: real time    0.0038
    --------------------------------------------
      LOOP:  cpu time    1.3852: real time    1.4097

 eigenvalue-minimisations  :  3512
 total energy-change (2. order) : 0.3416683E-01  (-0.3150190E-01)
 number of electron      25.0000000 magnetization
 augmentation part        5.0341734 magnetization

 Broyden mixing:
  rms(total) = 0.96905E-01    rms(broyden)= 0.96905E-01
  rms(prec ) = 0.16254E+00
  weight for this iteration     100.00

 eigenvalues of (default mixing * dielectric matrix)
  average eigenvalue GAMMA=   1.5551
  2.5529  1.4595  0.6529

 Free energy of the ion-electron system (eV)
  ---------------------------------------------------
  alpha Z        PSCENC =       117.88866977
  Ewald energy   TEWEN  =     -1620.30255954
  -Hartree energ DENC   =      -284.09289700
  -exchange      EXHF   =         0.00000000
  -V(xc)+E(xc)   XCENC  =       -18.60228119
  PAW double counting   =      3130.65040532    -3043.85188794
  entropy T*S    EENTRO =        -0.00014944
  eigenvalues    EBANDS =       -46.52269691
  atomic energy  EATOM  =      1741.10451121
  Solvation  Ediel_sol  =         0.00000000
  ---------------------------------------------------
  free energy    TOTEN  =       -23.72888573 eV

  energy without entropy =      -23.72873629  energy(sigma->0) =      -23.72881101


--------------------------------------------------------------------------------------------------------




--------------------------------------- Iteration      1(   9)  ---------------------------------------


    POTLOK:  cpu time    0.0327: real time    0.0578
    SETDIJ:  cpu time    0.0811: real time    0.0812
     EDDAV:  cpu time    0.9550: real time    0.9552
       DOS:  cpu time    0.0025: real time    0.0027
    CHARGE:  cpu time    0.1732: real time    0.1733
    MIXING:  cpu time    0.0038: real time    0.0039
    --------------------------------------------
      LOOP:  cpu time    1.2483: real time    1.2747

 eigenvalue-minimisations  :  3016
 total energy-change (2. order) : 0.4639133E-02  (-0.3490097E-02)
 number of electron      25.0000000 magnetization
 augmentation part        5.0109443 magnetization

 Broyden mixing:
  rms(total) = 0.48474E-01    rms(broyden)= 0.48474E-01
  rms(prec ) = 0.56648E-01
  weight for this iteration     100.00

 eigenvalues of (default mixing * dielectric matrix)
  average eigenvalue GAMMA=   1.4234
  2.3929  1.3914  1.2509  0.6586

 Free energy of the ion-electron system (eV)
  ---------------------------------------------------
  alpha Z        PSCENC =       117.88866977
  Ewald energy   TEWEN  =     -1620.30255954
  -Hartree energ DENC   =      -285.47299642
  -exchange      EXHF   =         0.00000000
  -V(xc)+E(xc)   XCENC  =       -18.55021825
  PAW double counting   =      3116.42027898    -3029.53415642
  entropy T*S    EENTRO =        -0.00018436
  eigenvalues    EBANDS =       -45.27759157
  atomic energy  EATOM  =      1741.10451121
  Solvation  Ediel_sol  =         0.00000000
  ---------------------------------------------------
  free energy    TOTEN  =       -23.72424660 eV

  energy without entropy =      -23.72406224  energy(sigma->0) =      -23.72415442


--------------------------------------------------------------------------------------------------------




--------------------------------------- Iteration      1(  10)  ---------------------------------------


    POTLOK:  cpu time    0.0422: real time    0.0663
    SETDIJ:  cpu time    0.0813: real time    0.0816
     EDDAV:  cpu time    1.1072: real time    1.1075
       DOS:  cpu time    0.0027: real time    0.0029
    CHARGE:  cpu time    0.1729: real time    0.1730
    MIXING:  cpu time    0.0079: real time    0.0080
    --------------------------------------------
      LOOP:  cpu time    1.4143: real time    1.4390

 eigenvalue-minimisations  :  3640
 total energy-change (2. order) : 0.1122748E-03  (-0.2473746E-03)
 number of electron      25.0000000 magnetization
 augmentation part        5.0076454 magnetization

 Broyden mixing:
  rms(total) = 0.21172E-01    rms(broyden)= 0.21172E-01
  rms(prec ) = 0.24715E-01
  weight for this iteration     100.00

 eigenvalues of (default mixing * dielectric matrix)
  average eigenvalue GAMMA=   1.3928
  2.4320  1.8210  0.6844  1.0653  0.9612

 Free energy of the ion-electron system (eV)
  ---------------------------------------------------
  alpha Z        PSCENC =       117.88866977
  Ewald energy   TEWEN  =     -1620.30255954
  -Hartree energ DENC   =      -285.52065413
  -exchange      EXHF   =         0.00000000
  -V(xc)+E(xc)   XCENC  =       -18.54995218
  PAW double counting   =      3107.89098418    -3020.91163478
  entropy T*S    EENTRO =        -0.00020603
  eigenvalues    EBANDS =       -45.32329282
  atomic energy  EATOM  =      1741.10451121
  Solvation  Ediel_sol  =         0.00000000
  ---------------------------------------------------
  free energy    TOTEN  =       -23.72413433 eV

  energy without entropy =      -23.72392830  energy(sigma->0) =      -23.72403131


--------------------------------------------------------------------------------------------------------




--------------------------------------- Iteration      1(  11)  ---------------------------------------


    POTLOK:  cpu time    0.0361: real time    0.0576
    SETDIJ:  cpu time    0.0815: real time    0.0817
     EDDAV:  cpu time    1.0842: real time    1.0845
       DOS:  cpu time    0.0027: real time    0.0029
    CHARGE:  cpu time    0.1725: real time    0.1726
    MIXING:  cpu time    0.0059: real time    0.0059
    --------------------------------------------
      LOOP:  cpu time    1.3829: real time    1.4046

 eigenvalue-minimisations  :  3384
 total energy-change (2. order) : 0.3270647E-04  (-0.2156660E-04)
 number of electron      25.0000000 magnetization
 augmentation part        5.0088867 magnetization

 Broyden mixing:
  rms(total) = 0.65861E-02    rms(broyden)= 0.65861E-02
  rms(prec ) = 0.69305E-02
  weight for this iteration     100.00

 eigenvalues of (default mixing * dielectric matrix)
  average eigenvalue GAMMA=   1.4590
  2.4689  2.3092  1.2955  0.6939  0.9931  0.9931

 Free energy of the ion-electron system (eV)
  ---------------------------------------------------
  alpha Z        PSCENC =       117.88866977
  Ewald energy   TEWEN  =     -1620.30255954
  -Hartree energ DENC   =      -285.54776399
  -exchange      EXHF   =         0.00000000
  -V(xc)+E(xc)   XCENC  =       -18.54670134
  PAW double counting   =      3113.11233247    -3026.11745092
  entropy T*S    EENTRO =        -0.00020894
  eigenvalues    EBANDS =       -45.31493033
  atomic energy  EATOM  =      1741.10451121
  Solvation  Ediel_sol  =         0.00000000
  ---------------------------------------------------
  free energy    TOTEN  =       -23.72410162 eV

  energy without entropy =      -23.72389268  energy(sigma->0) =      -23.72399715


--------------------------------------------------------------------------------------------------------




--------------------------------------- Iteration      1(  12)  ---------------------------------------


    POTLOK:  cpu time    0.0541: real time    0.0730
    SETDIJ:  cpu time    0.0802: real time    0.0804
     EDDAV:  cpu time    1.0163: real time    1.0165
       DOS:  cpu time    0.0026: real time    0.0028
    CHARGE:  cpu time    0.1731: real time    0.1732
    MIXING:  cpu time    0.0049: real time    0.0049
    --------------------------------------------
      LOOP:  cpu time    1.3311: real time    1.3521

 eigenvalue-minimisations  :  3176
 total energy-change (2. order) :-0.3168995E-05  (-0.1397248E-05)
 number of electron      25.0000000 magnetization
 augmentation part        5.0088820 magnetization

 Broyden mixing:
  rms(total) = 0.81315E-03    rms(broyden)= 0.81314E-03
  rms(prec ) = 0.13942E-02
  weight for this iteration     100.00

 eigenvalues of (default mixing * dielectric matrix)
  average eigenvalue GAMMA=   1.4512
  2.4974  2.3365  1.5935  1.2218  0.7010  0.9040  0.9040

 Free energy of the ion-electron system (eV)
  ---------------------------------------------------
  alpha Z        PSCENC =       117.88866977
  Ewald energy   TEWEN  =     -1620.30255954
  -Hartree energ DENC   =      -285.56169337
  -exchange      EXHF   =         0.00000000
  -V(xc)+E(xc)   XCENC  =       -18.54530956
  PAW double counting   =      3115.36573739    -3028.36248084
  entropy T*S    EENTRO =        -0.00020936
  eigenvalues    EBANDS =       -45.31077047
  atomic energy  EATOM  =      1741.10451121
  Solvation  Ediel_sol  =         0.00000000
  ---------------------------------------------------
  free energy    TOTEN  =       -23.72410479 eV

  energy without entropy =      -23.72389543  energy(sigma->0) =      -23.72400011


--------------------------------------------------------------------------------------------------------




--------------------------------------- Iteration      1(  13)  ---------------------------------------


    POTLOK:  cpu time    0.0621: real time    0.0741
    SETDIJ:  cpu time    0.0808: real time    0.0809
     EDDAV:  cpu time    1.1359: real time    1.1362
       DOS:  cpu time    0.0026: real time    0.0029
    CHARGE:  cpu time    0.1744: real time    0.1745
    MIXING:  cpu time    0.0044: real time    0.0044
    --------------------------------------------
      LOOP:  cpu time    1.4603: real time    1.4762

 eigenvalue-minimisations  :  3768
 total energy-change (2. order) : 0.5648888E-06  (-0.2338207E-06)
 number of electron      25.0000000 magnetization
 augmentation part        5.0089189 magnetization

 Broyden mixing:
  rms(total) = 0.69795E-03    rms(broyden)= 0.69795E-03
  rms(prec ) = 0.76526E-03
  weight for this iteration     100.00

 eigenvalues of (default mixing * dielectric matrix)
  average eigenvalue GAMMA=   1.5091
  2.5881  2.5881  2.1337  1.1558  1.1558  0.7016  0.8748  0.8748

 Free energy of the ion-electron system (eV)
  ---------------------------------------------------
  alpha Z        PSCENC =       117.88866977
  Ewald energy   TEWEN  =     -1620.30255954
  -Hartree energ DENC   =      -285.56576318
  -exchange      EXHF   =         0.00000000
  -V(xc)+E(xc)   XCENC  =       -18.54503067
  PAW double counting   =      3115.40999631    -3028.40467768
  entropy T*S    EENTRO =        -0.00020906
  eigenvalues    EBANDS =       -45.30904138
  atomic energy  EATOM  =      1741.10451121
  Solvation  Ediel_sol  =         0.00000000
  ---------------------------------------------------
  free energy    TOTEN  =       -23.72410422 eV

  energy without entropy =      -23.72389517  energy(sigma->0) =      -23.72399970


--------------------------------------------------------------------------------------------------------




--------------------------------------- Iteration      1(  14)  ---------------------------------------


    POTLOK:  cpu time    0.0448: real time    0.0655
    SETDIJ:  cpu time    0.0799: real time    0.0800
     EDDAV:  cpu time    0.8320: real time    0.8322
       DOS:  cpu time    0.0024: real time    0.0026
    CHARGE:  cpu time    0.1739: real time    0.1739
    MIXING:  cpu time    0.0048: real time    0.0049
    --------------------------------------------
      LOOP:  cpu time    1.1378: real time    1.1544

 eigenvalue-minimisations  :  2440
 total energy-change (2. order) : 0.3393193E-06  (-0.2349234E-07)
 number of electron      25.0000000 magnetization
 augmentation part        5.0089327 magnetization

 Broyden mixing:
  rms(total) = 0.14306E-03    rms(broyden)= 0.14303E-03
  rms(prec ) = 0.16827E-03
  weight for this iteration     100.00

 eigenvalues of (default mixing * dielectric matrix)
  average eigenvalue GAMMA=   1.4837
  2.5305  2.5305  2.1622  1.4569  1.1506  1.0843  0.7022  0.8680  0.8680

 Free energy of the ion-electron system (eV)
  ---------------------------------------------------
  alpha Z        PSCENC =       117.88866977
  Ewald energy   TEWEN  =     -1620.30255954
  -Hartree energ DENC   =      -285.56380662
  -exchange      EXHF   =         0.00000000
  -V(xc)+E(xc)   XCENC  =       -18.54506020
  PAW double counting   =      3115.41369357    -3028.40651811
  entropy T*S    EENTRO =        -0.00020916
  eigenvalues    EBANDS =       -45.31282480
  atomic energy  EATOM  =      1741.10451121
  Solvation  Ediel_sol  =         0.00000000
  ---------------------------------------------------
  free energy    TOTEN  =       -23.72410388 eV

  energy without entropy =      -23.72389472  energy(sigma->0) =      -23.72399930


--------------------------------------------------------------------------------------------------------




--------------------------------------- Iteration      1(  15)  ---------------------------------------


    POTLOK:  cpu time    0.0420: real time    0.0627
    SETDIJ:  cpu time    0.0783: real time    0.0784
     EDDAV:  cpu time    0.7520: real time    0.7522
       DOS:  cpu time    0.0025: real time    0.0026
    --------------------------------------------
      LOOP:  cpu time    0.8747: real time    0.8958

 eigenvalue-minimisations  :  1952
 total energy-change (2. order) :-0.6180767E-07  (-0.1651348E-08)
 number of electron      25.0000000 magnetization
 augmentation part        5.0089327 magnetization

 Free energy of the ion-electron system (eV)
  ---------------------------------------------------
  alpha Z        PSCENC =       117.88866977
  Ewald energy   TEWEN  =     -1620.30255954
  -Hartree energ DENC   =      -285.56460300
  -exchange      EXHF   =         0.00000000
  -V(xc)+E(xc)   XCENC  =       -18.54501063
  PAW double counting   =      3115.50325848    -3028.49626657
  entropy T*S    EENTRO =        -0.00020914
  eigenvalues    EBANDS =       -45.31189451
  atomic energy  EATOM  =      1741.10451121
  Solvation  Ediel_sol  =         0.00000000
  ---------------------------------------------------
  free energy    TOTEN  =       -23.72410395 eV

  energy without entropy =      -23.72389480  energy(sigma->0) =      -23.72399937


--------------------------------------------------------------------------------------------------------




 average (electrostatic) potential at core
  the test charge radii are     1.1707  1.1712  1.2059
  (the norm of the test charge is              1.0000)
       1 -32.9943       2 -83.4035       3 -65.3533



 E-fermi :  10.4764     XC(G=0): -11.8677     alpha+bet :-15.1478


 k-point     1 :       0.0000    0.0000    0.0000
  band No.  band energies     occupation
      1     -21.6523      2.00000
      2     -21.6523      2.00000
      3     -21.6523      2.00000
      4      -3.3046      2.00000
      5       3.6510      2.00000
      6       3.6510      2.00000
      7       3.6510      2.00000
      8       4.4551      2.00000
      9       4.4551      2.00000
     10       8.4735      2.00000
     11       8.4735      2.00000
     12       8.4735      2.00000
     13      10.1186      2.00000
     14      11.4189      0.00000
     15      11.4189      0.00000
     16      11.4189      0.00000

 k-point     2 :       0.0769    0.0000   -0.0000
  band No.  band energies     occupation
      1     -21.6541      2.00000
      2     -21.6521      2.00000
      3     -21.6521      2.00000
      4      -3.2290      2.00000
      5       3.5760      2.00000
      6       3.6072      2.00000
      7       3.6072      2.00000
      8       4.5128      2.00000
      9       4.5128      2.00000
     10       7.9716      2.00000
     11       8.4082      2.00000
     12       8.4082      2.00000
     13      10.1869      2.00000
     14      11.2405      0.00000
     15      11.2405      0.00000
     16      11.9209      0.00000

 k-point     3 :       0.1538   -0.0000    0.0000
  band No.  band energies     occupation
      1     -21.6592      2.00000
      2     -21.6517      2.00000
      3     -21.6517      2.00000
      4      -3.0099      2.00000
      5       3.3656      2.00000
      6       3.5186      2.00000
      7       3.5186      2.00000
      8       4.6339      2.00000
      9       4.6339      2.00000
     10       7.0478      2.00000
     11       8.2459      2.00000
     12       8.2459      2.00000
     13      10.2858      2.00000
     14      11.1189      0.00000
     15      11.1189      0.00000
     16      12.7171      0.00000

 k-point     4 :       0.2308    0.0000   -0.0000
  band No.  band energies     occupation
      1     -21.6662      2.00000
      2     -21.6511      2.00000
      3     -21.6511      2.00000
      4      -2.6722      2.00000
      5       3.0510      2.00000
      6       3.4420      2.00000
      7       3.4420      2.00000
      8       4.7382      2.00000
      9       4.7382      2.00000
     10       6.1707      2.00000
     11       8.0619      2.00000
     12       8.0619      2.00000
     13      10.3838      2.00000
     14      11.1358      0.00000
     15      11.1358      0.00000
     16      13.4387      0.00000

 k-point     5 :       0.3077   -0.0000    0.0000
  band No.  band energies     occupation
      1     -21.6735      2.00000
      2     -21.6504      2.00000
      3     -21.6504      2.00000
      4      -2.2627      2.00000
      5       2.6678      2.00000
      6       3.4005      2.00000
      7       3.4005      2.00000
      8       4.7816      2.00000
      9       4.7816      2.00000
     10       5.4908      2.00000
     11       7.9212      2.00000
     12       7.9212      2.00000
     13      10.4791      0.70505
     14      11.2612      0.00000
     15      11.2612      0.00000
     16      12.9480      0.00000

 k-point     6 :       0.3846    0.0000    0.0000
  band No.  band energies     occupation
      1     -21.6794      2.00000
      2     -21.6499      2.00000
      3     -21.6499      2.00000
      4      -1.8619      2.00000
      5       2.2814      2.00000
      6       3.3913      2.00000
      7       3.3913      2.00000
      8       4.7684      2.00000
      9       4.7684      2.00000
     10       5.0544      2.00000
     11       7.8453      2.00000
     12       7.8453      2.00000
     13      10.5750      0.00000
     14      11.4440      0.00000
     15      11.4440      0.00000
     16      12.1266      0.00000

 k-point     7 :       0.4615   -0.0000    0.0000
  band No.  band energies     occupation
      1     -21.6828      2.00000
      2     -21.6496      2.00000
      3     -21.6496      2.00000
      4      -1.5963      2.00000
      5       2.0189      2.00000
      6       3.3961      2.00000
      7       3.3961      2.00000
      8       4.7411      2.00000
      9       4.7411      2.00000
     10       4.8490      2.00000
     11       7.8179      2.00000
     12       7.8179      2.00000
     13      10.6617      0.00000
     14      11.5914      0.00000
     15      11.5914      0.00000
     16      11.6361      0.00000

 k-point     8 :       0.0769    0.0769   -0.0000
  band No.  band energies     occupation
      1     -21.6541      2.00000
      2     -21.6524      2.00000
      3     -21.6524      2.00000
      4      -3.2042      2.00000
      5       3.3966      2.00000
      6       3.6853      2.00000
      7       3.6853      2.00000
      8       4.4928      2.00000
      9       4.5445      2.00000
     10       8.0469      2.00000
     11       8.2671      2.00000
     12       8.2671      2.00000
     13      10.1787      2.00000
     14      11.1852      0.00000
     15      11.6761      0.00000
     16      11.7305      0.00000

 k-point     9 :       0.1538    0.0769    0.0000
  band No.  band energies     occupation
      1     -21.6578      2.00000
      2     -21.6524      2.00000
      3     -21.6520      2.00000
      4      -3.0343      2.00000
      5       3.1692      2.00000
      6       3.6548      2.00000
      7       3.6775      2.00000
      8       4.5758      2.00000
      9       4.6270      2.00000
     10       7.3326      2.00000
     11       8.0695      2.00000
     12       8.1686      2.00000
     13      10.3030      2.00000
     14      11.0183      0.00000
     15      11.4072      0.00000
     16      12.3109      0.00000

 k-point    10 :       0.2308    0.0769    0.0000
  band No.  band energies     occupation
      1     -21.6640      2.00000
      2     -21.6520      2.00000
      3     -21.6515      2.00000
      4      -2.7385      2.00000
      5       2.9302      2.00000
      6       3.5363      2.00000
      7       3.6253      2.00000
      8       4.6875      2.00000
      9       4.7252      2.00000
     10       6.4663      2.00000
     11       7.8913      2.00000
     12       8.0057      2.00000
     13      10.5214      0.00000
     14      10.9737      0.00000
     15      11.2591      0.00000
     16      12.9544      0.00000

 k-point    11 :       0.3077    0.0769    0.0000
  band No.  band energies     occupation
      1     -21.6711      2.00000
      2     -21.6514      2.00000
      3     -21.6510      2.00000
      4      -2.3564      2.00000
      5       2.6620      2.00000
      6       3.4138      2.00000
      7       3.5715      2.00000
      8       4.7534      2.00000
      9       4.7907      2.00000
[...]
  212              fftbas_plan_mpi                       0.062435                     12   6
  213                dfftw_execute                         0.025898                   36   7
  214                map_backward                          0.004053                   12   7
  215                  map_gather                            0.000742                  6   8
  216                  m_alltoallv_z                         0.001873                  6   8
  217                  map_scatter                           0.001152                  6   8
  218                map_forward                           0.029341                   12   7
  219                  map_gather                            0.016110                  6   8
  220                  m_alltoallv_z                         0.006367                  6   8
  221                  map_scatter                           0.006534                  6   8
  222            M_sumb_d                              0.006321                        6   5
  223          M_sumb_d                              0.000027                          1   4
  224        setdij_                               1.367847                           20   3
  225          fft3d_mpi                             0.219526                         40   4
  226            fftbas_plan_mpi                       0.201415                       40   5
  227              dfftw_execute                         0.087735                    120   6
  228              map_backward                          0.013260                     40   6
  229                map_gather                            0.002683                   20   7
  230                m_alltoallv_z                         0.005837                   20   7
  231                map_scatter                           0.003787                   20   7
  232              map_forward                           0.089917                     40   6
  233                map_gather                            0.050901                   20   7
  234                m_alltoallv_z                         0.016808                   20   7
  235                map_scatter                           0.021195                   20   7
  236          M_sumb_d                              0.015779                         20   4
  237        set_dd_magatom                        0.000003                            1   3
  238        set_dd_paw                            0.013250                            1   3
  239          set_rsgf_all                          0.000004                          1   4
  240          M_sumb_d                              0.013103                          8   4
  241        strkin                                0.000429                            1   3
  242          M_sumb_d                              0.000077                          1   4
  243        strelo                                0.002633                            1   3
  244          M_sumb_d                              0.000295                          2   4
  245        strenl                                0.620571                            1   3
  246          spher                                 0.495895                         19   4
  247          phase                                 0.010301                        189   4
  248          proj1                                 0.100612                        756   4
  249            crexp_mul_wave                        0.016548                     2268   5
  250            M_sumb_d                              0.023807                      756   5
  251          M_sumb_d                              0.002345                          1   4
  252        M_sumb_d                              0.000222                            6   3
  253        fft3d_mpi                             0.015126                           11   3
  254          fftbas_plan_mpi                       0.014079                         11   4
  255            dfftw_execute                         0.004880                       33   5
  256            map_forward                           0.002851                       10   5
  257              map_gather                            0.000579                      5   6
  258              m_alltoallv_z                         0.001311                      5   6
  259              map_scatter                           0.000723                      5   6
  260            map_backward                          0.003758                       12   5
  261              map_gather                            0.000737                      6   6
  262              m_alltoallv_z                         0.001594                      6   6
  263              map_scatter                           0.001128                      6   6
  264        ggaall_grid                           0.001558                            1   3
  265        forhar                                0.005943                            2   3
  266          M_sumb_d                              0.000248                          2   4
  267        strehar                               0.002731                            1   3
  268          M_sumb_d                              0.000197                          1   4
  269        chggra                                0.005845                            1   3
  270          fft3d_mpi                             0.003970                          3   4
  271            fftbas_plan_mpi                       0.003700                        3   5
  272              dfftw_execute                         0.001335                      9   6
  273              map_backward                          0.000618                      2   6
  274                map_gather                            0.000122                    1   7
  275                m_alltoallv_z                         0.000252                    1   7
  276                map_scatter                           0.000190                    1   7
  277              map_forward                           0.001030                      4   6
  278                map_gather                            0.000236                    2   7
  279                m_alltoallv_z                         0.000443                    2   7
  280                map_scatter                           0.000252                    2   7
  281          M_sumb_d                              0.000137                          3   4
  282        brmix                                 0.015334                            1   3
  283          M_sumb_d                              0.000245                          6   4
  284          brpre                                 0.000049                          1   4
  285          setg0                                 0.001462                          1   4
  286          broyd                                 0.001968                          1   4
  287            M_sumb_d                              0.000576                       17   5
  288            brsav                                 0.000097                       16   5
  289            brget                                 0.000280                       59   5
  290          M_bcast_z                             0.010657                          1   4
  291          M_bcast_d                             0.000059                          1   4
  292        M_bcast_d                             0.000087                            2   3
  293      potlok                                0.027296                              1   2
  294        fft3d_mpi                             0.019157                           13   3
  295          fftbas_plan_mpi                       0.017895                         13   4
  296            dfftw_execute                         0.005854                       39   5
  297            map_forward                           0.004463                       14   5
  298              map_gather                            0.000958                      8   6
  299              m_alltoallv_z                         0.002158                      8   6
  300              map_scatter                           0.000984                      8   6
  301            map_backward                          0.004345                       12   5
  302              map_gather                            0.000923                      6   6
  303              m_alltoallv_z                         0.001802                      6   6
  304              map_scatter                           0.001317                      6   6
  305        ggaall_grid                           0.001536                            1   3
  306        M_sumb_d                              0.000259                            6   3
  307        M_bcast_d                             0.000106                            1   3
  308      potlok_metagga                        0.000005                              1   2
  309      set_dd_magatom                        0.000003                              1   2
  310      set_dd_paw                            0.000378                              1   2
  311        set_rsgf_all                          0.000004                            1   3
  312        M_sumb_d                              0.000232                            8   3
  313      densta                                0.001849                              1   2
  314        M_sumb_d                              0.000755                           38   3
  315      lprj_proall                           0.000008                              1   2

 Flat profile
 ============

             routine name                   CPU           calls
 ---------------------------------------------------------------
 total_time                             11.952123           1
 eddav                                   2.897790          15
 dfftw_execute                           2.878158       29112
 setdij_                                 2.342718          39
 fftbas_plan_mpi                         1.947827        9706
 M_sumb_d                                1.464967       27437
 set_charge                              1.163330          11
 m_alltoallv_z                           1.110793        9727
 elmin                                   1.028338           1
 pdssyex_zheevx                          0.639708         315
 M_alltoall_d                            0.638267       31808
 spher                                   0.564085          20
 orth1                                   0.456975        6477
 vhamil                                  0.435085        4304
 map_gather                              0.397579        9727
 proj1                                   0.373887        3884
 fftwav_mpi                              0.367734        5129
 map_forward                             0.366406       10520
 map_scatter                             0.349395        9727
 gemm                                    0.314443       12912
 M_bcast_z                               0.302386        3861
 crpa_reader                             0.289387           1
 vnlac0                                  0.283657        4304
 redis_pw                                0.262735       12324
 hamiltmu                                0.232409        2152
 redis_proj                              0.231831       15389
 fft3d_mpi                               0.180760        9704
 w1_copy                                 0.162926       12912
 map_backward                            0.155596        8888
 work_mul_crexp                          0.133927       12912
 fftext_mpi                              0.130677        4304
 eccp                                    0.110279        1260
 crexp_mul_wave                          0.096721       11652
 kinhamil                                0.083120        4304
 overl                                   0.081332        7369
 potlok                                  0.077194          12
 M_bcast_d                               0.070352        2182
 overl1                                  0.051467        4304
 force_and_stress                        0.051454           1
 pw_charge                               0.049679         825
 lincom                                  0.044416         336
 setup_precond                           0.041383        1260
 apply_precond                           0.037600        3044
 w1_projall                              0.031937        1522
 phase                                   0.030360         547
 soft_charge                             0.021312          11
 ggaall_grid                             0.019988          13
 truncate_high_frequency_w1              0.018894        5564
 fornl                                   0.018236           1
 densta                                  0.018162          16
 setg0                                   0.012966          12
 strenl                                  0.011419           1
 brmix                                   0.010765          11
 broyd                                   0.006814          11
 forhar                                  0.005695           2
 forloc                                  0.003123           1
 set_dd_paw                              0.002891          13
 depsum                                  0.002682          11
 strehar                                 0.002534           1
 strelo                                  0.002338           1
 orthch                                  0.001928           1
 chggra                                  0.001738           1
 brget                                   0.001653         368
 brgrid                                  0.001181           1
 proj                                    0.000938          21
 choleski                                0.000889          21
 brsav                                   0.000838         112
 brpre                                   0.000657          11
 strkin                                  0.000352           1
 fordep                                  0.000125           1
 vectorpot                               0.000068          12
 set_rsgf_all                            0.000063          13
 potlok_metagga                          0.000052          12
 set_dd_magatom                          0.000048          13
 set_kineden                             0.000036          10
 rotate_active_occupied_orbital          0.000015           1
 lprj_proall                             0.000008           1
 redis_pw_over_bands                     0.000004           1
 ---------------------------------------------------------------
  summed up times    35.0816059112549

 Accumulative profile
 ====================

             routine name                   CPU           calls
 ---------------------------------------------------------------
 total_time                             35.081606           1
 elmin                                  19.547165           1
 eddav                                  15.362955          15
 fft3d_mpi                               7.359126        9704
 fftbas_plan_mpi                         7.205753        9706
 hamiltmu                                4.799059        2152
 fftwav_mpi                              3.998373        5129
 kinhamil                                3.085947        4304
 fftext_mpi                              3.002827        4304
 dfftw_execute                           2.878158       29112
 setdij_                                 2.832663          39
 force_and_stress                        2.726157           1
 set_charge                              2.053148          11
 M_sumb_d                                1.464967       27437
 map_forward                             1.406415       10520
 m_alltoallv_z                           1.110793        9727
 vnlac0                                  0.994151        4304
 map_backward                            0.973354        8888
 soft_charge                             0.716316          11
 proj1                                   0.651453        3884
 pdssyex_zheevx                          0.639708         315
 M_alltoall_d                            0.638267       31808
 strenl                                  0.620571           1
 redis_pw                                0.614481       12324
 w1_projall                              0.571238        1522
 spher                                   0.564085          20
 redis_proj                              0.518351       15389
 orth1                                   0.456975        6477
 vhamil                                  0.435085        4304
 fordep                                  0.423099           1
 map_gather                              0.397579        9727
 map_scatter                             0.349395        9727
 potlok                                  0.317754          12
 gemm                                    0.314443       12912
 M_bcast_z                               0.302386        3861
 crpa_reader                             0.289387           1
 eccp                                    0.184036        1260
 w1_copy                                 0.162926       12912
 work_mul_crexp                          0.133927       12912
 crexp_mul_wave                          0.096721       11652
 set_dd_paw                              0.089087          13
 overl                                   0.081332        7369
 setup_precond                           0.071162        1260
 M_bcast_d                               0.070352        2182
 brmix                                   0.064115          11
 overl1                                  0.051467        4304
 pw_charge                               0.049679         825
 lincom                                  0.044416         336
 apply_precond                           0.037600        3044
 phase                                   0.030360         547
 densta                                  0.029435          16
 fornl                                   0.026295           1
 orthch                                  0.021628           1
 ggaall_grid                             0.019988          13
 truncate_high_frequency_w1              0.018894        5564
 broyd                                   0.013389          11
 setg0                                   0.012966          12
 proj                                    0.012478          21
 depsum                                  0.006820          11
 forhar                                  0.005943           2
 chggra                                  0.005845           1
 forloc                                  0.003178           1
 strehar                                 0.002731           1
 strelo                                  0.002633           1
 brget                                   0.001653         368
 brgrid                                  0.001181           1
 choleski                                0.000889          21
 brsav                                   0.000838         112
 brpre                                   0.000657          11
 strkin                                  0.000429           1
 vectorpot                               0.000068          12
 set_rsgf_all                            0.000063          13
 potlok_metagga                          0.000052          12
 set_dd_magatom                          0.000048          13
 set_kineden                             0.000036          10
 rotate_active_occupied_orbital          0.000015           1
 lprj_proall                             0.000008           1
 redis_pw_over_bands                     0.000004           1
 ---------------------------------------------------------------

Profiling took   0.752441  0.921679  0.005765  0.004376 seconds
Profiling took   0.729849 seconds
