 ----------------------------------------------------
    OOO  PPPP  EEEEE N   N M   M PPPP
   O   O P   P E     NN  N MM MM P   P
   O   O PPPP  EEEEE N N N M M M PPPP   -- VERSION
   O   O P     E     N  NN M   M P
    OOO  P     EEEEE N   N M   M P
 ----------------------------------------------------
 running   64 mpi-ranks, with    1 threads/rank
 distrk:  each k-point on   16 cores,    4 groups
 distr:  one band on    4 cores,    4 groups
 using from now: INCAR
 vasp.6.0.8 29Jun18 (build Jun 13 2019 12:54:44) complex

 POSCAR found type information on POSCAR  Hf Sb Pt
 POSCAR found :  3 types and       3 ions
 scaLAPACK will be used

 -----------------------------------------------------------------------------
|                                                                             |
|  ADVICE TO THIS USER RUNNING 'VASP/VAMP'   (HEAR YOUR MASTER'S VOICE ...):  |
|                                                                             |
|      You enforced a specific xc-type in the INCAR file,                     |
|      a different type was found on the POTCAR file                          |
|          I HOPE YOU KNOW, WHAT YOU ARE  DOING                               |
|                                                                             |
 -----------------------------------------------------------------------------

 LDA part: xc-table for Pade appr. of Perdew
 POSCAR, INCAR and KPOINTS ok, starting setup
 FFT: planning ...
 WAVECAR not read
 entering main loop
       N       E                     dE             d eps       ncg     rms          rms(c)
 ELPA: falling back to scaLAPACK
 ELPA: falling back to scaLAPACK
 ELPA: falling back to scaLAPACK
 ELPA: falling back to scaLAPACK
DAV:   1     0.144596392218E+03    0.14460E+03   -0.14479E+04  2696   0.177E+03
DAV:   2    -0.198348818133E+02   -0.16443E+03   -0.16294E+03  3384   0.347E+02
DAV:   3    -0.244376378577E+02   -0.46028E+01   -0.45576E+01  3560   0.520E+01
DAV:   4    -0.245018669274E+02   -0.64229E-01   -0.61790E-01  3368   0.631E+00
DAV:   5    -0.245032500684E+02   -0.13831E-02   -0.13829E-02  3608   0.843E-01    0.507E+01
DAV:   6    -0.238944342144E+02    0.60882E+00   -0.12881E+00  3472   0.899E+00    0.301E+01
DAV:   7    -0.237630525656E+02    0.13138E+00   -0.83269E-01  3608   0.523E+00    0.415E+00
DAV:   8    -0.237288857333E+02    0.34167E-01   -0.31502E-01  3512   0.359E+00    0.969E-01
DAV:   9    -0.237242466006E+02    0.46391E-02   -0.34901E-02  3016   0.153E+00    0.485E-01
DAV:  10    -0.237241343258E+02    0.11227E-03   -0.24737E-03  3640   0.312E-01    0.212E-01
DAV:  11    -0.237241016194E+02    0.32706E-04   -0.21567E-04  3384   0.107E-01    0.659E-02
DAV:  12    -0.237241047883E+02   -0.31690E-05   -0.13972E-05  3176   0.294E-02    0.813E-03
DAV:  13    -0.237241042235E+02    0.56489E-06   -0.23382E-06  3768   0.859E-03    0.698E-03
DAV:  14    -0.237241038841E+02    0.33932E-06   -0.23492E-07  2440   0.326E-03    0.143E-03
DAV:  15    -0.237241039459E+02   -0.61808E-07   -0.16513E-08  1952   0.103E-03
   1 F= -.23724104E+02 E0= -.23723999E+02  d E =-.209144E-03
