<?xml version="1.0" encoding="ISO-8859-1"?>
<modeling>
 <generator>
  <i name="program" type="string">vasp </i>
  <i name="version" type="string">6.0.8  </i>
  <i name="subversion" type="string">29Jun18 (build Jun 13 2019 12:54:44) complex                          parallel </i>
  <i name="platform" type="string">IFC18_CrayMPICH </i>
  <i name="date" type="string">2021 12 05 </i>
  <i name="time" type="string">14:21:50 </i>
 </generator>
 <incar>
  <i type="int" name="KPAR">     4</i>
  <i type="int" name="NPAR">     4</i>
  <i type="int" name="ISTART">     0</i>
  <i type="string" name="PREC"> ACC</i>
  <i type="string" name="ALGO"> Normal</i>
  <i type="logical" name="ADDGRID"> T  </i>
  <i type="int" name="ISPIN">     1</i>
  <i type="int" name="NELMIN">     5</i>
  <i type="int" name="IBRION">    -1</i>
  <i name="EDIFF">      0.00000010</i>
  <i type="int" name="NSW">     0</i>
  <i type="int" name="ISIF">     3</i>
  <i name="ENCUT">    700.00000000</i>
  <i type="logical" name="LREAL"> F  </i>
  <i type="int" name="ISMEAR">     0</i>
  <i name="SIGMA">      0.01000000</i>
  <i type="logical" name="LWAVE"> F  </i>
  <i type="logical" name="LCHARG"> F  </i>
  <i type="logical" name="LVTOT"> F  </i>
  <i type="string" name="ALGO"> Normal</i>
  <i type="string" name="GGA"> PS</i>
  <i name="EDIFF">      0.00000010</i>
  <i type="int" name="ISPIN">     1</i>
 </incar>
 <structure name="primitive_cell" >
  <crystal>
   <varray name="basis" >
    <v>       0.00000000       3.06859946       3.06859946 </v>
    <v>       3.06859946       0.00000000       3.06859946 </v>
    <v>       3.06859946       3.06859946       0.00000000 </v>
   </varray>
   <i name="volume">     57.78972261 </i>
   <varray name="rec_basis" >
    <v>      -0.16294078       0.16294078       0.16294078 </v>
    <v>       0.16294078      -0.16294078       0.16294078 </v>
    <v>       0.16294078       0.16294078      -0.16294078 </v>
   </varray>
  </crystal>
  <varray name="positions" >
   <v>       0.75000000       0.75000000       0.75000000 </v>
   <v>       0.25000000       0.25000000       0.25000000 </v>
   <v>       0.00000000       0.00000000       0.00000000 </v>
  </varray>
 </structure>
 <varray name="primitive_index" >
  <v type="int" >        1 </v>
  <v type="int" >        2 </v>
  <v type="int" >        3 </v>
 </varray>
 <kpoints>
  <generation param="Gamma">
   <v type="int" name="divisions">      13       13       13 </v>
   <v name="usershift">      0.00000000       0.00000000       0.00000000 </v>
   <v name="genvec1">      0.07692308      -0.00000000       0.00000000 </v>
   <v name="genvec2">     -0.00000000       0.07692308      -0.00000000 </v>
   <v name="genvec3">      0.00000000       0.00000000       0.07692308 </v>
   <v name="shift">      0.00000000       0.00000000       0.00000000 </v>
  </generation>
  <varray name="kpointlist" >
   <v>       0.00000000       0.00000000       0.00000000 </v>
   <v>       0.07692308       0.00000000      -0.00000000 </v>
   <v>       0.15384615      -0.00000000       0.00000000 </v>
   <v>       0.23076923       0.00000000      -0.00000000 </v>
   <v>       0.30769231      -0.00000000       0.00000000 </v>
   <v>       0.38461538       0.00000000       0.00000000 </v>
   <v>       0.46153846      -0.00000000       0.00000000 </v>
   <v>       0.07692308       0.07692308      -0.00000000 </v>
   <v>       0.15384615       0.07692308       0.00000000 </v>
   <v>       0.23076923       0.07692308       0.00000000 </v>
   <v>       0.30769231       0.07692308       0.00000000 </v>
   <v>       0.38461538       0.07692308       0.00000000 </v>
   <v>       0.46153846       0.07692308      -0.00000000 </v>
   <v>      -0.46153846       0.07692308      -0.00000000 </v>
   <v>      -0.38461538       0.07692308       0.00000000 </v>
   <v>      -0.30769231       0.07692308       0.00000000 </v>
   <v>      -0.23076923       0.07692308      -0.00000000 </v>
   <v>      -0.15384615       0.07692308       0.00000000 </v>
   <v>      -0.07692308       0.07692308       0.00000000 </v>
   <v>       0.15384615       0.15384615      -0.00000000 </v>
   <v>       0.23076923       0.15384615      -0.00000000 </v>
   <v>       0.30769231       0.15384615       0.00000000 </v>
   <v>       0.38461538       0.15384615       0.00000000 </v>
   <v>       0.46153846       0.15384615       0.00000000 </v>
   <v>      -0.46153846       0.15384615      -0.00000000 </v>
   <v>      -0.38461538       0.15384615      -0.00000000 </v>
   <v>      -0.30769231       0.15384615      -0.00000000 </v>
   <v>      -0.23076923       0.15384615       0.00000000 </v>
   <v>      -0.15384615       0.15384615      -0.00000000 </v>
   <v>       0.23076923       0.23076923      -0.00000000 </v>
   <v>       0.30769231       0.23076923      -0.00000000 </v>
   <v>       0.38461538       0.23076923      -0.00000000 </v>
   <v>       0.46153846       0.23076923      -0.00000000 </v>
   <v>      -0.46153846       0.23076923      -0.00000000 </v>
   <v>      -0.38461538       0.23076923       0.00000000 </v>
   <v>      -0.30769231       0.23076923      -0.00000000 </v>
   <v>      -0.23076923       0.23076923       0.00000000 </v>
   <v>       0.30769231       0.30769231      -0.00000000 </v>
   <v>       0.38461538       0.30769231      -0.00000000 </v>
   <v>       0.46153846       0.30769231       0.00000000 </v>
   <v>      -0.46153846       0.30769231      -0.00000000 </v>
   <v>      -0.38461538       0.30769231       0.00000000 </v>
   <v>      -0.30769231       0.30769231      -0.00000000 </v>
   <v>       0.38461538       0.38461538      -0.00000000 </v>
   <v>       0.46153846       0.38461538      -0.00000000 </v>
   <v>      -0.46153846       0.38461538      -0.00000000 </v>
   <v>      -0.38461538       0.38461538       0.00000000 </v>
   <v>       0.46153846       0.46153846      -0.00000000 </v>
   <v>      -0.46153846       0.46153846      -0.00000000 </v>
   <v>       0.23076923       0.15384615       0.07692308 </v>
   <v>       0.30769231       0.15384615       0.07692308 </v>
   <v>       0.38461538       0.15384615       0.07692308 </v>
   <v>       0.46153846       0.15384615       0.07692308 </v>
   <v>      -0.46153846       0.15384615       0.07692308 </v>
   <v>       0.30769231       0.23076923       0.07692308 </v>
   <v>       0.38461538       0.23076923       0.07692308 </v>
   <v>       0.46153846       0.23076923       0.07692308 </v>
   <v>      -0.46153846       0.23076923       0.07692308 </v>
   <v>      -0.38461538       0.23076923       0.07692308 </v>
   <v>      -0.30769231       0.23076923       0.07692308 </v>
   <v>      -0.23076923       0.23076923       0.07692308 </v>
   <v>      -0.15384615       0.23076923       0.07692308 </v>
   <v>       0.38461538       0.30769231       0.07692308 </v>
   <v>       0.46153846       0.30769231       0.07692308 </v>
   <v>      -0.46153846       0.30769231       0.07692308 </v>
   <v>      -0.38461538       0.30769231       0.07692308 </v>
   <v>      -0.30769231       0.30769231       0.07692308 </v>
   <v>      -0.23076923       0.30769231       0.07692308 </v>
   <v>       0.46153846       0.38461538       0.07692308 </v>
   <v>      -0.46153846       0.38461538       0.07692308 </v>
   <v>      -0.38461538       0.38461538       0.07692308 </v>
   <v>      -0.30769231       0.38461538       0.07692308 </v>
   <v>      -0.46153846       0.46153846       0.07692308 </v>
   <v>      -0.38461538       0.46153846       0.07692308 </v>
   <v>       0.46153846       0.30769231       0.15384615 </v>
   <v>      -0.46153846       0.30769231       0.15384615 </v>
   <v>      -0.38461538       0.30769231       0.15384615 </v>
   <v>      -0.46153846       0.38461538       0.15384615 </v>
   <v>      -0.38461538       0.38461538       0.15384615 </v>
   <v>      -0.30769231       0.38461538       0.15384615 </v>
   <v>      -0.23076923       0.38461538       0.15384615 </v>
   <v>      -0.38461538       0.46153846       0.15384615 </v>
   <v>      -0.30769231       0.46153846       0.15384615 </v>
   <v>      -0.30769231       0.46153846       0.23076923 </v>
  </varray>
  <varray name="weights" >
   <v>       0.00045517 </v>
   <v>       0.00364133 </v>
   <v>       0.00364133 </v>
   <v>       0.00364133 </v>
   <v>       0.00364133 </v>
   <v>       0.00364133 </v>
   <v>       0.00364133 </v>
   <v>       0.00273100 </v>
   <v>       0.01092399 </v>
   <v>       0.01092399 </v>
   <v>       0.01092399 </v>
   <v>       0.01092399 </v>
   <v>       0.01092399 </v>
   <v>       0.01092399 </v>
   <v>       0.01092399 </v>
   <v>       0.01092399 </v>
   <v>       0.01092399 </v>
   <v>       0.01092399 </v>
   <v>       0.00546199 </v>
   <v>       0.00273100 </v>
   <v>       0.01092399 </v>
   <v>       0.01092399 </v>
   <v>       0.01092399 </v>
   <v>       0.01092399 </v>
   <v>       0.01092399 </v>
   <v>       0.01092399 </v>
   <v>       0.01092399 </v>
   <v>       0.01092399 </v>
   <v>       0.00546199 </v>
   <v>       0.00273100 </v>
   <v>       0.01092399 </v>
   <v>       0.01092399 </v>
   <v>       0.01092399 </v>
   <v>       0.01092399 </v>
   <v>       0.01092399 </v>
   <v>       0.01092399 </v>
   <v>       0.00546199 </v>
   <v>       0.00273100 </v>
   <v>       0.01092399 </v>
   <v>       0.01092399 </v>
   <v>       0.01092399 </v>
   <v>       0.01092399 </v>
   <v>       0.00546199 </v>
   <v>       0.00273100 </v>
   <v>       0.01092399 </v>
   <v>       0.01092399 </v>
   <v>       0.00546199 </v>
   <v>       0.00273100 </v>
   <v>       0.00546199 </v>
   <v>       0.01092399 </v>
   <v>       0.02184797 </v>
   <v>       0.02184797 </v>
   <v>       0.02184797 </v>
   <v>       0.02184797 </v>
   <v>       0.01092399 </v>
   <v>       0.02184797 </v>
   <v>       0.02184797 </v>
   <v>       0.02184797 </v>
   <v>       0.02184797 </v>
   <v>       0.02184797 </v>
   <v>       0.02184797 </v>
   <v>       0.01092399 </v>
   <v>       0.01092399 </v>
   <v>       0.02184797 </v>
   <v>       0.02184797 </v>
   <v>       0.02184797 </v>
   <v>       0.02184797 </v>
   <v>       0.01092399 </v>
   <v>       0.01092399 </v>
   <v>       0.02184797 </v>
   <v>       0.02184797 </v>
   <v>       0.01092399 </v>
   <v>       0.01092399 </v>
   <v>       0.01092399 </v>
   <v>       0.01092399 </v>
   <v>       0.02184797 </v>
   <v>       0.02184797 </v>
   <v>       0.01092399 </v>
   <v>       0.02184797 </v>
   <v>       0.02184797 </v>
   <v>       0.01092399 </v>
   <v>       0.01092399 </v>
   <v>       0.01092399 </v>
   <v>       0.01092399 </v>
  </varray>
 </kpoints>
 <parameters>
  <separator name="general" >
   <i type="string" name="SYSTEM">unknown system</i>
   <i type="logical" name="LCOMPAT"> F  </i>
  </separator>
  <separator name="electronic" >
   <i type="string" name="PREC">acc</i>
   <i name="ENMAX">    700.00000000</i>
   <i name="ENAUG">    380.87800000</i>
   <i name="EDIFF">      0.00000010</i>
   <i type="int" name="IALGO">    38</i>
   <i type="int" name="IWAVPR">    10</i>
   <i type="int" name="NBANDS">    16</i>
   <i type="int" name="NBANDSLOW">    -1</i>
   <i type="int" name="NBANDSHIGH">    -1</i>
   <i name="NELECT">     25.00000000</i>
   <i type="int" name="TURBO">     0</i>
   <i type="int" name="IRESTART">     0</i>
   <i type="int" name="NREBOOT">     0</i>
   <i type="int" name="NMIN">     0</i>
   <i name="EREF">      0.00000000</i>
   <separator name="electronic smearing" >
    <i type="int" name="ISMEAR">     0</i>
    <i name="SIGMA">      0.01000000</i>
    <i name="KSPACING">      0.50000000</i>
    <i type="logical" name="KGAMMA"> T  </i>
    <i type="logical" name="KBLOWUP"> T  </i>
   </separator>
   <separator name="electronic projectors" >
    <i type="logical" name="LREAL"> F  </i>
    <v name="ROPT">      0.00000000      0.00000000      0.00000000</v>
    <i type="int" name="LMAXPAW">  -100</i>
    <i type="int" name="LMAXMIX">     2</i>
    <i type="logical" name="NLSPLINE"> F  </i>
   </separator>
   <separator name="electronic startup" >
    <i type="int" name="ISTART">     0</i>
    <i type="int" name="ICHARG">     2</i>
    <i type="int" name="INIWAV">     1</i>
   </separator>
   <separator name="electronic spin" >
    <i type="int" name="ISPIN">     1</i>
    <i type="logical" name="LNONCOLLINEAR"> F  </i>
    <v name="MAGMOM">      1.00000000      1.00000000      1.00000000</v>
    <i name="NUPDOWN">     -1.00000000</i>
    <i type="logical" name="LSORBIT"> F  </i>
    <v name="SAXIS">      0.00000000      0.00000000      1.00000000</v>
    <i type="logical" name="LSPIRAL"> F  </i>
    <v name="QSPIRAL">      0.00000000      0.00000000      0.00000000</v>
    <i type="logical" name="LZEROZ"> F  </i>
   </separator>
   <separator name="electronic exchange-correlation" >
    <i type="logical" name="LASPH"> F  </i>
    <i type="logical" name="LMETAGGA"> F  </i>
   </separator>
   <separator name="electronic convergence" >
    <i type="int" name="NELM">    60</i>
    <i type="int" name="NELMDL">    -5</i>
    <i type="int" name="NELMIN">     5</i>
    <i name="ENINI">    700.00000000</i>
    <separator name="electronic convergence detail" >
     <i type="logical" name="LDIAG"> T  </i>
     <i type="logical" name="LSUBROT"> F  </i>
     <i name="WEIMIN">      0.00000000</i>
     <i name="EBREAK">      0.00000000</i>
     <i name="DEPER">      0.30000000</i>
     <i type="int" name="NRMM">     4</i>
     <i name="TIME">      0.40000000</i>
    </separator>
   </separator>
   <separator name="electronic mixer" >
    <i name="AMIX">      0.40000000</i>
    <i name="BMIX">      1.00000000</i>
    <i name="AMIN">      0.10000000</i>
    <i name="AMIX_MAG">      1.60000000</i>
    <i name="BMIX_MAG">      1.00000000</i>
    <separator name="electronic mixer details" >
     <i type="int" name="IMIX">     4</i>
     <i type="logical" name="MIXFIRST"> F  </i>
     <i type="int" name="MAXMIX">   -45</i>
     <i name="WC">    100.00000000</i>
     <i type="int" name="INIMIX">     1</i>
     <i type="int" name="MIXPRE">     1</i>
     <i type="int" name="MREMOVE">     5</i>
    </separator>
   </separator>
   <separator name="electronic dipolcorrection" >
    <i type="logical" name="LDIPOL"> F  </i>
    <i type="logical" name="LMONO"> F  </i>
    <i type="int" name="IDIPOL">     0</i>
    <i name="EPSILON">      1.00000000</i>
    <v name="DIPOL">   -100.00000000   -100.00000000   -100.00000000</v>
    <i name="EFIELD">      0.00000000</i>
   </separator>
  </separator>
  <separator name="grids" >
   <i type="int" name="NGX">    40</i>
   <i type="int" name="NGY">    40</i>
   <i type="int" name="NGZ">    40</i>
   <i type="int" name="NGXF">    80</i>
   <i type="int" name="NGYF">    80</i>
   <i type="int" name="NGZF">    80</i>
   <i type="logical" name="ADDGRID"> T  </i>
  </separator>
  <separator name="ionic" >
   <i type="int" name="NSW">     0</i>
   <i type="int" name="IBRION">    -1</i>
   <i type="int" name="MDALGO">     0</i>
   <i type="int" name="ISIF">     3</i>
   <i name="PSTRESS">      0.00000000</i>
   <i name="EDIFFG">      0.00000100</i>
   <i type="int" name="NFREE">     0</i>
   <i name="POTIM">      0.50000000</i>
   <i name="SMASS">     -3.00000000</i>
   <i name="SCALEE">      1.00000000</i>
  </separator>
  <separator name="ionic md" >
   <i name="TEBEG">      0.00010000</i>
   <i name="TEEND">      0.00010000</i>
   <i type="int" name="NBLOCK">     1</i>
   <i type="int" name="KBLOCK">     1</i>
   <i type="int" name="NPACO">   256</i>
   <i name="APACO">     16.00000000</i>
  </separator>
  <separator name="symmetry" >
   <i type="int" name="ISYM">     2</i>
   <i name="SYMPREC">      0.00001000</i>
  </separator>
  <separator name="dos" >
   <i type="int" name="LORBIT">     0</i>
   <v name="RWIGS">     -1.00000000     -1.00000000     -1.00000000</v>
   <i type="int" name="NEDOS">   301</i>
   <i name="EMIN">     10.00000000</i>
   <i name="EMAX">    -10.00000000</i>
   <i name="EFERMI">      0.00000000</i>
  </separator>
  <separator name="writing" >
   <i type="int" name="NWRITE">     2</i>
   <i type="logical" name="LWAVE"> F  </i>
   <i type="logical" name="LDOWNSAMPLE"> F  </i>
   <i type="logical" name="LCHARG"> F  </i>
   <i type="logical" name="LPARD"> F  </i>
   <i type="logical" name="LVTOT"> F  </i>
   <i type="logical" name="LVHAR"> F  </i>
   <i type="logical" name="LELF"> F  </i>
   <i type="logical" name="LOPTICS"> F  </i>
   <v name="STM">      0.00000000      0.00000000      0.00000000      0.00000000      0.00000000      0.00000000      0.00000000</v>
  </separator>
  <separator name="performance" >
   <i type="int" name="NPAR">     4</i>
   <i type="int" name="NSIM">     4</i>
   <i type="int" name="NBLK">    -1</i>
   <i type="logical" name="LPLANE"> T  </i>
   <i type="logical" name="LSCALAPACK"> T  </i>
   <i type="logical" name="LSCAAWARE"> F  </i>
   <i type="logical" name="LSCALU"> F  </i>
   <i type="logical" name="LASYNC"> F  </i>
   <i type="logical" name="LORBITALREAL"> F  </i>
  </separator>
  <separator name="miscellaneous" >
   <i type="int" name="IDIOT">     3</i>
   <i type="int" name="PHON_NSTRUCT">    -1</i>
   <i type="logical" name="LMUSIC"> F  </i>
   <v name="POMASS">    178.49000000    121.75000000    195.08000000</v>
   <v name="DARWINR">      0.00000000      0.00000000      0.00000000</v>
   <v name="DARWINV">      1.00000000      1.00000000      1.00000000</v>
   <i type="logical" name="LCORR"> T  </i>
  </separator>
  <i type="logical" name="GGA_COMPAT"> T  </i>
  <i type="logical" name="LBERRY"> F  </i>
  <i type="int" name="ICORELEVEL">     0</i>
  <i type="logical" name="LDAU"> F  </i>
  <i type="int" name="I_CONSTRAINED_M">     0</i>
  <separator name="electronic exchange-correlation" >
   <i type="string" name="GGA">PS</i>
   <i type="int" name="VOSKOWN">     0</i>
   <i type="logical" name="LHFCALC"> F  </i>
   <i type="string" name="PRECFOCK"></i>
   <i type="logical" name="LSYMGRAD"> F  </i>
   <i type="logical" name="LHFONE"> F  </i>
   <i type="logical" name="LRHFCALC"> F  </i>
   <i type="logical" name="LTHOMAS"> F  </i>
   <i type="logical" name="LMODELHF"> F  </i>
   <i type="logical" name="LFOCKACE"> F  </i>
   <i name="ENCUT4O">     -1.00000000</i>
   <i type="int" name="EXXOEP">     0</i>
   <i type="int" name="FOURORBIT">     0</i>
   <i name="AEXX">      0.00000000</i>
   <i name="HFALPHA">      0.00000000</i>
   <i name="MCALPHA">      0.00000000</i>
   <i name="ALDAX">      1.00000000</i>
   <i name="AGGAX">      1.00000000</i>
   <i name="ALDAC">      1.00000000</i>
   <i name="AGGAC">      1.00000000</i>
   <i type="int" name="NKREDX">     1</i>
   <i type="int" name="NKREDY">     1</i>
   <i type="int" name="NKREDZ">     1</i>
   <i type="logical" name="SHIFTRED"> F  </i>
   <i type="logical" name="ODDONLY"> F  </i>
   <i type="logical" name="EVENONLY"> F  </i>
   <i type="int" name="LMAXFOCK">     0</i>
   <i type="int" name="NMAXFOCKAE">     0</i>
   <i type="logical" name="LFOCKAEDFT"> F  </i>
   <i name="HFSCREEN">      0.00000000</i>
   <i name="HFSCREENC">      0.00000000</i>
   <i type="int" name="NBANDSGWLOW">     0</i>
  </separator>
  <separator name="vdW DFT" >
   <i type="logical" name="LUSE_VDW"> F  </i>
   <i name="Zab_VDW">     -0.84910000</i>
   <i name="PARAM1">      0.12340000</i>
   <i name="PARAM2">      1.00000000</i>
   <i name="PARAM3">      0.00000000</i>
  </separator>
  <separator name="model GW" >
   <i type="int" name="MODEL_GW">     0</i>
   <i name="MODEL_EPS0">     11.55794452</i>
   <i name="MODEL_ALPHA">      1.00000000</i>
  </separator>
  <separator name="linear response parameters" >
   <i type="logical" name="LEPSILON"> F  </i>
   <i type="logical" name="LRPA"> F  </i>
   <i type="logical" name="LNABLA"> F  </i>
   <i type="logical" name="LVEL"> F  </i>
   <i type="int" name="KINTER">     0</i>
   <i name="CSHIFT">      0.10000000</i>
   <i name="OMEGAMAX">     -1.00000000</i>
   <i name="DEG_THRESHOLD">      0.00200000</i>
   <i name="RTIME">     -0.10000000</i>
   <i name="WPLASMAI">      0.00000000</i>
   <v name="DFIELD">      0.00000000      0.00000000      0.00000000</v>
   <v name="WPLASMA">      0.00000000      0.00000000      0.00000000      0.00000000      0.00000000      0.00000000      0.00000000      0.00000000      0.00000000</v>
  </separator>
  <separator name="orbital magnetization" >
   <i type="logical" name="NUCIND"> F  </i>
   <v name="MAGPOS">      0.00000000      0.00000000      0.00000000</v>
   <i type="logical" name="LNICSALL"> T  </i>
   <i type="logical" name="ORBITALMAG"> F  </i>
   <i type="logical" name="LMAGBLOCH"> F  </i>
   <i type="logical" name="LCHIMAG"> F  </i>
   <i type="logical" name="LGAUGE"> T  </i>
   <i type="int" name="MAGATOM">     0</i>
   <v name="MAGDIPOL">      0.00000000      0.00000000      0.00000000</v>
   <v name="AVECCONST">      0.00000000      0.00000000      0.00000000</v>
  </separator>
  <separator name="response functions" >
   <i type="logical" name="LFINITE_TEMPERATURE"> F  </i>
   <i type="logical" name="LADDER"> F  </i>
   <i type="logical" name="LRPAFORCE"> F  </i>
   <i type="logical" name="LFXC"> F  </i>
   <i type="logical" name="LHARTREE"> T  </i>
   <i type="int" name="IBSE">     0</i>
   <v type="int" name="KPOINT">    -1     0     0     0</v>
   <i type="logical" name="LTCTC"> F  </i>
   <i type="logical" name="LTCTE"> F  </i>
   <i type="logical" name="LTETE"> F  </i>
   <i type="logical" name="LTRIPLET"> F  </i>
   <i type="logical" name="LFXCEPS"> F  </i>
   <i type="logical" name="LFXHEG"> F  </i>
   <i type="int" name="NATURALO">     2</i>
   <i type="logical" name="L2ORDER"> F  </i>
   <i type="logical" name="LDMP1"> F  </i>
   <i type="logical" name="LMP2LT"> F  </i>
   <i type="logical" name="LSMP2LT"> F  </i>
   <i type="logical" name="LUSEW"> F  </i>
   <i name="ENCUTGW">     -2.00000000</i>
   <i name="ENCUTGWSOFT">     -2.00000000</i>
   <i name="ENCUTLF">     -1.00000000</i>
   <i type="int" name="LMAXMP2">    -1</i>
   <i name="SCISSOR">      0.00000000</i>
   <i type="int" name="NOMEGA">     0</i>
   <i type="int" name="NOMEGAR">     0</i>
   <i type="int" name="NBANDSGW">    -1</i>
   <i type="int" name="NBANDSO">    -1</i>
   <i type="int" name="NBANDSV">    -1</i>
   <i type="int" name="NELM">     1</i>
   <i type="int" name="NELMHF">     1</i>
   <i type="int" name="DIM">     3</i>
   <i type="int" name="IESPILON">     4</i>
   <i type="int" name="ANTIRES">     0</i>
   <i name="OMEGAMAX">    -30.00000000</i>
   <i name="OMEGAMIN">    -30.00000000</i>
   <i name="OMEGATL">   -200.00000000</i>
   <i type="int" name="OMEGAGRID">   145</i>
   <i name="CSHIFT">     -0.10000000</i>
   <i type="logical" name="LSELFENERGY"> F  </i>
   <i type="logical" name="LSPECTRAL"> F  </i>
   <i type="logical" name="LSPECTRALGW"> F  </i>
   <i type="logical" name="LSINGLES"> F  </i>
   <i type="logical" name="LFERMIGW"> F  </i>
   <i type="logical" name="ODDONLYGW"> F  </i>
   <i type="logical" name="EVENONLYGW"> F  </i>
   <i type="int" name="NKREDLFX">     1</i>
   <i type="int" name="NKREDLFY">     1</i>
   <i type="int" name="NKREDLFZ">     1</i>
   <i type="int" name="MAXMEM">  2800</i>
   <i type="int" name="TELESCOPE">     0</i>
   <i type="int" name="NTAUPAR">     1</i>
   <i type="int" name="NOMEGAPAR">    -1</i>
   <i name="LAMBDA">      1.00000000</i>
  </separator>
  <separator name="External order field" >
   <i name="OFIELD_KAPPA">      0.00000000</i>
   <v name="OFIELD_K">      0.00000000      0.00000000      0.00000000</v>
   <i name="OFIELD_Q6_NEAR">      0.00000000</i>
   <i name="OFIELD_Q6_FAR">      0.00000000</i>
   <i name="OFIELD_A">      0.00000000</i>
  </separator>
 </parameters>
 <atominfo>
  <atoms>       3 </atoms>
  <types>       3 </types>
  <array name="atoms" >
   <dimension dim="1">ion</dimension>
   <field type="string">element</field>
   <field type="int">atomtype</field>
   <set>
    <rc><c>Hf</c><c>   1</c></rc>
    <rc><c>Sb</c><c>   2</c></rc>
    <rc><c>Pt</c><c>   3</c></rc>
   </set>
  </array>
  <array name="atomtypes" >
   <dimension dim="1">type</dimension>
   <field type="int">atomspertype</field>
   <field type="string">element</field>
   <field>mass</field>
   <field>valence</field>
   <field type="string">pseudopotential</field>
   <set>
    <rc><c>   1</c><c>Hf</c><c>    178.49000000</c><c>     10.00000000</c><c>  PAW_PBE Hf_pv 06Sep2000               </c></rc>
    <rc><c>   1</c><c>Sb</c><c>    121.75000000</c><c>      5.00000000</c><c>  PAW_PBE Sb 06Sep2000                  </c></rc>
    <rc><c>   1</c><c>Pt</c><c>    195.08000000</c><c>     10.00000000</c><c>  PAW_PBE Pt 04Feb2005                  </c></rc>
   </set>
  </array>
 </atominfo>
 <structure name="initialpos" >
  <crystal>
   <varray name="basis" >
    <v>       0.00000000       3.06859946       3.06859946 </v>
    <v>       3.06859946       0.00000000       3.06859946 </v>
    <v>       3.06859946       3.06859946       0.00000000 </v>
   </varray>
   <i name="volume">     57.78972261 </i>
   <varray name="rec_basis" >
    <v>      -0.16294078       0.16294078       0.16294078 </v>
    <v>       0.16294078      -0.16294078       0.16294078 </v>
    <v>       0.16294078       0.16294078      -0.16294078 </v>
   </varray>
  </crystal>
  <varray name="positions" >
   <v>       0.75000000       0.75000000       0.75000000 </v>
   <v>       0.25000000       0.25000000       0.25000000 </v>
   <v>       0.00000000       0.00000000       0.00000000 </v>
  </varray>
 </structure>
 <calculation>
  <scstep>
   <time name="dav">    0.91    0.92</time>
   <time name="total">    1.05    1.14</time>
   <energy>
    <i name="alphaZ">    117.88866977 </i>
    <i name="ewald">  -1620.30255954 </i>
    <i name="hartreedc">   -304.68104356 </i>
    <i name="XCdc">    -18.05247606 </i>
    <i name="pawpsdc">   1514.36848356 </i>
    <i name="pawaedc">  -1421.27055995 </i>
    <i name="eentropy">     -0.00000788 </i>
    <i name="bandstr">    135.54137468 </i>
    <i name="atom">   1741.10451121 </i>
    <i name="e_fr_energy">    144.59639222 </i>
    <i name="e_wo_entrp">    144.59640010 </i>
    <i name="e_0_energy">    144.59639616 </i>
   </energy>
  </scstep>
  <scstep>
   <time name="dav">    1.06    1.10</time>
   <time name="total">    1.06    1.10</time>
   <energy>
    <i name="e_fr_energy">    -19.83488181 </i>
    <i name="e_wo_entrp">    -19.83482950 </i>
    <i name="e_0_energy">    -19.83485566 </i>
   </energy>
  </scstep>
  <scstep>
   <time name="dav">    1.12    1.14</time>
   <time name="total">    1.12    1.14</time>
   <energy>
    <i name="e_fr_energy">    -24.43763786 </i>
    <i name="e_wo_entrp">    -24.43728228 </i>
    <i name="e_0_energy">    -24.43746007 </i>
   </energy>
  </scstep>
  <scstep>
   <time name="dav">    1.08    1.11</time>
   <time name="total">    1.08    1.11</time>
   <energy>
    <i name="e_fr_energy">    -24.50186693 </i>
    <i name="e_wo_entrp">    -24.50140806 </i>
    <i name="e_0_energy">    -24.50163749 </i>
   </energy>
  </scstep>
  <scstep>
   <time name="dav">    1.13    1.16</time>
   <time name="total">    1.40    1.43</time>
   <energy>
    <i name="e_fr_energy">    -24.50325007 </i>
    <i name="e_wo_entrp">    -24.50279292 </i>
    <i name="e_0_energy">    -24.50302149 </i>
   </energy>
  </scstep>
  <scstep>
   <time name="dav">    1.08    1.08</time>
   <time name="total">    1.44    1.47</time>
   <energy>
    <i name="e_fr_energy">    -23.89443421 </i>
    <i name="e_wo_entrp">    -23.89439005 </i>
    <i name="e_0_energy">    -23.89441213 </i>
   </energy>
  </scstep>
  <scstep>
   <time name="dav">    1.11    1.11</time>
   <time name="total">    1.41    1.44</time>
   <energy>
    <i name="e_fr_energy">    -23.76305257 </i>
    <i name="e_wo_entrp">    -23.76269198 </i>
    <i name="e_0_energy">    -23.76287227 </i>
   </energy>
  </scstep>
  <scstep>
   <time name="dav">    1.07    1.07</time>
   <time name="total">    1.39    1.41</time>
   <energy>
    <i name="e_fr_energy">    -23.72888573 </i>
    <i name="e_wo_entrp">    -23.72873629 </i>
    <i name="e_0_energy">    -23.72881101 </i>
   </energy>
  </scstep>
  <scstep>
   <time name="dav">    0.96    0.96</time>
   <time name="total">    1.25    1.27</time>
   <energy>
    <i name="e_fr_energy">    -23.72424660 </i>
    <i name="e_wo_entrp">    -23.72406224 </i>
    <i name="e_0_energy">    -23.72415442 </i>
   </energy>
  </scstep>
  <scstep>
   <time name="dav">    1.11    1.11</time>
   <time name="total">    1.41    1.44</time>
   <energy>
    <i name="e_fr_energy">    -23.72413433 </i>
    <i name="e_wo_entrp">    -23.72392830 </i>
    <i name="e_0_energy">    -23.72403131 </i>
   </energy>
  </scstep>
  <scstep>
   <time name="dav">    1.08    1.08</time>
   <time name="total">    1.38    1.40</time>
   <energy>
    <i name="e_fr_energy">    -23.72410162 </i>
    <i name="e_wo_entrp">    -23.72389268 </i>
    <i name="e_0_energy">    -23.72399715 </i>
   </energy>
  </scstep>
  <scstep>
   <time name="dav">    1.02    1.02</time>
   <time name="total">    1.33    1.35</time>
   <energy>
    <i name="e_fr_energy">    -23.72410479 </i>
    <i name="e_wo_entrp">    -23.72389543 </i>
    <i name="e_0_energy">    -23.72400011 </i>
   </energy>
  </scstep>
  <scstep>
   <time name="dav">    1.14    1.14</time>
   <time name="total">    1.46    1.48</time>
   <energy>
    <i name="e_fr_energy">    -23.72410422 </i>
    <i name="e_wo_entrp">    -23.72389517 </i>
    <i name="e_0_energy">    -23.72399970 </i>
   </energy>
  </scstep>
  <scstep>
   <time name="dav">    0.83    0.83</time>
   <time name="total">    1.14    1.15</time>
   <energy>
    <i name="e_fr_energy">    -23.72410388 </i>
    <i name="e_wo_entrp">    -23.72389472 </i>
    <i name="e_0_energy">    -23.72399930 </i>
   </energy>
  </scstep>
  <scstep>
   <time name="dav">    0.75    0.75</time>
   <time name="total">    0.87    0.90</time>
   <energy>
    <i name="alphaZ">    117.88866977 </i>
    <i name="ewald">  -1620.30255954 </i>
    <i name="hartreedc">   -285.56460300 </i>
    <i name="XCdc">    -18.54501063 </i>
    <i name="pawpsdc">   3115.50325848 </i>
    <i name="pawaedc">  -3028.49626657 </i>
    <i name="eentropy">     -0.00020914 </i>
    <i name="bandstr">    -45.31189451 </i>
    <i name="atom">   1741.10451121 </i>
    <i name="e_fr_energy">    -23.72410395 </i>
    <i name="e_wo_entrp">    -23.72389480 </i>
    <i name="e_0_energy">    -23.72399937 </i>
   </energy>
  </scstep>
  <structure>
   <crystal>
    <varray name="basis" >
     <v>       0.00000000       3.06859946       3.06859946 </v>
     <v>       3.06859946       0.00000000       3.06859946 </v>
     <v>       3.06859946       3.06859946       0.00000000 </v>
    </varray>
    <i name="volume">     57.78972261 </i>
    <varray name="rec_basis" >
     <v>      -0.16294078       0.16294078       0.16294078 </v>
     <v>       0.16294078      -0.16294078       0.16294078 </v>
     <v>       0.16294078       0.16294078      -0.16294078 </v>
    </varray>
   </crystal>
   <varray name="positions" >
    <v>       0.75000000       0.75000000       0.75000000 </v>
    <v>       0.25000000       0.25000000       0.25000000 </v>
    <v>       0.00000000       0.00000000       0.00000000 </v>
   </varray>
  </structure>
  <varray name="forces" >
   <v>       0.00000000       0.00000000       0.00000000 </v>
   <v>      -0.00000000       0.00000000      -0.00000000 </v>
   <v>       0.00000000      -0.00000000       0.00000000 </v>
  </varray>
  <varray name="stress" >
   <v>     183.74235272       0.00000000      -0.00000000 </v>
   <v>       0.00000000     183.74235272      -0.00000000 </v>
   <v>      -0.00000000       0.00000000     183.74235272 </v>
  </varray>
  <energy>
   <i name="e_fr_energy">    -23.72410395 </i>
   <i name="e_wo_entrp">    -23.72399937 </i>
   <i name="e_0_energy">     -0.00020914 </i>
  </energy>
  <time name="totalsc">   21.73   22.45</time>
  <eigenvalues>
   <array>
    <dimension dim="1">band</dimension>
    <dimension dim="2">kpoint</dimension>
    <dimension dim="3">spin</dimension>
    <field>eigene</field>
    <field>occ</field>
    <set>
     <set comment="spin 1">
      <set comment="kpoint 1">
       <r>  -21.6523    1.0000 </r>
       <r>  -21.6523    1.0000 </r>
       <r>  -21.6523    1.0000 </r>
       <r>   -3.3046    1.0000 </r>
       <r>    3.6510    1.0000 </r>
       <r>    3.6510    1.0000 </r>
       <r>    3.6510    1.0000 </r>
       <r>    4.4551    1.0000 </r>
       <r>    4.4551    1.0000 </r>
       <r>    8.4735    1.0000 </r>
       <r>    8.4735    1.0000 </r>
       <r>    8.4735    1.0000 </r>
       <r>   10.1186    1.0000 </r>
       <r>   11.4189    0.0000 </r>
       <r>   11.4189    0.0000 </r>
       <r>   11.4189    0.0000 </r>
      </set>
      <set comment="kpoint 2">
       <r>  -21.6541    1.0000 </r>
       <r>  -21.6521    1.0000 </r>
       <r>  -21.6521    1.0000 </r>
       <r>   -3.2290    1.0000 </r>
       <r>    3.5760    1.0000 </r>
       <r>    3.6072    1.0000 </r>
       <r>    3.6072    1.0000 </r>
       <r>    4.5128    1.0000 </r>
       <r>    4.5128    1.0000 </r>
       <r>    7.9716    1.0000 </r>
       <r>    8.4082    1.0000 </r>
       <r>    8.4082    1.0000 </r>
       <r>   10.1869    1.0000 </r>
       <r>   11.2405    0.0000 </r>
       <r>   11.2405    0.0000 </r>
       <r>   11.9209    0.0000 </r>
      </set>
      <set comment="kpoint 3">
       <r>  -21.6592    1.0000 </r>
       <r>  -21.6517    1.0000 </r>
       <r>  -21.6517    1.0000 </r>
       <r>   -3.0099    1.0000 </r>
       <r>    3.3656    1.0000 </r>
       <r>    3.5186    1.0000 </r>
       <r>    3.5186    1.0000 </r>
       <r>    4.6339    1.0000 </r>
       <r>    4.6339    1.0000 </r>
       <r>    7.0478    1.0000 </r>
       <r>    8.2459    1.0000 </r>
       <r>    8.2459    1.0000 </r>
       <r>   10.2858    1.0000 </r>
       <r>   11.1189    0.0000 </r>
       <r>   11.1189    0.0000 </r>
       <r>   12.7171    0.0000 </r>
      </set>
      <set comment="kpoint 4">
       <r>  -21.6662    1.0000 </r>
       <r>  -21.6511    1.0000 </r>
       <r>  -21.6511    1.0000 </r>
       <r>   -2.6722    1.0000 </r>
       <r>    3.0510    1.0000 </r>
       <r>    3.4420    1.0000 </r>
       <r>    3.4420    1.0000 </r>
       <r>    4.7382    1.0000 </r>
       <r>    4.7382    1.0000 </r>
       <r>    6.1707    1.0000 </r>
       <r>    8.0619    1.0000 </r>
       <r>    8.0619    1.0000 </r>
       <r>   10.3838    1.0000 </r>
       <r>   11.1358    0.0000 </r>
       <r>   11.1358    0.0000 </r>
       <r>   13.4387    0.0000 </r>
      </set>
      <set comment="kpoint 5">
       <r>  -21.6735    1.0000 </r>
       <r>  -21.6504    1.0000 </r>
       <r>  -21.6504    1.0000 </r>
       <r>   -2.2627    1.0000 </r>
       <r>    2.6678    1.0000 </r>
       <r>    3.4005    1.0000 </r>
       <r>    3.4005    1.0000 </r>
       <r>    4.7816    1.0000 </r>
       <r>    4.7816    1.0000 </r>
       <r>    5.4908    1.0000 </r>
       <r>    7.9212    1.0000 </r>
       <r>    7.9212    1.0000 </r>
       <r>   10.4791    0.3525 </r>
       <r>   11.2612    0.0000 </r>
       <r>   11.2612    0.0000 </r>
       <r>   12.9480    0.0000 </r>
      </set>
      <set comment="kpoint 6">
       <r>  -21.6794    1.0000 </r>
       <r>  -21.6499    1.0000 </r>
       <r>  -21.6499    1.0000 </r>
       <r>   -1.8619    1.0000 </r>
       <r>    2.2814    1.0000 </r>
       <r>    3.3913    1.0000 </r>
       <r>    3.3913    1.0000 </r>
       <r>    4.7684    1.0000 </r>
       <r>    4.7684    1.0000 </r>
       <r>    5.0544    1.0000 </r>
       <r>    7.8453    1.0000 </r>
       <r>    7.8453    1.0000 </r>
       <r>   10.5750    0.0000 </r>
       <r>   11.4440    0.0000 </r>
       <r>   11.4440    0.0000 </r>
       <r>   12.1266    0.0000 </r>
      </set>
      <set comment="kpoint 7">
       <r>  -21.6828    1.0000 </r>
       <r>  -21.6496    1.0000 </r>
       <r>  -21.6496    1.0000 </r>
       <r>   -1.5963    1.0000 </r>
       <r>    2.0189    1.0000 </r>
       <r>    3.3961    1.0000 </r>
       <r>    3.3961    1.0000 </r>
       <r>    4.7411    1.0000 </r>
       <r>    4.7411    1.0000 </r>
       <r>    4.8490    1.0000 </r>
       <r>    7.8179    1.0000 </r>
       <r>    7.8179    1.0000 </r>
       <r>   10.6617    0.0000 </r>
       <r>   11.5914    0.0000 </r>
       <r>   11.5914    0.0000 </r>
       <r>   11.6361    0.0000 </r>
      </set>
      <set comment="kpoint 8">
       <r>  -21.6541    1.0000 </r>
       <r>  -21.6524    1.0000 </r>
       <r>  -21.6524    1.0000 </r>
       <r>   -3.2042    1.0000 </r>
       <r>    3.3966    1.0000 </r>
       <r>    3.6853    1.0000 </r>
       <r>    3.6853    1.0000 </r>
       <r>    4.4928    1.0000 </r>
       <r>    4.5445    1.0000 </r>
       <r>    8.0469    1.0000 </r>
       <r>    8.2671    1.0000 </r>
       <r>    8.2671    1.0000 </r>
       <r>   10.1787    1.0000 </r>
       <r>   11.1852    0.0000 </r>
       <r>   11.6761    0.0000 </r>
       <r>   11.7305    0.0000 </r>
      </set>
      <set comment="kpoint 9">
       <r>  -21.6578    1.0000 </r>
       <r>  -21.6524    1.0000 </r>
       <r>  -21.6520    1.0000 </r>
       <r>   -3.0343    1.0000 </r>
       <r>    3.1692    1.0000 </r>
       <r>    3.6548    1.0000 </r>
       <r>    3.6775    1.0000 </r>
       <r>    4.5758    1.0000 </r>
       <r>    4.6270    1.0000 </r>
       <r>    7.3326    1.0000 </r>
       <r>    8.0695    1.0000 </r>
       <r>    8.1686    1.0000 </r>
       <r>   10.3030    1.0000 </r>
       <r>   11.0183    0.0000 </r>
       <r>   11.4072    0.0000 </r>
       <r>   12.3109    0.0000 </r>
      </set>
      <set comment="kpoint 10">
       <r>  -21.6640    1.0000 </r>
       <r>  -21.6520    1.0000 </r>
       <r>  -21.6515    1.0000 </r>
       <r>   -2.7385    1.0000 </r>
       <r>    2.9302    1.0000 </r>
       <r>    3.5363    1.0000 </r>
       <r>    3.6253    1.0000 </r>
       <r>    4.6875    1.0000 </r>
       <r>    4.7252    1.0000 </r>
       <r>    6.4663    1.0000 </r>
       <r>    7.8913    1.0000 </r>
       <r>    8.0057    1.0000 </r>
       <r>   10.5214    0.0000 </r>
       <r>   10.9737    0.0000 </r>
       <r>   11.2591    0.0000 </r>
       <r>   12.9544    0.0000 </r>
      </set>
      <set comment="kpoint 11">
       <r>  -21.6711    1.0000 </r>
       <r>  -21.6514    1.0000 </r>
       <r>  -21.6510    1.0000 </r>
       <r>   -2.3564    1.0000 </r>
       <r>    2.6620    1.0000 </r>
       <r>    3.4138    1.0000 </r>
       <r>    3.5715    1.0000 </r>
       <r>    4.7534    1.0000 </r>
       <r>    4.7907    1.0000 </r>
       <r>    5.7273    1.0000 </r>
       <r>    7.7797    1.0000 </r>
       <r>    7.8366    1.0000 </r>
       <r>   10.5511    0.0000 </r>
       <r>   11.2455    0.0000 </r>
       <r>   11.2510    0.0000 </r>
       <r>   13.0448    0.0000 </r>
      </set>
      <set comment="kpoint 12">
       <r>  -21.6773    1.0000 </r>
       <r>  -21.6507    1.0000 </r>
       <r>  -21.6507    1.0000 </r>
       <r>   -1.9558    1.0000 </r>
       <r>    2.3621    1.0000 </r>
       <r>    3.3483    1.0000 </r>
       <r>    3.5246    1.0000 </r>
       <r>    4.7621    1.0000 </r>
       <r>    4.7995    1.0000 </r>
       <r>    5.2087    1.0000 </r>
       <r>    7.7175    1.0000 </r>
       <r>    7.7381    1.0000 </r>
       <r>   10.5574    0.0000 </r>
       <r>   11.3680    0.0000 </r>
       <r>   11.5449    0.0000 </r>
       <r>   12.3266    0.0000 </r>
      </set>
      <set comment="kpoint 13">
       <r>  -21.6814    1.0000 </r>
       <r>  -21.6507    1.0000 </r>
       <r>  -21.6501    1.0000 </r>
       <r>   -1.6443    1.0000 </r>
       <r>    2.1069    1.0000 </r>
       <r>    3.3500    1.0000 </r>
       <r>    3.4722    1.0000 </r>
       <r>    4.7554    1.0000 </r>
       <r>    4.7651    1.0000 </r>
       <r>    4.9293    1.0000 </r>
       <r>    7.6539    1.0000 </r>
       <r>    7.7375    1.0000 </r>
       <r>   10.6321    0.0000 </r>
       <r>   11.4393    0.0000 </r>
       <r>   11.5405    0.0000 </r>
       <r>   12.0592    0.0000 </r>
      </set>
      <set comment="kpoint 14">
       <r>  -21.6824    1.0000 </r>
       <r>  -21.6510    1.0000 </r>
       <r>  -21.6497    1.0000 </r>
       <r>   -1.5520    1.0000 </r>
       <r>    2.0295    1.0000 </r>
       <r>    3.3988    1.0000 </r>
       <r>    3.4056    1.0000 </r>
       <r>    4.7294    1.0000 </r>
       <r>    4.7747    1.0000 </r>
       <r>    4.8658    1.0000 </r>
       <r>    7.6189    1.0000 </r>
       <r>    7.7570    1.0000 </r>
       <r>   10.7158    0.0000 </r>
       <r>   11.2374    0.0000 </r>
       <r>   11.6261    0.0000 </r>
       <r>   12.1015    0.0000 </r>
      </set>
      <set comment="kpoint 15">
       <r>  -21.6802    1.0000 </r>
       <r>  -21.6515    1.0000 </r>
       <r>  -21.6495    1.0000 </r>
       <r>   -1.7292    1.0000 </r>
       <r>    2.1869    1.0000 </r>
       <r>    3.3379    1.0000 </r>
       <r>    3.4724    1.0000 </r>
       <r>    4.7232    1.0000 </r>
       <r>    4.8176    1.0000 </r>
       <r>    5.0030    1.0000 </r>
       <r>    7.5881    1.0000 </r>
       <r>    7.8057    1.0000 </r>
       <r>   10.6548    0.0000 </r>
       <r>   11.4535    0.0000 </r>
       <r>   11.5295    0.0000 </r>
       <r>   12.0947    0.0000 </r>
      </set>
      <set comment="kpoint 16">
       <r>  -21.6753    1.0000 </r>
       <r>  -21.6520    1.0000 </r>
       <r>  -21.6497    1.0000 </r>
       <r>   -2.0847    1.0000 </r>
       <r>    2.4903    1.0000 </r>
       <r>    3.2963    1.0000 </r>
       <r>    3.5577    1.0000 </r>
       <r>    4.7286    1.0000 </r>
       <r>    4.8451    1.0000 </r>
       <r>    5.3614    1.0000 </r>
       <r>    7.5688    1.0000 </r>
       <r>    7.9101    1.0000 </r>
       <r>   10.6295    0.0000 </r>
       <r>   11.3174    0.0000 </r>
       <r>   11.4488    0.0000 </r>
       <r>   12.5705    0.0000 </r>
      </set>
      <set comment="kpoint 17">
       <r>  -21.6687    1.0000 </r>
       <r>  -21.6525    1.0000 </r>
       <r>  -21.6502    1.0000 </r>
       <r>   -2.4892    1.0000 </r>
       <r>    2.8236    1.0000 </r>
       <r>    3.3033    1.0000 </r>
       <r>    3.6458    1.0000 </r>
       <r>    4.7031    1.0000 </r>
       <r>    4.8198    1.0000 </r>
       <r>    5.9543    1.0000 </r>
       <r>    7.6028    1.0000 </r>
       <r>    8.0812    1.0000 </r>
       <r>   10.6632    0.0000 </r>
       <r>   11.0974    0.0000 </r>
       <r>   11.2695    0.0000 </r>
       <r>   12.9360    0.0000 </r>
      </set>
      <set comment="kpoint 18">
       <r>  -21.6619    1.0000 </r>
       <r>  -21.6528    1.0000 </r>
       <r>  -21.6509    1.0000 </r>
       <r>   -2.8486    1.0000 </r>
       <r>    3.1287    1.0000 </r>
       <r>    3.3677    1.0000 </r>
       <r>    3.7153    1.0000 </r>
       <r>    4.6267    1.0000 </r>
       <r>    4.7345    1.0000 </r>
       <r>    6.7369    1.0000 </r>
       <r>    7.7382    1.0000 </r>
       <r>    8.2806    1.0000 </r>
       <r>   10.5865    0.0000 </r>
       <r>   10.9561    0.0000 </r>
       <r>   11.2589    0.0000 </r>
       <r>   12.3787    0.0000 </r>
      </set>
      <set comment="kpoint 19">
       <r>  -21.6566    1.0000 </r>
       <r>  -21.6526    1.0000 </r>
       <r>  -21.6516    1.0000 </r>
       <r>   -3.1060    1.0000 </r>
       <r>    3.3881    1.0000 </r>
       <r>    3.4803    1.0000 </r>
       <r>    3.7143    1.0000 </r>
       <r>    4.5429    1.0000 </r>
       <r>    4.6154    1.0000 </r>
       <r>    7.5250    1.0000 </r>
       <r>    8.0295    1.0000 </r>
       <r>    8.4166    1.0000 </r>
       <r>   10.3409    1.0000 </r>
       <r>   10.9821    0.0000 </r>
       <r>   11.4383    0.0000 </r>
       <r>   11.8770    0.0000 </r>
      </set>
      <set comment="kpoint 20">
       <r>  -21.6591    1.0000 </r>
       <r>  -21.6528    1.0000 </r>
       <r>  -21.6528    1.0000 </r>
       <r>   -2.9190    1.0000 </r>
       <r>    2.8915    1.0000 </r>
       <r>    3.7810    1.0000 </r>
       <r>    3.7810    1.0000 </r>
       <r>    4.6011    1.0000 </r>
       <r>    4.6137    1.0000 </r>
       <r>    7.3122    1.0000 </r>
       <r>    7.8437    1.0000 </r>
       <r>    7.8437    1.0000 </r>
       <r>   10.1137    1.0000 </r>
       <r>   11.1972    0.0000 </r>
       <r>   11.4557    0.0000 </r>
       <r>   12.4114    0.0000 </r>
      </set>
      <set comment="kpoint 21">
       <r>  -21.6637    1.0000 </r>
       <r>  -21.6528    1.0000 </r>
       <r>  -21.6527    1.0000 </r>
       <r>   -2.6789    1.0000 </r>
       <r>    2.6490    1.0000 </r>
       <r>    3.7663    1.0000 </r>
       <r>    3.8025    1.0000 </r>
       <r>    4.6444    1.0000 </r>
       <r>    4.6937    1.0000 </r>
       <r>    6.7204    1.0000 </r>
       <r>    7.6529    1.0000 </r>
       <r>    7.6808    1.0000 </r>
       <r>   10.2315    1.0000 </r>
       <r>   11.2095    0.0000 </r>
       <r>   11.2793    0.0000 </r>
       <r>   12.8234    0.0000 </r>
      </set>
      <set comment="kpoint 22">
       <r>  -21.6696    1.0000 </r>
       <r>  -21.6526    1.0000 </r>
       <r>  -21.6525    1.0000 </r>
       <r>   -2.3479    1.0000 </r>
       <r>    2.4560    1.0000 </r>
       <r>    3.6382    1.0000 </r>
       <r>    3.7730    1.0000 </r>
       <r>    4.7156    1.0000 </r>
       <r>    4.7747    1.0000 </r>
       <r>    6.0171    1.0000 </r>
       <r>    7.5067    1.0000 </r>
       <r>    7.5479    1.0000 </r>
       <r>   10.4132    1.0000 </r>
       <r>   11.1781    0.0000 </r>
       <r>   11.4149    0.0000 </r>
       <r>   12.9465    0.0000 </r>
      </set>
      <set comment="kpoint 23">
       <r>  -21.6751    1.0000 </r>
       <r>  -21.6530    1.0000 </r>
       <r>  -21.6518    1.0000 </r>
       <r>   -1.9846    1.0000 </r>
       <r>    2.3098    1.0000 </r>
       <r>    3.4795    1.0000 </r>
       <r>    3.7136    1.0000 </r>
       <r>    4.7734    1.0000 </r>
       <r>    4.8057    1.0000 </r>
       <r>    5.4351    1.0000 </r>
       <r>    7.3509    1.0000 </r>
       <r>    7.5271    1.0000 </r>
       <r>   10.4319    1.0000 </r>
       <r>   11.2341    0.0000 </r>
       <r>   11.8572    0.0000 </r>
       <r>   12.3958    0.0000 </r>
      </set>
      <set comment="kpoint 24">
       <r>  -21.6790    1.0000 </r>
       <r>  -21.6537    1.0000 </r>
       <r>  -21.6510    1.0000 </r>
       <r>   -1.6757    1.0000 </r>
       <r>    2.2052    1.0000 </r>
       <r>    3.3659    1.0000 </r>
       <r>    3.6211    1.0000 </r>
       <r>    4.7688    1.0000 </r>
       <r>    4.8181    1.0000 </r>
       <r>    5.0827    1.0000 </r>
       <r>    7.2430    1.0000 </r>
       <r>    7.5475    1.0000 </r>
       <r>   10.4632    0.9684 </r>
       <r>   11.4327    0.0000 </r>
       <r>   11.6149    0.0000 </r>
       <r>   12.4104    0.0000 </r>
      </set>
      <set comment="kpoint 25">
       <r>  -21.6804    1.0000 </r>
       <r>  -21.6546    1.0000 </r>
       <r>  -21.6503    1.0000 </r>
       <r>   -1.5250    1.0000 </r>
       <r>    2.1606    1.0000 </r>
       <r>    3.3514    1.0000 </r>
       <r>    3.4986    1.0000 </r>
       <r>    4.7005    1.0000 </r>
       <r>    4.8510    1.0000 </r>
       <r>    4.9963    1.0000 </r>
       <r>    7.1684    1.0000 </r>
       <r>    7.5802    1.0000 </r>
       <r>   10.6102    0.0000 </r>
       <r>   11.1714    0.0000 </r>
       <r>   11.6359    0.0000 </r>
       <r>   12.6809    0.0000 </r>
      </set>
      <set comment="kpoint 26">
       <r>  -21.6792    1.0000 </r>
       <r>  -21.6554    1.0000 </r>
       <r>  -21.6497    1.0000 </r>
       <r>   -1.5979    1.0000 </r>
       <r>    2.2126    1.0000 </r>
       <r>    3.3717    1.0000 </r>
       <r>    3.4458    1.0000 </r>
       <r>    4.6810    1.0000 </r>
       <r>    4.8996    1.0000 </r>
       <r>    5.0823    1.0000 </r>
       <r>    7.0916    1.0000 </r>
       <r>    7.6390    1.0000 </r>
       <r>   10.7189    0.0000 </r>
       <r>   11.2080    0.0000 </r>
       <r>   11.6436    0.0000 </r>
       <r>   12.6346    0.0000 </r>
      </set>
      <set comment="kpoint 27">
       <r>  -21.6757    1.0000 </r>
       <r>  -21.6558    1.0000 </r>
       <r>  -21.6495    1.0000 </r>
       <r>   -1.8626    1.0000 </r>
       <r>    2.3629    1.0000 </r>
       <r>    3.2754    1.0000 </r>
       <r>    3.6070    1.0000 </r>
       <r>    4.6911    1.0000 </r>
       <r>    4.9286    1.0000 </r>
       <r>    5.3563    1.0000 </r>
       <r>    7.0052    1.0000 </r>
       <r>    7.7569    1.0000 </r>
       <r>   10.7437    0.0000 </r>
       <r>   11.4598    0.0000 </r>
       <r>   11.6855    0.0000 </r>
       <r>   12.4408    0.0000 </r>
      </set>
      <set comment="kpoint 28">
       <r>  -21.6709    1.0000 </r>
       <r>  -21.6554    1.0000 </r>
       <r>  -21.6497    1.0000 </r>
       <r>   -2.2195    1.0000 </r>
       <r>    2.5829    1.0000 </r>
       <r>    3.2363    1.0000 </r>
       <r>    3.7577    1.0000 </r>
       <r>    4.6788    1.0000 </r>
       <r>    4.9084    1.0000 </r>
       <r>    5.8278    1.0000 </r>
       <r>    6.9751    1.0000 </r>
       <r>    7.9430    1.0000 </r>
       <r>   10.9025    0.0000 </r>
       <r>   11.2131    0.0000 </r>
       <r>   11.6744    0.0000 </r>
       <r>   12.5214    0.0000 </r>
      </set>
      <set comment="kpoint 29">
       <r>  -21.6659    1.0000 </r>
       <r>  -21.6543    1.0000 </r>
       <r>  -21.6502    1.0000 </r>
       <r>   -2.5712    1.0000 </r>
       <r>    2.8466    1.0000 </r>
       <r>    3.2674    1.0000 </r>
       <r>    3.8141    1.0000 </r>
       <r>    4.6430    1.0000 </r>
       <r>    4.8367    1.0000 </r>
       <r>    6.3619    1.0000 </r>
       <r>    7.1714    1.0000 </r>
       <r>    8.1511    1.0000 </r>
       <r>   11.0102    0.0000 </r>
       <r>   11.0904    0.0000 </r>
       <r>   11.2307    0.0000 </r>
       <r>   12.3127    0.0000 </r>
      </set>
      <set comment="kpoint 30">
       <r>  -21.6663    1.0000 </r>
       <r>  -21.6533    1.0000 </r>
       <r>  -21.6533    1.0000 </r>
       <r>   -2.5032    1.0000 </r>
       <r>    2.4099    1.0000 </r>
       <r>    3.9168    1.0000 </r>
       <r>    3.9168    1.0000 </r>
       <r>    4.5458    1.0000 </r>
       <r>    4.7646    1.0000 </r>
       <r>    6.6330    1.0000 </r>
       <r>    7.4380    1.0000 </r>
       <r>    7.4380    1.0000 </r>
       <r>    9.9692    1.0000 </r>
       <r>   11.1366    0.0000 </r>
       <r>   11.3912    0.0000 </r>
       <r>   12.9613    0.0000 </r>
      </set>
      <set comment="kpoint 31">
       <r>  -21.6707    1.0000 </r>
       <r>  -21.6536    1.0000 </r>
       <r>  -21.6533    1.0000 </r>
       <r>   -2.2411    1.0000 </r>
       <r>    2.2551    1.0000 </r>
       <r>    3.8840    1.0000 </r>
       <r>    3.9507    1.0000 </r>
       <r>    4.5536    1.0000 </r>
       <r>    4.8518    1.0000 </r>
       <r>    6.1759    1.0000 </r>
       <r>    7.2476    1.0000 </r>
       <r>    7.3122    1.0000 </r>
       <r>   10.0418    1.0000 </r>
       <r>   10.9926    0.0000 </r>
       <r>   11.5646    0.0000 </r>
       <r>   12.9619    0.0000 </r>
      </set>
      <set comment="kpoint 32">
       <r>  -21.6749    1.0000 </r>
       <r>  -21.6546    1.0000 </r>
       <r>  -21.6529    1.0000 </r>
       <r>   -1.9432    1.0000 </r>
       <r>    2.2032    1.0000 </r>
       <r>    3.7068    1.0000 </r>
       <r>    3.9159    1.0000 </r>
       <r>    4.6623    1.0000 </r>
       <r>    4.9005    1.0000 </r>
       <r>    5.6371    1.0000 </r>
       <r>    7.0214    1.0000 </r>
       <r>    7.2872    1.0000 </r>
       <r>   10.1578    1.0000 </r>
       <r>   10.9941    0.0000 </r>
       <r>   11.9876    0.0000 </r>
       <r>   12.4949    0.0000 </r>
      </set>
      <set comment="kpoint 33">
       <r>  -21.6776    1.0000 </r>
       <r>  -21.6564    1.0000 </r>
       <r>  -21.6522    1.0000 </r>
       <r>   -1.6774    1.0000 </r>
       <r>    2.2517    1.0000 </r>
       <r>    3.5043    1.0000 </r>
       <r>    3.8148    1.0000 </r>
       <r>    4.7317    1.0000 </r>
       <r>    4.9244    1.0000 </r>
       <r>    5.2341    1.0000 </r>
       <r>    6.8162    1.0000 </r>
       <r>    7.3145    1.0000 </r>
       <r>   10.2098    1.0000 </r>
       <r>   11.2052    0.0000 </r>
       <r>   11.8506    0.0000 </r>
       <r>   12.5294    0.0000 </r>
      </set>
      <set comment="kpoint 34">
       <r>  -21.6783    1.0000 </r>
       <r>  -21.6585    1.0000 </r>
       <r>  -21.6513    1.0000 </r>
       <r>   -1.5147    1.0000 </r>
       <r>    2.3511    1.0000 </r>
       <r>    3.3489    1.0000 </r>
       <r>    3.6593    1.0000 </r>
       <r>    4.6400    1.0000 </r>
       <r>    4.9588    1.0000 </r>
       <r>    5.1653    1.0000 </r>
       <r>    6.6588    1.0000 </r>
       <r>    7.3523    1.0000 </r>
       <r>   10.3217    1.0000 </r>
       <r>   11.3537    0.0000 </r>
       <r>   11.5591    0.0000 </r>
       <r>   12.7107    0.0000 </r>
      </set>
      <set comment="kpoint 35">
       <r>  -21.6771    1.0000 </r>
       <r>  -21.6603    1.0000 </r>
       <r>  -21.6504    1.0000 </r>
       <r>   -1.5046    1.0000 </r>
       <r>    2.3958    1.0000 </r>
       <r>    3.3386    1.0000 </r>
       <r>    3.4865    1.0000 </r>
       <r>    4.5905    1.0000 </r>
       <r>    4.9984    1.0000 </r>
       <r>    5.2785    1.0000 </r>
       <r>    6.5391    1.0000 </r>
       <r>    7.4144    1.0000 </r>
       <r>   10.5405    0.0000 </r>
       <r>   11.1380    0.0000 </r>
       <r>   11.7605    0.0000 </r>
       <r>   12.6003    0.0000 </r>
      </set>
      <set comment="kpoint 36">
       <r>  -21.6749    1.0000 </r>
       <r>  -21.6605    1.0000 </r>
       <r>  -21.6498    1.0000 </r>
       <r>   -1.6532    1.0000 </r>
       <r>    2.3815    1.0000 </r>
       <r>    3.3394    1.0000 </r>
       <r>    3.4916    1.0000 </r>
       <r>    4.6381    1.0000 </r>
       <r>    5.0119    1.0000 </r>
       <r>    5.4770    1.0000 </r>
       <r>    6.4579    1.0000 </r>
       <r>    7.5380    1.0000 </r>
       <r>   10.6954    0.0000 </r>
       <r>   11.4331    0.0000 </r>
       <r>   11.6528    0.0000 </r>
       <r>   12.4943    0.0000 </r>
      </set>
      <set comment="kpoint 37">
       <r>  -21.6728    1.0000 </r>
       <r>  -21.6587    1.0000 </r>
       <r>  -21.6495    1.0000 </r>
       <r>   -1.9164    1.0000 </r>
       <r>    2.4274    1.0000 </r>
       <r>    3.2500    1.0000 </r>
       <r>    3.6772    1.0000 </r>
       <r>    4.6764    1.0000 </r>
       <r>    4.9797    1.0000 </r>
       <r>    5.7028    1.0000 </r>
       <r>    6.5416    1.0000 </r>
       <r>    7.7304    1.0000 </r>
       <r>   10.8147    0.0000 </r>
       <r>   11.4284    0.0000 </r>
       <r>   12.0490    0.0000 </r>
       <r>   12.4226    0.0000 </r>
      </set>
      <set comment="kpoint 38">
       <r>  -21.6741    1.0000 </r>
       <r>  -21.6538    1.0000 </r>
       <r>  -21.6538    1.0000 </r>
       <r>   -2.0603    1.0000 </r>
       <r>    2.1431    1.0000 </r>
       <r>    4.0586    1.0000 </r>
       <r>    4.0586    1.0000 </r>
       <r>    4.3785    1.0000 </r>
       <r>    4.9551    1.0000 </r>
       <r>    5.9857    1.0000 </r>
       <r>    7.1486    1.0000 </r>
       <r>    7.1486    1.0000 </r>
       <r>    9.8313    1.0000 </r>
       <r>   10.7831    0.0000 </r>
       <r>   11.6606    0.0000 </r>
       <r>   12.8961    0.0000 </r>
      </set>
      <set comment="kpoint 39">
       <r>  -21.6775    1.0000 </r>
       <r>  -21.6545    1.0000 </r>
       <r>  -21.6538    1.0000 </r>
       <r>   -1.8471    1.0000 </r>
       <r>    2.1536    1.0000 </r>
       <r>    3.9448    1.0000 </r>
       <r>    4.0806    1.0000 </r>
       <r>    4.4581    1.0000 </r>
       <r>    5.0264    1.0000 </r>
       <r>    5.5884    1.0000 </r>
       <r>    6.9586    1.0000 </r>
       <r>    7.0928    1.0000 </r>
       <r>    9.8651    1.0000 </r>
       <r>   10.6956    0.0000 </r>
       <r>   11.9109    0.0000 </r>
       <r>   12.5675    0.0000 </r>
      </set>
      <set comment="kpoint 40">
       <r>  -21.6793    1.0000 </r>
       <r>  -21.6566    1.0000 </r>
       <r>  -21.6533    1.0000 </r>
       <r>   -1.6510    1.0000 </r>
       <r>    2.2884    1.0000 </r>
       <r>    3.7142    1.0000 </r>
       <r>    4.0107    1.0000 </r>
       <r>    4.6203    1.0000 </r>
       <r>    5.0564    1.0000 </r>
       <r>    5.2079    1.0000 </r>
       <r>    6.6578    1.0000 </r>
       <r>    7.1087    1.0000 </r>
       <r>    9.9465    1.0000 </r>
       <r>   10.8477    0.0000 </r>
       <r>   12.0024    0.0000 </r>
       <r>   12.5202    0.0000 </r>
      </set>
      <set comment="kpoint 41">
       <r>  -21.6787    1.0000 </r>
       <r>  -21.6597    1.0000 </r>
       <r>  -21.6525    1.0000 </r>
       <r>   -1.5146    1.0000 </r>
       <r>    2.4993    1.0000 </r>
       <r>    3.4829    1.0000 </r>
       <r>    3.8577    1.0000 </r>
       <r>    4.5462    1.0000 </r>
       <r>    5.0777    1.0000 </r>
       <r>    5.1901    1.0000 </r>
       <r>    6.3548    1.0000 </r>
       <r>    7.1442    1.0000 </r>
       <r>   10.0477    1.0000 </r>
       <r>   11.2712    0.0000 </r>
       <r>   11.5540    0.0000 </r>
       <r>   12.3723    0.0000 </r>
      </set>
      <set comment="kpoint 42">
       <r>  -21.6763    1.0000 </r>
       <r>  -21.6630    1.0000 </r>
       <r>  -21.6514    1.0000 </r>
       <r>   -1.4637    1.0000 </r>
       <r>    2.6462    1.0000 </r>
       <r>    3.2851    1.0000 </r>
       <r>    3.6627    1.0000 </r>
       <r>    4.4591    1.0000 </r>
       <r>    5.0908    1.0000 </r>
       <r>    5.4344    1.0000 </r>
       <r>    6.1110    1.0000 </r>
       <r>    7.2081    1.0000 </r>
       <r>   10.2412    1.0000 </r>
       <r>   11.2428    0.0000 </r>
       <r>   11.8085    0.0000 </r>
       <r>   12.3224    0.0000 </r>
      </set>
      <set comment="kpoint 43">
       <r>  -21.6742    1.0000 </r>
       <r>  -21.6639    1.0000 </r>
       <r>  -21.6505    1.0000 </r>
       <r>   -1.5106    1.0000 </r>
       <r>    2.5394    1.0000 </r>
       <r>    3.3219    1.0000 </r>
       <r>    3.4767    1.0000 </r>
       <r>    4.5325    1.0000 </r>
       <r>    5.0714    1.0000 </r>
       <r>    5.6000    1.0000 </r>
       <r>    6.0769    1.0000 </r>
       <r>    7.3384    1.0000 </r>
       <r>   10.5095    0.0000 </r>
       <r>   11.1823    0.0000 </r>
       <r>   11.8376    0.0000 </r>
       <r>   12.3219    0.0000 </r>
      </set>
      <set comment="kpoint 44">
       <r>  -21.6807    1.0000 </r>
       <r>  -21.6543    1.0000 </r>
       <r>  -21.6543    1.0000 </r>
       <r>   -1.7253    1.0000 </r>
       <r>    2.2104    1.0000 </r>
       <r>    4.1699    1.0000 </r>
       <r>    4.1699    1.0000 </r>
       <r>    4.2167    1.0000 </r>
       <r>    5.1298    1.0000 </r>
       <r>    5.2823    1.0000 </r>
       <r>    6.9945    1.0000 </r>
       <r>    6.9945    1.0000 </r>
       <r>    9.7215    1.0000 </r>
       <r>   10.4750    0.5792 </r>
       <r>   11.8233    0.0000 </r>
       <r>   12.4826    0.0000 </r>
      </set>
      <set comment="kpoint 45">
       <r>  -21.6824    1.0000 </r>
       <r>  -21.6552    1.0000 </r>
       <r>  -21.6542    1.0000 </r>
       <r>   -1.6095    1.0000 </r>
       <r>    2.3699    1.0000 </r>
       <r>    3.9483    1.0000 </r>
       <r>    4.1617    1.0000 </r>
       <r>    4.4297    1.0000 </r>
       <r>    4.9297    1.0000 </r>
       <r>    5.1746    1.0000 </r>
       <r>    6.8224    1.0000 </r>
       <r>    6.9823    1.0000 </r>
       <r>    9.7433    1.0000 </r>
       <r>   10.4817    0.2255 </r>
       <r>   11.9304    0.0000 </r>
       <r>   12.2786    0.0000 </r>
      </set>
      <set comment="kpoint 46">
       <r>  -21.6817    1.0000 </r>
       <r>  -21.6577    1.0000 </r>
       <r>  -21.6536    1.0000 </r>
       <r>   -1.5217    1.0000 </r>
       <r>    2.5710    1.0000 </r>
       <r>    3.7297    1.0000 </r>
       <r>    4.0507    1.0000 </r>
       <r>    4.4353    1.0000 </r>
       <r>    4.9103    1.0000 </r>
       <r>    5.1784    1.0000 </r>
       <r>    6.4860    1.0000 </r>
       <r>    7.0074    1.0000 </r>
       <r>    9.8345    1.0000 </r>
       <r>   10.7943    0.0000 </r>
       <r>   11.7412    0.0000 </r>
       <r>   12.1775    0.0000 </r>
      </set>
      <set comment="kpoint 47">
       <r>  -21.6789    1.0000 </r>
       <r>  -21.6611    1.0000 </r>
       <r>  -21.6526    1.0000 </r>
       <r>   -1.4715    1.0000 </r>
       <r>    2.7101    1.0000 </r>
       <r>    3.4646    1.0000 </r>
       <r>    3.8668    1.0000 </r>
       <r>    4.3612    1.0000 </r>
       <r>    5.1532    1.0000 </r>
       <r>    5.2323    1.0000 </r>
       <r>    6.1593    1.0000 </r>
       <r>    7.0714    1.0000 </r>
       <r>    9.9935    1.0000 </r>
       <r>   11.3629    0.0000 </r>
       <r>   11.4493    0.0000 </r>
       <r>   12.0946    0.0000 </r>
      </set>
      <set comment="kpoint 48">
       <r>  -21.6845    1.0000 </r>
       <r>  -21.6545    1.0000 </r>
       <r>  -21.6545    1.0000 </r>
       <r>   -1.5686    1.0000 </r>
       <r>    2.4872    1.0000 </r>
       <r>    4.1851    1.0000 </r>
       <r>    4.2281    1.0000 </r>
       <r>    4.2281    1.0000 </r>
       <r>    4.6219    1.0000 </r>
       <r>    5.2369    1.0000 </r>
       <r>    6.9414    1.0000 </r>
       <r>    6.9414    1.0000 </r>
       <r>    9.6594    1.0000 </r>
       <r>   10.2932    1.0000 </r>
       <r>   11.7451    0.0000 </r>
       <r>   12.1822    0.0000 </r>
      </set>
      <set comment="kpoint 49">
       <r>  -21.6842    1.0000 </r>
       <r>  -21.6554    1.0000 </r>
       <r>  -21.6543    1.0000 </r>
       <r>   -1.5386    1.0000 </r>
       <r>    2.5708    1.0000 </r>
       <r>    3.9885    1.0000 </r>
       <r>    4.1878    1.0000 </r>
       <r>    4.3861    1.0000 </r>
       <r>    4.5721    1.0000 </r>
       <r>    5.2352    1.0000 </r>
       <r>    6.7882    1.0000 </r>
       <r>    6.9500    1.0000 </r>
       <r>    9.7007    1.0000 </r>
       <r>   10.4056    1.0000 </r>
       <r>   11.8225    0.0000 </r>
       <r>   12.1400    0.0000 </r>
      </set>
      <set comment="kpoint 50">
       <r>  -21.6615    1.0000 </r>
       <r>  -21.6532    1.0000 </r>
       <r>  -21.6515    1.0000 </r>
       <r>   -2.8277    1.0000 </r>
       <r>    2.9167    1.0000 </r>
       <r>    3.5570    1.0000 </r>
       <r>    3.7926    1.0000 </r>
       <r>    4.6158    1.0000 </r>
       <r>    4.7098    1.0000 </r>
       <r>    6.8911    1.0000 </r>
       <r>    7.5930    1.0000 </r>
       <r>    8.1216    1.0000 </r>
       <r>   10.4808    0.2663 </r>
       <r>   11.0235    0.0000 </r>
       <r>   11.3491    0.0000 </r>
       <r>   12.3354    0.0000 </r>
      </set>
      <set comment="kpoint 51">
       <r>  -21.6670    1.0000 </r>
       <r>  -21.6537    1.0000 </r>
       <r>  -21.6508    1.0000 </r>
       <r>   -2.5128    1.0000 </r>
       <r>    2.6817    1.0000 </r>
       <r>    3.4441    1.0000 </r>
       <r>    3.7886    1.0000 </r>
       <r>    4.6739    1.0000 </r>
       <r>    4.8051    1.0000 </r>
       <r>    6.2291    1.0000 </r>
       <r>    7.3259    1.0000 </r>
       <r>    7.9781    1.0000 </r>
       <r>   10.6901    0.0000 </r>
       <r>   11.1393    0.0000 </r>
       <r>   11.2885    0.0000 </r>
       <r>   12.6672    0.0000 </r>
      </set>
      <set comment="kpoint 52">
       <r>  -21.6730    1.0000 </r>
       <r>  -21.6538    1.0000 </r>
       <r>  -21.6503    1.0000 </r>
       <r>   -2.1391    1.0000 </r>
       <r>    2.4628    1.0000 </r>
       <r>    3.3639    1.0000 </r>
       <r>    3.7011    1.0000 </r>
       <r>    4.7179    1.0000 </r>
       <r>    4.8579    1.0000 </r>
       <r>    5.6021    1.0000 </r>
       <r>    7.2600    1.0000 </r>
       <r>    7.8091    1.0000 </r>
       <r>   10.6541    0.0000 </r>
       <r>   11.2199    0.0000 </r>
       <r>   11.6447    0.0000 </r>
       <r>   12.6384    0.0000 </r>
      </set>
      <set comment="kpoint 53">
       <r>  -21.6779    1.0000 </r>
       <r>  -21.6537    1.0000 </r>
       <r>  -21.6501    1.0000 </r>
       <r>   -1.7854    1.0000 </r>
       <r>    2.2658    1.0000 </r>
       <r>    3.3334    1.0000 </r>
       <r>    3.5867    1.0000 </r>
       <r>    4.7271    1.0000 </r>
       <r>    4.8567    1.0000 </r>
       <r>    5.1710    1.0000 </r>
       <r>    7.2730    1.0000 </r>
       <r>    7.6934    1.0000 </r>
       <r>   10.6125    0.0000 </r>
       <r>   11.3679    0.0000 </r>
       <r>   11.7088    0.0000 </r>
       <r>   12.3039    0.0000 </r>
      </set>
      <set comment="kpoint 54">
       <r>  -21.6807    1.0000 </r>
       <r>  -21.6536    1.0000 </r>
       <r>  -21.6501    1.0000 </r>
       <r>   -1.5605    1.0000 </r>
       <r>    2.1350    1.0000 </r>
       <r>    3.3452    1.0000 </r>
       <r>    3.4942    1.0000 </r>
       <r>    4.7193    1.0000 </r>
       <r>    4.8190    1.0000 </r>
       <r>    4.9820    1.0000 </r>
       <r>    7.2927    1.0000 </r>
       <r>    7.6454    1.0000 </r>
       <r>   10.6877    0.0000 </r>
       <r>   11.1634    0.0000 </r>
       <r>   11.6310    0.0000 </r>
       <r>   12.5067    0.0000 </r>
      </set>
      <set comment="kpoint 55">
       <r>  -21.6677    1.0000 </r>
       <r>  -21.6540    1.0000 </r>
       <r>  -21.6521    1.0000 </r>
       <r>   -2.4244    1.0000 </r>
       <r>    2.4383    1.0000 </r>
       <r>    3.7048    1.0000 </r>
       <r>    3.8962    1.0000 </r>
       <r>    4.6386    1.0000 </r>
       <r>    4.7840    1.0000 </r>
       <r>    6.3516    1.0000 </r>
       <r>    7.2076    1.0000 </r>
       <r>    7.6653    1.0000 </r>
       <r>   10.2966    1.0000 </r>
       <r>   11.1404    0.0000 </r>
       <r>   11.4079    0.0000 </r>
       <r>   12.8467    0.0000 </r>
      </set>
      <set comment="kpoint 56">
       <r>  -21.6723    1.0000 </r>
       <r>  -21.6550    1.0000 </r>
       <r>  -21.6517    1.0000 </r>
       <r>   -2.1075    1.0000 </r>
       <r>    2.3066    1.0000 </r>
       <r>    3.5871    1.0000 </r>
       <r>    3.8683    1.0000 </r>
       <r>    4.6977    1.0000 </r>
       <r>    4.8472    1.0000 </r>
       <r>    5.8392    1.0000 </r>
       <r>    6.9750    1.0000 </r>
       <r>    7.5629    1.0000 </r>
       <r>   10.4178    1.0000 </r>
       <r>   11.0614    0.0000 </r>
       <r>   11.8170    0.0000 </r>
       <r>   12.7106    0.0000 </r>
      </set>
      <set comment="kpoint 57">
       <r>  -21.6761    1.0000 </r>
       <r>  -21.6560    1.0000 </r>
       <r>  -21.6514    1.0000 </r>
       <r>   -1.7945    1.0000 </r>
       <r>    2.2595    1.0000 </r>
       <r>    3.4501    1.0000 </r>
       <r>    3.7746    1.0000 </r>
       <r>    4.7518    1.0000 </r>
       <r>    4.8651    1.0000 </r>
       <r>    5.3762    1.0000 </r>
       <r>    6.8817    1.0000 </r>
       <r>    7.4797    1.0000 </r>
       <r>   10.4332    1.0000 </r>
       <r>   11.1671    0.0000 </r>
       <r>   11.9955    0.0000 </r>
       <r>   12.3836    0.0000 </r>
      </set>
      <set comment="kpoint 58">
       <r>  -21.6784    1.0000 </r>
       <r>  -21.6570    1.0000 </r>
       <r>  -21.6511    1.0000 </r>
       <r>   -1.5681    1.0000 </r>
       <r>    2.2767    1.0000 </r>
       <r>    3.3292    1.0000 </r>
       <r>    3.6685    1.0000 </r>
       <r>    4.7137    1.0000 </r>
       <r>    4.8655    1.0000 </r>
       <r>    5.1584    1.0000 </r>
       <r>    6.8190    1.0000 </r>
       <r>    7.4560    1.0000 </r>
       <r>   10.4845    0.1242 </r>
       <r>   11.2584    0.0000 </r>
       <r>   11.5749    0.0000 </r>
       <r>   12.7309    0.0000 </r>
      </set>
      <set comment="kpoint 59">
       <r>  -21.6786    1.0000 </r>
       <r>  -21.6579    1.0000 </r>
       <r>  -21.6506    1.0000 </r>
       <r>   -1.5018    1.0000 </r>
       <r>    2.3027    1.0000 </r>
       <r>    3.2885    1.0000 </r>
       <r>    3.5822    1.0000 </r>
       <r>    4.6505    1.0000 </r>
       <r>    4.8952    1.0000 </r>
       <r>    5.1559    1.0000 </r>
       <r>    6.7654    1.0000 </r>
       <r>    7.4718    1.0000 </r>
       <r>   10.6460    0.0000 </r>
       <r>   11.0196    0.0000 </r>
       <r>   11.6689    0.0000 </r>
       <r>   12.7982    0.0000 </r>
      </set>
      <set comment="kpoint 60">
       <r>  -21.6769    1.0000 </r>
       <r>  -21.6582    1.0000 </r>
       <r>  -21.6502    1.0000 </r>
       <r>   -1.6208    1.0000 </r>
       <r>    2.3121    1.0000 </r>
       <r>    3.3208    1.0000 </r>
       <r>    3.5804    1.0000 </r>
       <r>    4.6721    1.0000 </r>
       <r>    4.9356    1.0000 </r>
       <r>    5.2791    1.0000 </r>
       <r>    6.7127    1.0000 </r>
       <r>    7.5322    1.0000 </r>
       <r>   10.6879    0.0000 </r>
       <r>   11.2095    0.0000 </r>
       <r>   11.6486    0.0000 </r>
       <r>   12.7061    0.0000 </r>
      </set>
      <set comment="kpoint 61">
       <r>  -21.6739    1.0000 </r>
       <r>  -21.6576    1.0000 </r>
       <r>  -21.6501    1.0000 </r>
       <r>   -1.8834    1.0000 </r>
       <r>    2.3588    1.0000 </r>
       <r>    3.3296    1.0000 </r>
       <r>    3.7064    1.0000 </r>
       <r>    4.6986    1.0000 </r>
       <r>    4.9370    1.0000 </r>
       <r>    5.5794    1.0000 </r>
       <r>    6.6850    1.0000 </r>
       <r>    7.6608    1.0000 </r>
       <r>   10.7431    0.0000 </r>
       <r>   11.2243    0.0000 </r>
       <r>   12.0396    0.0000 </r>
       <r>   12.4551    0.0000 </r>
      </set>
      <set comment="kpoint 62">
       <r>  -21.6704    1.0000 </r>
       <r>  -21.6560    1.0000 </r>
       <r>  -21.6502    1.0000 </r>
       <r>   -2.2078    1.0000 </r>
       <r>    2.4830    1.0000 </r>
       <r>    3.3602    1.0000 </r>
       <r>    3.8193    1.0000 </r>
       <r>    4.6830    1.0000 </r>
       <r>    4.8892    1.0000 </r>
       <r>    5.9605    1.0000 </r>
       <r>    6.8305    1.0000 </r>
       <r>    7.8392    1.0000 </r>
       <r>   10.8224    0.0000 </r>
       <r>   11.1034    0.0000 </r>
       <r>   11.7862    0.0000 </r>
       <r>   12.5530    0.0000 </r>
      </set>
      <set comment="kpoint 63">
       <r>  -21.6743    1.0000 </r>
       <r>  -21.6549    1.0000 </r>
       <r>  -21.6530    1.0000 </r>
       <r>   -2.0005    1.0000 </r>
       <r>    2.1786    1.0000 </r>
       <r>    3.8136    1.0000 </r>
       <r>    4.0123    1.0000 </r>
       <r>    4.5690    1.0000 </r>
       <r>    4.9226    1.0000 </r>
       <r>    5.8446    1.0000 </r>
       <r>    6.9232    1.0000 </r>
       <r>    7.2916    1.0000 </r>
       <r>   10.0627    1.0000 </r>
       <r>   10.8683    0.0000 </r>
       <r>   11.8515    0.0000 </r>
       <r>   12.7378    0.0000 </r>
      </set>
      <set comment="kpoint 64">
       <r>  -21.6769    1.0000 </r>
       <r>  -21.6565    1.0000 </r>
       <r>  -21.6528    1.0000 </r>
       <r>   -1.7563    1.0000 </r>
       <r>    2.2271    1.0000 </r>
       <r>    3.6337    1.0000 </r>
       <r>    3.9850    1.0000 </r>
       <r>    4.6827    1.0000 </r>
       <r>    4.9353    1.0000 </r>
       <r>    5.4602    1.0000 </r>
       <r>    6.6496    1.0000 </r>
       <r>    7.2626    1.0000 </r>
       <r>   10.1484    1.0000 </r>
       <r>   10.8938    0.0000 </r>
       <r>   12.1221    0.0000 </r>
       <r>   12.3891    0.0000 </r>
      </set>
      <set comment="kpoint 65">
       <r>  -21.6778    1.0000 </r>
       <r>  -21.6589    1.0000 </r>
       <r>  -21.6524    1.0000 </r>
       <r>   -1.5664    1.0000 </r>
       <r>    2.3813    1.0000 </r>
       <r>    3.4292    1.0000 </r>
       <r>    3.8912    1.0000 </r>
       <r>    4.6844    1.0000 </r>
       <r>    4.9323    1.0000 </r>
       <r>    5.2560    1.0000 </r>
       <r>    6.4218    1.0000 </r>
       <r>    7.2677    1.0000 </r>
       <r>   10.2186    1.0000 </r>
       <r>   11.1557    0.0000 </r>
       <r>   11.5905    0.0000 </r>
       <r>   12.5680    0.0000 </r>
      </set>
      <set comment="kpoint 66">
       <r>  -21.6769    1.0000 </r>
       <r>  -21.6614    1.0000 </r>
       <r>  -21.6517    1.0000 </r>
       <r>   -1.4753    1.0000 </r>
       <r>    2.5407    1.0000 </r>
       <r>    3.2530    1.0000 </r>
       <r>    3.7582    1.0000 </r>
       <r>    4.5486    1.0000 </r>
       <r>    4.9925    1.0000 </r>
       <r>    5.3188    1.0000 </r>
       <r>    6.2489    1.0000 </r>
       <r>    7.2939    1.0000 </r>
       <r>   10.3670    1.0000 </r>
       <r>   11.1818    0.0000 </r>
       <r>   11.5615    0.0000 </r>
       <r>   12.4447    0.0000 </r>
      </set>
      <set comment="kpoint 67">
       <r>  -21.6752    1.0000 </r>
       <r>  -21.6628    1.0000 </r>
       <r>  -21.6509    1.0000 </r>
       <r>   -1.5048    1.0000 </r>
       <r>    2.5168    1.0000 </r>
       <r>    3.2445    1.0000 </r>
       <r>    3.6348    1.0000 </r>
       <r>    4.5580    1.0000 </r>
       <r>    5.0204    1.0000 </r>
       <r>    5.4741    1.0000 </r>
       <r>    6.1648    1.0000 </r>
       <r>    7.3551    1.0000 </r>
       <r>   10.5948    0.0000 </r>
       <r>   11.0703    0.0000 </r>
       <r>   11.6498    0.0000 </r>
       <r>   12.4573    0.0000 </r>
      </set>
      <set comment="kpoint 68">
       <r>  -21.6742    1.0000 </r>
       <r>  -21.6613    1.0000 </r>
       <r>  -21.6503    1.0000 </r>
       <r>   -1.6520    1.0000 </r>
       <r>    2.3902    1.0000 </r>
       <r>    3.3192    1.0000 </r>
       <r>    3.6173    1.0000 </r>
       <r>    4.6489    1.0000 </r>
       <r>    4.9972    1.0000 </r>
       <r>    5.5834    1.0000 </r>
       <r>    6.2772    1.0000 </r>
       <r>    7.4816    1.0000 </r>
       <r>   10.7105    0.0000 </r>
       <r>   11.2633    0.0000 </r>
       <r>   11.6562    0.0000 </r>
       <r>   12.4742    0.0000 </r>
      </set>
      <set comment="kpoint 69">
       <r>  -21.6798    1.0000 </r>
       <r>  -21.6556    1.0000 </r>
       <r>  -21.6538    1.0000 </r>
       <r>   -1.6868    1.0000 </r>
       <r>    2.2548    1.0000 </r>
       <r>    3.8227    1.0000 </r>
       <r>    4.1353    1.0000 </r>
       <r>    4.5207    1.0000 </r>
       <r>    5.0605    1.0000 </r>
       <r>    5.2644    1.0000 </r>
       <r>    6.7208    1.0000 </r>
       <r>    7.0958    1.0000 </r>
       <r>    9.8750    1.0000 </r>
       <r>   10.6298    0.0000 </r>
       <r>   12.0722    0.0000 </r>
       <r>   12.3732    0.0000 </r>
      </set>
      <set comment="kpoint 70">
       <r>  -21.6802    1.0000 </r>
       <r>  -21.6578    1.0000 </r>
       <r>  -21.6536    1.0000 </r>
       <r>   -1.5558    1.0000 </r>
       <r>    2.4577    1.0000 </r>
       <r>    3.6180    1.0000 </r>
       <r>    4.0953    1.0000 </r>
       <r>    4.6084    1.0000 </r>
       <r>    4.9342    1.0000 </r>
       <r>    5.1603    1.0000 </r>
       <r>    6.3849    1.0000 </r>
       <r>    7.1325    1.0000 </r>
       <r>    9.9645    1.0000 </r>
       <r>   10.7814    0.0000 </r>
       <r>   11.7699    0.0000 </r>
       <r>   12.2879    0.0000 </r>
      </set>
      <set comment="kpoint 71">
       <r>  -21.6783    1.0000 </r>
       <r>  -21.6611    1.0000 </r>
       <r>  -21.6529    1.0000 </r>
       <r>   -1.4759    1.0000 </r>
       <r>    2.6786    1.0000 </r>
       <r>    3.3877    1.0000 </r>
       <r>    3.9667    1.0000 </r>
       <r>    4.4410    1.0000 </r>
       <r>    5.0836    1.0000 </r>
       <r>    5.2222    1.0000 </r>
       <r>    6.0641    1.0000 </r>
       <r>    7.1698    1.0000 </r>
       <r>   10.0996    1.0000 </r>
       <r>   11.1734    0.0000 </r>
       <r>   11.4614    0.0000 </r>
       <r>   12.0745    0.0000 </r>
      </set>
      <set comment="kpoint 72">
       <r>  -21.6756    1.0000 </r>
       <r>  -21.6639    1.0000 </r>
       <r>  -21.6519    1.0000 </r>
       <r>   -1.4567    1.0000 </r>
       <r>    2.7446    1.0000 </r>
       <r>    3.1909    1.0000 </r>
       <r>    3.7893    1.0000 </r>
       <r>    4.4329    1.0000 </r>
       <r>    5.0857    1.0000 </r>
       <r>    5.5269    1.0000 </r>
       <r>    5.8534    1.0000 </r>
       <r>    7.2318    1.0000 </r>
       <r>   10.3248    1.0000 </r>
       <r>   11.1475    0.0000 </r>
       <r>   11.6712    0.0000 </r>
       <r>   12.1103    0.0000 </r>
      </set>
      <set comment="kpoint 73">
       <r>  -21.6830    1.0000 </r>
       <r>  -21.6560    1.0000 </r>
       <r>  -21.6543    1.0000 </r>
       <r>   -1.5438    1.0000 </r>
       <r>    2.5328    1.0000 </r>
       <r>    3.8374    1.0000 </r>
       <r>    4.1971    1.0000 </r>
       <r>    4.5085    1.0000 </r>
       <r>    4.6582    1.0000 </r>
       <r>    5.2030    1.0000 </r>
       <r>    6.6078    1.0000 </r>
       <r>    7.0396    1.0000 </r>
       <r>    9.7740    1.0000 </r>
       <r>   10.4933    0.0083 </r>
       <r>   11.9047    0.0000 </r>
       <r>   12.0912    0.0000 </r>
      </set>
      <set comment="kpoint 74">
       <r>  -21.6813    1.0000 </r>
       <r>  -21.6583    1.0000 </r>
       <r>  -21.6539    1.0000 </r>
       <r>   -1.4989    1.0000 </r>
       <r>    2.6572    1.0000 </r>
       <r>    3.6369    1.0000 </r>
       <r>    4.1244    1.0000 </r>
       <r>    4.4367    1.0000 </r>
       <r>    4.8429    1.0000 </r>
       <r>    5.1779    1.0000 </r>
       <r>    6.2833    1.0000 </r>
       <r>    7.1025    1.0000 </r>
       <r>    9.9018    1.0000 </r>
       <r>   10.7396    0.0000 </r>
       <r>   11.7275    0.0000 </r>
       <r>   11.9932    0.0000 </r>
      </set>
      <set comment="kpoint 75">
       <r>  -21.6745    1.0000 </r>
       <r>  -21.6577    1.0000 </r>
       <r>  -21.6514    1.0000 </r>
       <r>   -1.8430    1.0000 </r>
       <r>    2.2724    1.0000 </r>
       <r>    3.4848    1.0000 </r>
       <r>    3.8607    1.0000 </r>
       <r>    4.7334    1.0000 </r>
       <r>    4.8850    1.0000 </r>
       <r>    5.6493    1.0000 </r>
       <r>    6.5504    1.0000 </r>
       <r>    7.4724    1.0000 </r>
       <r>   10.5212    0.0000 </r>
       <r>   10.9783    0.0000 </r>
       <r>   12.1831    0.0000 </r>
       <r>   12.3916    0.0000 </r>
      </set>
      <set comment="kpoint 76">
       <r>  -21.6759    1.0000 </r>
       <r>  -21.6599    1.0000 </r>
       <r>  -21.6515    1.0000 </r>
       <r>   -1.6184    1.0000 </r>
       <r>    2.3589    1.0000 </r>
       <r>    3.3520    1.0000 </r>
       <r>    3.8143    1.0000 </r>
       <r>    4.7093    1.0000 </r>
       <r>    4.9035    1.0000 </r>
       <r>    5.4344    1.0000 </r>
       <r>    6.3411    1.0000 </r>
       <r>    7.3910    1.0000 </r>
       <r>   10.5625    0.0000 </r>
       <r>   11.0630    0.0000 </r>
       <r>   11.5972    0.0000 </r>
       <r>   12.6076    0.0000 </r>
      </set>
      <set comment="kpoint 77">
       <r>  -21.6765    1.0000 </r>
       <r>  -21.6612    1.0000 </r>
       <r>  -21.6516    1.0000 </r>
       <r>   -1.4907    1.0000 </r>
       <r>    2.4962    1.0000 </r>
       <r>    3.2149    1.0000 </r>
       <r>    3.7937    1.0000 </r>
       <r>    4.6130    1.0000 </r>
       <r>    4.9129    1.0000 </r>
       <r>    5.3325    1.0000 </r>
       <r>    6.2561    1.0000 </r>
       <r>    7.3610    1.0000 </r>
[...]
       <r>   10.8674    0.0000 </r>
       <r>   11.6534    0.0000 </r>
       <r>   12.4753    0.0000 </r>
      </set>
      <set comment="kpoint 79">
       <r>  -21.6767    1.0000 </r>
       <r>  -21.6617    1.0000 </r>
       <r>  -21.6529    1.0000 </r>
       <r>   -1.4866    1.0000 </r>
       <r>    2.6269    1.0000 </r>
       <r>    3.2760    1.0000 </r>
       <r>    4.0279    1.0000 </r>
       <r>    4.6207    1.0000 </r>
       <r>    4.9081    1.0000 </r>
       <r>    5.3061    1.0000 </r>
       <r>    5.9302    1.0000 </r>
       <r>    7.2891    1.0000 </r>
       <r>   10.3996    1.0000 </r>
       <r>   11.0530    0.0000 </r>
       <r>   11.2380    0.0000 </r>
       <r>   12.1868    0.0000 </r>
      </set>
      <set comment="kpoint 80">
       <r>  -21.6753    1.0000 </r>
       <r>  -21.6637    1.0000 </r>
       <r>  -21.6526    1.0000 </r>
       <r>   -1.4536    1.0000 </r>
       <r>    2.7792    1.0000 </r>
       <r>    3.1188    1.0000 </r>
       <r>    3.9725    1.0000 </r>
       <r>    4.5090    1.0000 </r>
       <r>    4.9871    1.0000 </r>
       <r>    5.4296    1.0000 </r>
       <r>    5.7412    1.0000 </r>
       <r>    7.3072    1.0000 </r>
       <r>   10.5902    0.0000 </r>
       <r>   10.9422    0.0000 </r>
       <r>   11.3019    0.0000 </r>
       <r>   12.0402    0.0000 </r>
      </set>
      <set comment="kpoint 81">
       <r>  -21.6750    1.0000 </r>
       <r>  -21.6631    1.0000 </r>
       <r>  -21.6520    1.0000 </r>
       <r>   -1.4983    1.0000 </r>
       <r>    2.5887    1.0000 </r>
       <r>    3.2090    1.0000 </r>
       <r>    3.8852    1.0000 </r>
       <r>    4.5844    1.0000 </r>
       <r>    4.9645    1.0000 </r>
       <r>    5.5143    1.0000 </r>
       <r>    5.8768    1.0000 </r>
       <r>    7.3292    1.0000 </r>
       <r>   10.6973    0.0000 </r>
       <r>   10.9365    0.0000 </r>
       <r>   11.2999    0.0000 </r>
       <r>   12.3903    0.0000 </r>
      </set>
      <set comment="kpoint 82">
       <r>  -21.6792    1.0000 </r>
       <r>  -21.6598    1.0000 </r>
       <r>  -21.6538    1.0000 </r>
       <r>   -1.4883    1.0000 </r>
       <r>    2.6709    1.0000 </r>
       <r>    3.4527    1.0000 </r>
       <r>    4.1383    1.0000 </r>
       <r>    4.6939    1.0000 </r>
       <r>    4.7609    1.0000 </r>
       <r>    5.1463    1.0000 </r>
       <r>    6.0197    1.0000 </r>
       <r>    7.2255    1.0000 </r>
       <r>   10.1248    1.0000 </r>
       <r>   10.7758    0.0000 </r>
       <r>   11.5408    0.0000 </r>
       <r>   11.9871    0.0000 </r>
      </set>
      <set comment="kpoint 83">
       <r>  -21.6769    1.0000 </r>
       <r>  -21.6625    1.0000 </r>
       <r>  -21.6535    1.0000 </r>
       <r>   -1.4539    1.0000 </r>
       <r>    2.8284    1.0000 </r>
       <r>    3.2507    1.0000 </r>
       <r>    4.0922    1.0000 </r>
       <r>    4.5352    1.0000 </r>
       <r>    5.0753    1.0000 </r>
       <r>    5.0845    1.0000 </r>
       <r>    5.7545    1.0000 </r>
       <r>    7.2804    1.0000 </r>
       <r>   10.3373    1.0000 </r>
       <r>   10.9673    0.0000 </r>
       <r>   11.3053    0.0000 </r>
       <r>   11.8175    0.0000 </r>
      </set>
      <set comment="kpoint 84">
       <r>  -21.6754    1.0000 </r>
       <r>  -21.6638    1.0000 </r>
       <r>  -21.6535    1.0000 </r>
       <r>   -1.4470    1.0000 </r>
       <r>    2.8938    1.0000 </r>
       <r>    3.1224    1.0000 </r>
       <r>    4.0961    1.0000 </r>
       <r>    4.6565    1.0000 </r>
       <r>    4.9353    1.0000 </r>
       <r>    5.1809    1.0000 </r>
       <r>    5.6207    1.0000 </r>
       <r>    7.3296    1.0000 </r>
       <r>   10.6702    0.0000 </r>
       <r>   10.9374    0.0000 </r>
       <r>   10.9993    0.0000 </r>
       <r>   11.8223    0.0000 </r>
      </set>
     </set>
    </set>
   </array>
  </eigenvalues>
  <separator name="orbital magnetization" >
   <v name="MAGDIPOLOUT">      0.00000000      0.00000000      0.00000000</v>
  </separator>
  <dos>
   <i name="efermi">     10.47637856 </i>
   <total>
    <array>
     <dimension dim="1">gridpoints</dimension>
     <dimension dim="2">spin</dimension>
     <field>energy</field>
     <field>total</field>
     <field>integrated</field>
     <set>
      <set comment="spin 1">
       <r>   -23.4406     0.0000     0.0000 </r>
       <r>   -23.3118     0.0000     0.0000 </r>
       <r>   -23.1831     0.0000     0.0000 </r>
       <r>   -23.0543     0.0000     0.0000 </r>
       <r>   -22.9255     0.0000     0.0000 </r>
       <r>   -22.7967     0.0000     0.0000 </r>
       <r>   -22.6679     0.0000     0.0000 </r>
       <r>   -22.5391     0.0000     0.0000 </r>
       <r>   -22.4103     0.0000     0.0000 </r>
       <r>   -22.2816     0.0000     0.0000 </r>
       <r>   -22.1528     0.0000     0.0000 </r>
       <r>   -22.0240     0.0000     0.0000 </r>
       <r>   -21.8952     0.0000     0.0000 </r>
       <r>   -21.7664     0.0000     0.0000 </r>
       <r>   -21.6376    46.0704     5.9332 </r>
       <r>   -21.5088     0.0000     6.0000 </r>
       <r>   -21.3801     0.0000     6.0000 </r>
       <r>   -21.2513     0.0000     6.0000 </r>
       <r>   -21.1225     0.0000     6.0000 </r>
       <r>   -20.9937     0.0000     6.0000 </r>
       <r>   -20.8649     0.0000     6.0000 </r>
       <r>   -20.7361     0.0000     6.0000 </r>
       <r>   -20.6074     0.0000     6.0000 </r>
       <r>   -20.4786     0.0000     6.0000 </r>
       <r>   -20.3498     0.0000     6.0000 </r>
       <r>   -20.2210     0.0000     6.0000 </r>
       <r>   -20.0922     0.0000     6.0000 </r>
       <r>   -19.9634     0.0000     6.0000 </r>
       <r>   -19.8346     0.0000     6.0000 </r>
       <r>   -19.7059     0.0000     6.0000 </r>
       <r>   -19.5771     0.0000     6.0000 </r>
       <r>   -19.4483     0.0000     6.0000 </r>
       <r>   -19.3195     0.0000     6.0000 </r>
       <r>   -19.1907     0.0000     6.0000 </r>
       <r>   -19.0619     0.0000     6.0000 </r>
       <r>   -18.9331     0.0000     6.0000 </r>
       <r>   -18.8044     0.0000     6.0000 </r>
       <r>   -18.6756     0.0000     6.0000 </r>
       <r>   -18.5468     0.0000     6.0000 </r>
       <r>   -18.4180     0.0000     6.0000 </r>
       <r>   -18.2892     0.0000     6.0000 </r>
       <r>   -18.1604     0.0000     6.0000 </r>
       <r>   -18.0317     0.0000     6.0000 </r>
       <r>   -17.9029     0.0000     6.0000 </r>
       <r>   -17.7741     0.0000     6.0000 </r>
       <r>   -17.6453     0.0000     6.0000 </r>
       <r>   -17.5165     0.0000     6.0000 </r>
       <r>   -17.3877     0.0000     6.0000 </r>
       <r>   -17.2589     0.0000     6.0000 </r>
       <r>   -17.1302     0.0000     6.0000 </r>
       <r>   -17.0014     0.0000     6.0000 </r>
       <r>   -16.8726     0.0000     6.0000 </r>
       <r>   -16.7438     0.0000     6.0000 </r>
       <r>   -16.6150     0.0000     6.0000 </r>
       <r>   -16.4862     0.0000     6.0000 </r>
       <r>   -16.3574     0.0000     6.0000 </r>
       <r>   -16.2287     0.0000     6.0000 </r>
       <r>   -16.0999     0.0000     6.0000 </r>
       <r>   -15.9711     0.0000     6.0000 </r>
       <r>   -15.8423     0.0000     6.0000 </r>
       <r>   -15.7135     0.0000     6.0000 </r>
       <r>   -15.5847     0.0000     6.0000 </r>
       <r>   -15.4560     0.0000     6.0000 </r>
       <r>   -15.3272     0.0000     6.0000 </r>
       <r>   -15.1984     0.0000     6.0000 </r>
       <r>   -15.0696     0.0000     6.0000 </r>
       <r>   -14.9408     0.0000     6.0000 </r>
       <r>   -14.8120     0.0000     6.0000 </r>
       <r>   -14.6832     0.0000     6.0000 </r>
       <r>   -14.5545     0.0000     6.0000 </r>
       <r>   -14.4257     0.0000     6.0000 </r>
       <r>   -14.2969     0.0000     6.0000 </r>
       <r>   -14.1681     0.0000     6.0000 </r>
       <r>   -14.0393     0.0000     6.0000 </r>
       <r>   -13.9105     0.0000     6.0000 </r>
       <r>   -13.7817     0.0000     6.0000 </r>
       <r>   -13.6530     0.0000     6.0000 </r>
       <r>   -13.5242     0.0000     6.0000 </r>
       <r>   -13.3954     0.0000     6.0000 </r>
       <r>   -13.2666     0.0000     6.0000 </r>
       <r>   -13.1378     0.0000     6.0000 </r>
       <r>   -13.0090     0.0000     6.0000 </r>
       <r>   -12.8803     0.0000     6.0000 </r>
       <r>   -12.7515     0.0000     6.0000 </r>
       <r>   -12.6227     0.0000     6.0000 </r>
       <r>   -12.4939     0.0000     6.0000 </r>
       <r>   -12.3651     0.0000     6.0000 </r>
       <r>   -12.2363     0.0000     6.0000 </r>
       <r>   -12.1075     0.0000     6.0000 </r>
       <r>   -11.9788     0.0000     6.0000 </r>
       <r>   -11.8500     0.0000     6.0000 </r>
       <r>   -11.7212     0.0000     6.0000 </r>
       <r>   -11.5924     0.0000     6.0000 </r>
       <r>   -11.4636     0.0000     6.0000 </r>
       <r>   -11.3348     0.0000     6.0000 </r>
       <r>   -11.2060     0.0000     6.0000 </r>
       <r>   -11.0773     0.0000     6.0000 </r>
       <r>   -10.9485     0.0000     6.0000 </r>
       <r>   -10.8197     0.0000     6.0000 </r>
       <r>   -10.6909     0.0000     6.0000 </r>
       <r>   -10.5621     0.0000     6.0000 </r>
       <r>   -10.4333     0.0000     6.0000 </r>
       <r>   -10.3046     0.0000     6.0000 </r>
       <r>   -10.1758     0.0000     6.0000 </r>
       <r>   -10.0470     0.0000     6.0000 </r>
       <r>    -9.9182     0.0000     6.0000 </r>
       <r>    -9.7894     0.0000     6.0000 </r>
       <r>    -9.6606     0.0000     6.0000 </r>
       <r>    -9.5318     0.0000     6.0000 </r>
       <r>    -9.4031     0.0000     6.0000 </r>
       <r>    -9.2743     0.0000     6.0000 </r>
       <r>    -9.1455     0.0000     6.0000 </r>
       <r>    -9.0167     0.0000     6.0000 </r>
       <r>    -8.8879     0.0000     6.0000 </r>
       <r>    -8.7591     0.0000     6.0000 </r>
       <r>    -8.6303     0.0000     6.0000 </r>
       <r>    -8.5016     0.0000     6.0000 </r>
       <r>    -8.3728     0.0000     6.0000 </r>
       <r>    -8.2440     0.0000     6.0000 </r>
       <r>    -8.1152     0.0000     6.0000 </r>
       <r>    -7.9864     0.0000     6.0000 </r>
       <r>    -7.8576     0.0000     6.0000 </r>
       <r>    -7.7289     0.0000     6.0000 </r>
       <r>    -7.6001     0.0000     6.0000 </r>
       <r>    -7.4713     0.0000     6.0000 </r>
       <r>    -7.3425     0.0000     6.0000 </r>
       <r>    -7.2137     0.0000     6.0000 </r>
       <r>    -7.0849     0.0000     6.0000 </r>
       <r>    -6.9561     0.0000     6.0000 </r>
       <r>    -6.8274     0.0000     6.0000 </r>
       <r>    -6.6986     0.0000     6.0000 </r>
       <r>    -6.5698     0.0000     6.0000 </r>
       <r>    -6.4410     0.0000     6.0000 </r>
       <r>    -6.3122     0.0000     6.0000 </r>
       <r>    -6.1834     0.0000     6.0000 </r>
       <r>    -6.0546     0.0000     6.0000 </r>
       <r>    -5.9259     0.0000     6.0000 </r>
       <r>    -5.7971     0.0000     6.0000 </r>
       <r>    -5.6683     0.0000     6.0000 </r>
       <r>    -5.5395     0.0000     6.0000 </r>
       <r>    -5.4107     0.0000     6.0000 </r>
       <r>    -5.2819     0.0000     6.0000 </r>
       <r>    -5.1531     0.0000     6.0000 </r>
       <r>    -5.0244     0.0000     6.0000 </r>
       <r>    -4.8956     0.0000     6.0000 </r>
       <r>    -4.7668     0.0000     6.0000 </r>
       <r>    -4.6380     0.0000     6.0000 </r>
       <r>    -4.5092     0.0000     6.0000 </r>
       <r>    -4.3804     0.0000     6.0000 </r>
       <r>    -4.2517     0.0000     6.0000 </r>
       <r>    -4.1229     0.0000     6.0000 </r>
       <r>    -3.9941     0.0000     6.0000 </r>
       <r>    -3.8653     0.0000     6.0000 </r>
       <r>    -3.7365     0.0000     6.0000 </r>
       <r>    -3.6077     0.0000     6.0000 </r>
       <r>    -3.4789     0.0000     6.0000 </r>
       <r>    -3.3502     0.0000     6.0000 </r>
       <r>    -3.2214     0.0489     6.0072 </r>
       <r>    -3.0926     0.0823     6.0243 </r>
       <r>    -2.9638     0.2262     6.0537 </r>
       <r>    -2.8350     0.1905     6.0837 </r>
       <r>    -2.7062     0.1697     6.1247 </r>
       <r>    -2.5774     0.0160     6.1559 </r>
       <r>    -2.4487     0.5514     6.2358 </r>
       <r>    -2.3199     0.3393     6.3013 </r>
       <r>    -2.1911     0.5639     6.3739 </r>
       <r>    -2.0623     0.8646     6.4855 </r>
       <r>    -1.9335     0.6647     6.5744 </r>
       <r>    -1.8047     0.9306     6.7070 </r>
       <r>    -1.6760     0.5522     6.9059 </r>
       <r>    -1.5472     2.7858     7.3738 </r>
       <r>    -1.4184     2.7992     8.0000 </r>
       <r>    -1.2896     0.0000     8.0000 </r>
       <r>    -1.1608     0.0000     8.0000 </r>
       <r>    -1.0320     0.0000     8.0000 </r>
       <r>    -0.9032     0.0000     8.0000 </r>
       <r>    -0.7745     0.0000     8.0000 </r>
       <r>    -0.6457     0.0000     8.0000 </r>
       <r>    -0.5169     0.0000     8.0000 </r>
       <r>    -0.3881     0.0000     8.0000 </r>
       <r>    -0.2593     0.0000     8.0000 </r>
       <r>    -0.1305     0.0000     8.0000 </r>
       <r>    -0.0017     0.0000     8.0000 </r>
       <r>     0.1270     0.0000     8.0000 </r>
       <r>     0.2558     0.0000     8.0000 </r>
       <r>     0.3846     0.0000     8.0000 </r>
       <r>     0.5134     0.0000     8.0000 </r>
       <r>     0.6422     0.0000     8.0000 </r>
       <r>     0.7710     0.0000     8.0000 </r>
       <r>     0.8997     0.0000     8.0000 </r>
       <r>     1.0285     0.0000     8.0000 </r>
       <r>     1.1573     0.0000     8.0000 </r>
       <r>     1.2861     0.0000     8.0000 </r>
       <r>     1.4149     0.0000     8.0000 </r>
       <r>     1.5437     0.0000     8.0000 </r>
       <r>     1.6725     0.0000     8.0000 </r>
       <r>     1.8012     0.0000     8.0000 </r>
       <r>     1.9300     0.0000     8.0000 </r>
       <r>     2.0588     0.2262     8.0291 </r>
       <r>     2.1876     0.9684     8.1757 </r>
       <r>     2.3164     2.9508     8.6822 </r>
       <r>     2.4452     1.4818     9.0466 </r>
       <r>     2.5740     1.6315     9.4154 </r>
       <r>     2.7027     1.9348     9.7166 </r>
       <r>     2.8315     0.6015     9.8253 </r>
       <r>     2.9603     0.5514     9.9172 </r>
       <r>     3.0891     0.0566     9.9244 </r>
       <r>     3.2179     0.7176    10.1042 </r>
       <r>     3.3467     3.9933    10.7774 </r>
       <r>     3.4754     2.8646    11.4732 </r>
       <r>     3.6042     2.3692    12.0083 </r>
       <r>     3.7330     2.9122    12.6709 </r>
       <r>     3.8618     2.7583    13.1973 </r>
       <r>     3.9906     1.7590    13.5929 </r>
       <r>     4.1194     1.1453    13.8635 </r>
       <r>     4.2482     0.5087    14.0109 </r>
       <r>     4.3769     0.1094    14.0250 </r>
       <r>     4.5057     1.6004    14.2443 </r>
       <r>     4.6345     3.1764    14.8733 </r>
       <r>     4.7633     6.5420    16.1461 </r>
       <r>     4.8921     4.1402    16.9711 </r>
       <r>     5.0209     2.5304    17.8962 </r>
       <r>     5.1497     1.9215    18.2347 </r>
       <r>     5.2784     1.9883    18.7950 </r>
       <r>     5.4072     1.1878    19.0742 </r>
       <r>     5.5360     1.2270    19.3633 </r>
       <r>     5.6648     1.1002    19.5727 </r>
       <r>     5.7936     0.6786    19.6714 </r>
       <r>     5.9224     0.5539    19.8082 </r>
       <r>     6.0511     0.3930    19.9405 </r>
       <r>     6.1799     0.7605    20.0916 </r>
       <r>     6.3087     1.5268    20.2959 </r>
       <r>     6.4375     0.7593    20.4810 </r>
       <r>     6.5663     0.4220    20.6015 </r>
       <r>     6.6951     1.0364    20.7570 </r>
       <r>     6.8239     0.9539    20.9922 </r>
       <r>     6.9526     0.8481    21.1425 </r>
       <r>     7.0814     0.8390    21.3707 </r>
       <r>     7.2102     1.4037    21.6582 </r>
       <r>     7.3390     4.6137    22.3557 </r>
       <r>     7.4678     1.0772    22.6376 </r>
       <r>     7.5966     2.0792    23.0397 </r>
       <r>     7.7254     1.8828    23.3531 </r>
       <r>     7.8541     1.3070    23.6394 </r>
       <r>     7.9829     0.7616    23.7622 </r>
       <r>     8.1117     0.5085    23.8716 </r>
       <r>     8.2405     0.1947    23.9277 </r>
       <r>     8.3693     0.0000    23.9718 </r>
       <r>     8.4981     0.0212    24.0000 </r>
       <r>     8.6268     0.0000    24.0000 </r>
       <r>     8.7556     0.0000    24.0000 </r>
       <r>     8.8844     0.0000    24.0000 </r>
       <r>     9.0132     0.0000    24.0000 </r>
       <r>     9.1420     0.0000    24.0000 </r>
       <r>     9.2708     0.0000    24.0000 </r>
       <r>     9.3996     0.0000    24.0000 </r>
       <r>     9.5283     0.0000    24.0000 </r>
       <r>     9.6571     0.0159    24.0020 </r>
       <r>     9.7859     0.3739    24.0645 </r>
       <r>     9.9147     0.5032    24.1577 </r>
       <r>    10.0435     0.6154    24.2595 </r>
       <r>    10.1723     1.0726    24.4440 </r>
       <r>    10.3011     0.7922    24.6236 </r>
       <r>    10.4298     1.4851    24.9113 </r>
       <r>    10.5586     1.8389    25.2209 </r>
       <r>    10.6874     3.1005    25.7803 </r>
       <r>    10.8162     1.4815    26.1689 </r>
       <r>    10.9450     1.4151    26.3953 </r>
       <r>    11.0738     2.3194    26.8722 </r>
       <r>    11.2025     3.3929    27.3964 </r>
       <r>    11.3313     2.6547    28.1116 </r>
       <r>    11.4601     2.0070    28.4906 </r>
       <r>    11.5889     2.0792    28.8449 </r>
       <r>    11.7177     2.9492    29.4158 </r>
       <r>    11.8465     1.6592    29.7084 </r>
       <r>    11.9753     0.5821    29.8483 </r>
       <r>    12.1040     1.9786    30.2321 </r>
       <r>    12.2328     0.7210    30.4160 </r>
       <r>    12.3616     1.5483    30.6373 </r>
       <r>    12.4904     1.9531    31.1045 </r>
       <r>    12.6192     1.3431    31.4629 </r>
       <r>    12.7480     1.5681    31.7759 </r>
       <r>    12.8768     0.6787    31.8653 </r>
       <r>    13.0055     0.7775    31.9709 </r>
       <r>    13.1343     0.0000    31.9927 </r>
       <r>    13.2631     0.0000    31.9927 </r>
       <r>    13.3919     0.0000    31.9927 </r>
       <r>    13.5207     0.0000    32.0000 </r>
       <r>    13.6495     0.0000    32.0000 </r>
       <r>    13.7782     0.0000    32.0000 </r>
       <r>    13.9070     0.0000    32.0000 </r>
       <r>    14.0358     0.0000    32.0000 </r>
       <r>    14.1646     0.0000    32.0000 </r>
       <r>    14.2934     0.0000    32.0000 </r>
       <r>    14.4222     0.0000    32.0000 </r>
       <r>    14.5510     0.0000    32.0000 </r>
       <r>    14.6797     0.0000    32.0000 </r>
       <r>    14.8085     0.0000    32.0000 </r>
       <r>    14.9373     0.0000    32.0000 </r>
       <r>    15.0661     0.0000    32.0000 </r>
       <r>    15.1949     0.0000    32.0000 </r>
      </set>
     </set>
    </array>
   </total>
  </dos>
 </calculation>
 <structure name="finalpos" >
  <crystal>
   <varray name="basis" >
    <v>       0.00000000       3.06859946       3.06859946 </v>
    <v>       3.06859946       0.00000000       3.06859946 </v>
    <v>       3.06859946       3.06859946       0.00000000 </v>
   </varray>
   <i name="volume">     57.78972261 </i>
   <varray name="rec_basis" >
    <v>      -0.16294078       0.16294078       0.16294078 </v>
    <v>       0.16294078      -0.16294078       0.16294078 </v>
    <v>       0.16294078       0.16294078      -0.16294078 </v>
   </varray>
  </crystal>
  <varray name="positions" >
   <v>       0.75000000       0.75000000       0.75000000 </v>
   <v>       0.25000000       0.25000000       0.25000000 </v>
   <v>       0.00000000       0.00000000       0.00000000 </v>
  </varray>
 </structure>
</modeling>
