 running  128 mpi-ranks, with    1 threads/rank, on    1 nodes
 distrk:  each k-point on   32 cores,    4 groups
 distr:  one band on   16 cores,    2 groups
 vasp.6.4.3 19Mar24 (build Jun  3 2025 16:21:13) complex                         
 POSCAR found type information on POSCAR NaCl
 POSCAR found :  2 types and       2 ions
 Reading from existing POTCAR
 scaLAPACK will be used
 Reading from existing POTCAR
 LDA part: xc-table for (Slater+PW92), standard interpolation
 -----------------------------------------------------------------------------
|                                                                             |
|           W    W    AA    RRRRR   N    N  II  N    N   GGGG   !!!           |
|           W    W   A  A   R    R  NN   N  II  NN   N  G    G  !!!           |
|           W    W  A    A  R    R  N N  N  II  N N  N  G       !!!           |
|           W WW W  AAAAAA  RRRRR   N  N N  II  N  N N  G  GGG   !            |
|           WW  WW  A    A  R   R   N   NN  II  N   NN  G    G                |
|           W    W  A    A  R    R  N    N  II  N    N   GGGG   !!!           |
|                                                                             |
|     The requested file  could not be found or opened for reading            |
|     k-point information. Automatic k-point generation is used as a          |
|     fallback, which may lead to unwanted results.                           |
|                                                                             |
 -----------------------------------------------------------------------------

 INCAR ok, starting setup
 POSCAR ok, starting setup
 FFT: planning ... GRIDC
 FFT: planning ... GRID_SOFT
 FFT: planning ... GRID
 WAVECAR not read
 entering main loop
       N       E                     dE             d eps       ncg     rms          rms(c)
DAV:   1     0.121914022856E+03    0.12191E+03   -0.52027E+03  5600   0.434E+02
DAV:   2     0.201260053650E+01   -0.11990E+03   -0.10707E+03  5688   0.179E+02
DAV:   3    -0.687027954131E+01   -0.88829E+01   -0.87691E+01  6768   0.393E+01
DAV:   4    -0.697736975773E+01   -0.10709E+00   -0.10705E+00  6424   0.435E+00
DAV:   5    -0.697810906025E+01   -0.73930E-03   -0.73929E-03  6648   0.374E-01    0.215E+00
DAV:   6    -0.678228405577E+01    0.19583E+00   -0.14006E-01  6936   0.143E+00    0.153E+00
DAV:   7    -0.677149643262E+01    0.10788E-01   -0.48721E-02  7632   0.755E-01    0.115E+00
Sub-Space-Matrix
