   3   3   0   0
  0.2196093E+02  0.4533452E-09  0.4533452E-09  0.4533452E-09  0.5000000E-15
  1.000000000000000E-004
  CAR
 unknown system
     15.95091943    -30.54306282  301     11.08363503      1.00000000
    -30.543  0.0000E+00  0.0000E+00
    -30.388  0.0000E+00  0.0000E+00
    -30.233  0.0000E+00  0.0000E+00
    -30.078  0.0000E+00  0.0000E+00
    -29.923  0.0000E+00  0.0000E+00
    -29.768  0.0000E+00  0.0000E+00
    -29.613  0.0000E+00  0.0000E+00
    -29.458  0.0000E+00  0.0000E+00
    -29.303  0.0000E+00  0.0000E+00
    -29.148  0.0000E+00  0.0000E+00
    -28.993  0.0000E+00  0.0000E+00
    -28.838  0.0000E+00  0.0000E+00
    -28.683  0.0000E+00  0.0000E+00
    -28.528  0.0000E+00  0.0000E+00
    -28.373  0.1290E+02  0.2000E+01
    -28.218  0.0000E+00  0.2000E+01
    -28.063  0.0000E+00  0.2000E+01
    -27.908  0.0000E+00  0.2000E+01
    -27.753  0.0000E+00  0.2000E+01
    -27.598  0.0000E+00  0.2000E+01
    -27.443  0.0000E+00  0.2000E+01
    -27.288  0.0000E+00  0.2000E+01
    -27.134  0.0000E+00  0.2000E+01
    -26.979  0.0000E+00  0.2000E+01
    -26.824  0.0000E+00  0.2000E+01
    -26.669  0.0000E+00  0.2000E+01
    -26.514  0.0000E+00  0.2000E+01
    -26.359  0.0000E+00  0.2000E+01
    -26.204  0.0000E+00  0.2000E+01
    -26.049  0.0000E+00  0.2000E+01
    -25.894  0.0000E+00  0.2000E+01
    -25.739  0.0000E+00  0.2000E+01
    -25.584  0.0000E+00  0.2000E+01
    -25.429  0.0000E+00  0.2000E+01
    -25.274  0.0000E+00  0.2000E+01
    -25.119  0.0000E+00  0.2000E+01
    -24.964  0.0000E+00  0.2000E+01
    -24.809  0.0000E+00  0.2000E+01
    -24.654  0.0000E+00  0.2000E+01
    -24.499  0.0000E+00  0.2000E+01
    -24.344  0.0000E+00  0.2000E+01
    -24.189  0.0000E+00  0.2000E+01
    -24.034  0.0000E+00  0.2000E+01
    -23.879  0.0000E+00  0.2000E+01
    -23.724  0.0000E+00  0.2000E+01
    -23.569  0.0000E+00  0.2000E+01
    -23.414  0.0000E+00  0.2000E+01
    -23.259  0.0000E+00  0.2000E+01
    -23.104  0.0000E+00  0.2000E+01
    -22.949  0.0000E+00  0.2000E+01
    -22.794  0.0000E+00  0.2000E+01
    -22.639  0.0000E+00  0.2000E+01
    -22.484  0.0000E+00  0.2000E+01
    -22.329  0.0000E+00  0.2000E+01
    -22.174  0.0000E+00  0.2000E+01
    -22.019  0.0000E+00  0.2000E+01
    -21.864  0.0000E+00  0.2000E+01
    -21.709  0.0000E+00  0.2000E+01
    -21.554  0.0000E+00  0.2000E+01
    -21.399  0.0000E+00  0.2000E+01
    -21.244  0.0000E+00  0.2000E+01
    -21.089  0.0000E+00  0.2000E+01
    -20.934  0.0000E+00  0.2000E+01
    -20.779  0.0000E+00  0.2000E+01
    -20.624  0.0000E+00  0.2000E+01
    -20.469  0.0000E+00  0.2000E+01
    -20.314  0.0000E+00  0.2000E+01
    -20.159  0.0000E+00  0.2000E+01
    -20.004  0.0000E+00  0.2000E+01
    -19.849  0.0000E+00  0.2000E+01
    -19.694  0.0000E+00  0.2000E+01
    -19.539  0.0000E+00  0.2000E+01
    -19.385  0.0000E+00  0.2000E+01
    -19.230  0.0000E+00  0.2000E+01
    -19.075  0.0000E+00  0.2000E+01
    -18.920  0.0000E+00  0.2000E+01
    -18.765  0.0000E+00  0.2000E+01
    -18.610  0.0000E+00  0.2000E+01
    -18.455  0.0000E+00  0.2000E+01
    -18.300  0.0000E+00  0.2000E+01
    -18.145  0.0000E+00  0.2000E+01
    -17.990  0.0000E+00  0.2000E+01
    -17.835  0.0000E+00  0.2000E+01
    -17.680  0.0000E+00  0.2000E+01
    -17.525  0.0000E+00  0.2000E+01
    -17.370  0.0000E+00  0.2000E+01
    -17.215  0.0000E+00  0.2000E+01
    -17.060  0.0000E+00  0.2000E+01
    -16.905  0.0000E+00  0.2000E+01
    -16.750  0.0000E+00  0.2000E+01
    -16.595  0.0000E+00  0.2000E+01
    -16.440  0.0000E+00  0.2000E+01
    -16.285  0.0000E+00  0.2000E+01
    -16.130  0.0000E+00  0.2000E+01
    -15.975  0.0000E+00  0.2000E+01
    -15.820  0.0000E+00  0.2000E+01
    -15.665  0.0000E+00  0.2000E+01
    -15.510  0.0000E+00  0.2000E+01
    -15.355  0.0000E+00  0.2000E+01
    -15.200  0.0000E+00  0.2000E+01
    -15.045  0.0000E+00  0.2000E+01
    -14.890  0.0000E+00  0.2000E+01
    -14.735  0.0000E+00  0.2000E+01
    -14.580  0.0000E+00  0.2000E+01
    -14.425  0.0000E+00  0.2000E+01
    -14.270  0.0000E+00  0.2000E+01
    -14.115  0.0000E+00  0.2000E+01
    -13.960  0.0000E+00  0.2000E+01
    -13.805  0.0000E+00  0.2000E+01
    -13.650  0.0000E+00  0.2000E+01
    -13.495  0.0000E+00  0.2000E+01
    -13.340  0.0000E+00  0.2000E+01
    -13.185  0.0000E+00  0.2000E+01
    -13.030  0.0000E+00  0.2000E+01
    -12.875  0.0000E+00  0.2000E+01
    -12.720  0.0000E+00  0.2000E+01
    -12.565  0.0000E+00  0.2000E+01
    -12.410  0.0000E+00  0.2000E+01
    -12.255  0.4182E+02  0.9024E+01
    -12.100  0.0000E+00  0.1200E+02
    -11.945  0.0000E+00  0.1200E+02
    -11.790  0.0000E+00  0.1200E+02
    -11.636  0.0000E+00  0.1200E+02
    -11.481  0.0000E+00  0.1200E+02
    -11.326  0.0000E+00  0.1200E+02
    -11.171  0.0000E+00  0.1200E+02
    -11.016  0.0000E+00  0.1200E+02
    -10.861  0.0000E+00  0.1200E+02
    -10.706  0.0000E+00  0.1200E+02
    -10.551  0.0000E+00  0.1200E+02
    -10.396  0.0000E+00  0.1200E+02
    -10.241  0.0000E+00  0.1200E+02
    -10.086  0.0000E+00  0.1200E+02
     -9.931  0.0000E+00  0.1200E+02
     -9.776  0.0000E+00  0.1200E+02
     -9.621  0.0000E+00  0.1200E+02
     -9.466  0.0000E+00  0.1200E+02
     -9.311  0.0000E+00  0.1200E+02
     -9.156  0.0000E+00  0.1200E+02
     -9.001  0.0000E+00  0.1200E+02
     -8.846  0.0000E+00  0.1200E+02
     -8.691  0.0000E+00  0.1200E+02
     -8.536  0.0000E+00  0.1200E+02
     -8.381  0.0000E+00  0.1200E+02
     -8.226  0.0000E+00  0.1200E+02
     -8.071  0.0000E+00  0.1200E+02
     -7.916  0.0000E+00  0.1200E+02
     -7.761  0.0000E+00  0.1200E+02
     -7.606  0.0000E+00  0.1200E+02
     -7.451  0.0000E+00  0.1200E+02
     -7.296  0.9704E+00  0.1215E+02
     -7.141  0.6097E+01  0.1340E+02
     -6.986  0.6288E+00  0.1395E+02
     -6.831  0.4719E+01  0.1503E+02
     -6.676  0.8328E+01  0.1773E+02
     -6.521  0.0000E+00  0.1800E+02
     -6.366  0.0000E+00  0.1800E+02
     -6.211  0.0000E+00  0.1800E+02
     -6.056  0.0000E+00  0.1800E+02
     -5.901  0.0000E+00  0.1800E+02
     -5.746  0.0000E+00  0.1800E+02
     -5.591  0.0000E+00  0.1800E+02
     -5.436  0.0000E+00  0.1800E+02
     -5.281  0.0000E+00  0.1800E+02
     -5.126  0.0000E+00  0.1800E+02
     -4.971  0.0000E+00  0.1800E+02
     -4.816  0.0000E+00  0.1800E+02
     -4.661  0.0000E+00  0.1800E+02
     -4.506  0.0000E+00  0.1800E+02
     -4.351  0.0000E+00  0.1800E+02
     -4.196  0.0000E+00  0.1800E+02
     -4.041  0.0000E+00  0.1800E+02
     -3.887  0.0000E+00  0.1800E+02
     -3.732  0.0000E+00  0.1800E+02
     -3.577  0.0000E+00  0.1800E+02
     -3.422  0.0000E+00  0.1800E+02
     -3.267  0.0000E+00  0.1800E+02
     -3.112  0.0000E+00  0.1800E+02
     -2.957  0.0000E+00  0.1800E+02
     -2.802  0.0000E+00  0.1800E+02
     -2.647  0.0000E+00  0.1800E+02
     -2.492  0.0000E+00  0.1800E+02
     -2.337  0.2839E-04  0.1800E+02
     -2.182  0.4738E-01  0.1801E+02
     -2.027  0.2206E-01  0.1802E+02
     -1.872  0.1876E+00  0.1805E+02
     -1.717  0.3524E-01  0.1806E+02
     -1.562  0.7283E-01  0.1811E+02
     -1.407  0.5403E+00  0.1827E+02
     -1.252  0.1253E+01  0.1863E+02
     -1.097  0.1416E+01  0.1906E+02
     -0.942  0.1222E+01  0.1950E+02
     -0.787  0.9778E+00  0.1983E+02
     -0.632  0.4715E+00  0.1995E+02
     -0.477  0.4699E-01  0.2000E+02
     -0.322  0.0000E+00  0.2000E+02
     -0.167  0.0000E+00  0.2000E+02
     -0.012  0.0000E+00  0.2000E+02
      0.143  0.0000E+00  0.2000E+02
      0.298  0.0000E+00  0.2000E+02
      0.453  0.0000E+00  0.2000E+02
      0.608  0.0000E+00  0.2000E+02
      0.763  0.0000E+00  0.2000E+02
      0.918  0.0000E+00  0.2000E+02
      1.073  0.0000E+00  0.2000E+02
      1.228  0.0000E+00  0.2000E+02
      1.383  0.0000E+00  0.2000E+02
      1.538  0.0000E+00  0.2000E+02
      1.693  0.0000E+00  0.2000E+02
      1.848  0.0000E+00  0.2000E+02
      2.003  0.0000E+00  0.2000E+02
      2.158  0.0000E+00  0.2000E+02
      2.313  0.0000E+00  0.2000E+02
      2.468  0.0000E+00  0.2000E+02
      2.623  0.0000E+00  0.2000E+02
      2.778  0.0000E+00  0.2000E+02
      2.933  0.0000E+00  0.2000E+02
      3.088  0.0000E+00  0.2000E+02
      3.243  0.0000E+00  0.2000E+02
      3.398  0.0000E+00  0.2000E+02
      3.553  0.0000E+00  0.2000E+02
      3.708  0.0000E+00  0.2000E+02
      3.862  0.0000E+00  0.2000E+02
      4.017  0.1653E-12  0.2000E+02
      4.172  0.2656E+00  0.2005E+02
      4.327  0.1606E+01  0.2038E+02
      4.482  0.1022E+01  0.2077E+02
      4.637  0.1241E+01  0.2104E+02
      4.792  0.8742E+00  0.2129E+02
      4.947  0.2266E+01  0.2206E+02
      5.102  0.1966E+01  0.2288E+02
      5.257  0.2188E+01  0.2357E+02
      5.412  0.2753E+01  0.2438E+02
      5.567  0.3151E+01  0.2520E+02
      5.722  0.1095E+01  0.2553E+02
      5.877  0.8970E+00  0.2593E+02
      6.032  0.9520E+00  0.2616E+02
      6.187  0.4391E+01  0.2754E+02
      6.342  0.1896E+01  0.2852E+02
      6.497  0.4090E+01  0.2946E+02
      6.652  0.1414E+01  0.2996E+02
      6.807  0.6097E+00  0.3016E+02
      6.962  0.1179E+01  0.3039E+02
      7.117  0.4220E+00  0.3062E+02
      7.272  0.1175E+01  0.3117E+02
      7.427  0.1062E+01  0.3148E+02
      7.582  0.3498E+00  0.3163E+02
      7.737  0.9225E+00  0.3191E+02
      7.892  0.2274E+00  0.3201E+02
      8.047  0.1152E+01  0.3225E+02
      8.202  0.7023E+00  0.3249E+02
      8.357  0.2911E+00  0.3265E+02
      8.512  0.1815E+01  0.3303E+02
      8.667  0.6477E+00  0.3322E+02
      8.822  0.8777E+00  0.3348E+02
      8.977  0.3561E+00  0.3368E+02
      9.132  0.2655E+01  0.3430E+02
      9.287  0.3461E+01  0.3541E+02
      9.442  0.1088E+01  0.3568E+02
      9.597  0.5857E+00  0.3589E+02
      9.752  0.2819E+00  0.3600E+02
      9.907  0.0000E+00  0.3600E+02
     10.062  0.1011E-02  0.3600E+02
     10.217  0.0000E+00  0.3600E+02
     10.372  0.0000E+00  0.3600E+02
     10.527  0.7200E-01  0.3601E+02
     10.682  0.1878E+00  0.3606E+02
     10.837  0.1032E+01  0.3628E+02
     10.992  0.1195E+01  0.3665E+02
     11.147  0.1249E+01  0.3716E+02
     11.302  0.9124E+00  0.3756E+02
     11.457  0.6996E+00  0.3793E+02
     11.611  0.7442E+00  0.3812E+02
     11.766  0.1714E+00  0.3819E+02
     11.921  0.1877E+00  0.3830E+02
     12.076  0.7728E+00  0.3858E+02
     12.231  0.2255E+01  0.3904E+02
     12.386  0.1831E+01  0.3950E+02
     12.541  0.1354E+01  0.4005E+02
     12.696  0.1957E+01  0.4052E+02
     12.851  0.1732E+01  0.4092E+02
     13.006  0.2255E+01  0.4162E+02
     13.161  0.2233E+01  0.4248E+02
     13.316  0.3503E+01  0.4338E+02
     13.471  0.6646E+01  0.4522E+02
     13.626  0.1376E+01  0.4621E+02
     13.781  0.6935E+01  0.4757E+02
     13.936  0.0000E+00  0.4800E+02
     14.091  0.0000E+00  0.4800E+02
     14.246  0.0000E+00  0.4800E+02
     14.401  0.0000E+00  0.4800E+02
     14.556  0.0000E+00  0.4800E+02
     14.711  0.0000E+00  0.4800E+02
     14.866  0.0000E+00  0.4800E+02
     15.021  0.0000E+00  0.4800E+02
     15.176  0.0000E+00  0.4800E+02
     15.331  0.0000E+00  0.4800E+02
     15.486  0.0000E+00  0.4800E+02
     15.641  0.0000E+00  0.4800E+02
     15.796  0.0000E+00  0.4800E+02
     15.951  0.0000E+00  0.4800E+02
