    3    3    1    1
  0.2196093E+02  0.4533452E-09  0.4533452E-09  0.4533452E-09  0.5000000E-15
  1.000000000000000E-004
  CAR
 unknown system
     37     84     24

  0.0000000E+00  0.0000000E+00  0.0000000E+00  0.4551661E-03
    1      -28.429700   1.000000
    2      -12.307750   1.000000
    3      -12.307750   1.000000
    4      -12.256896   1.000000
    5      -12.256896   1.000000
    6      -12.256896   1.000000
    7       -6.782385   1.000000
    8       -6.782385   1.000000
    9       -6.782385   1.000000
   10       -2.318417   1.000000
   11        5.911292   1.000000
   12        5.911292   1.000000
   13        5.970813   1.000000
   14        5.970813   1.000000
   15        5.970813   1.000000
   16        9.667624   1.000000
   17        9.667624   1.000000
   18        9.667624   1.000000
   19       10.068370   1.000000
   20       11.245271   0.000000
   21       11.245271   0.000000
   22       11.245271   0.000000
   23       12.305209   0.000000
   24       13.623088   0.000000

  0.7692308E-01 -0.2618546E-17  0.1936506E-17  0.3641329E-02
    1      -28.428599   1.000000
    2      -12.309706   1.000000
    3      -12.309706   1.000000
    4      -12.257380   1.000000
    5      -12.256580   1.000000
    6      -12.256580   1.000000
    7       -6.830207   1.000000
    8       -6.775260   1.000000
    9       -6.775260   1.000000
   10       -2.201946   1.000000
   11        5.649083   1.000000
   12        5.649083   1.000000
   13        5.832159   1.000000
   14        6.216330   1.000000
   15        6.216330   1.000000
   16        8.922353   1.000000
   17        9.575320   1.000000
   18        9.575320   1.000000
   19       10.539250   1.000000
   20       11.362909   0.000000
   21       11.362909   0.000000
   22       11.444827   0.000000
   23       12.639864   0.000000
   24       13.627860   0.000000

  0.1538462E+00 -0.3706774E-18 -0.9934022E-18  0.3641329E-02
    1      -28.425554   1.000000
    2      -12.315121   1.000000
    3      -12.315121   1.000000
    4      -12.258861   1.000000
    5      -12.255665   1.000000
    6      -12.255665   1.000000
    7       -6.950973   1.000000
    8       -6.755586   1.000000
    9       -6.755586   1.000000
   10       -1.888611   1.000000
   11        5.394169   1.000000
   12        5.394169   1.000000
   13        5.466501   1.000000
   14        6.403747   1.000000
   15        6.403747   1.000000
   16        8.106621   1.000000
   17        9.397566   1.000000
   18        9.397566   1.000000
   19       10.562966   1.000000
   20       11.640111   0.000000
   21       11.640111   0.000000
   22       12.242094   0.000000
   23       13.282536   0.000000
   24       13.631518   0.000000

  0.2307692E+00 -0.1611218E-17 -0.4349011E-18  0.3641329E-02
    1      -28.421262   1.000000
    2      -12.322723   1.000000
    3      -12.322723   1.000000
    4      -12.261304   1.000000
    5      -12.254329   1.000000
    6      -12.254329   1.000000
    7       -7.097484   1.000000
    8       -6.727968   1.000000
    9       -6.727968   1.000000
   10       -1.465822   1.000000
   11        4.994747   1.000000
   12        5.205789   1.000000
   13        5.205789   1.000000
   14        6.444147   1.000000
   15        6.444147   1.000000
   16        7.470699   1.000000
   17        9.275455   1.000000
   18        9.275455   1.000000
   19       10.544345   1.000000
   20       11.976119   0.000000
   21       11.976119   0.000000
   22       13.049794   0.000000
   23       13.612707   0.000000
   24       13.619721   0.000000

  0.3076923E+00 -0.7413547E-18 -0.1986804E-17  0.3641329E-02
    1      -28.416711   1.000000
    2      -12.330747   1.000000
    3      -12.330747   1.000000
    4      -12.264386   1.000000
    5      -12.252875   1.000000
    6      -12.252875   1.000000
    7       -7.229426   1.000000
    8       -6.698824   1.000000
    9       -6.698824   1.000000
   10       -1.037596   1.000000
   11        4.549913   1.000000
   12        5.098527   1.000000
   13        5.098527   1.000000
   14        6.337247   1.000000
   15        6.337247   1.000000
   16        7.030696   1.000000
   17        9.252994   1.000000
   18        9.252994   1.000000
   19       10.623633   1.000000
   20       12.310998   0.000000
   21       12.310998   0.000000
   22       13.552598   0.000000
   23       13.578982   0.000000
   24       13.579009   0.000000

  0.3846154E+00  0.6383873E-17 -0.9794072E-17  0.3641329E-02
    1      -28.412942   1.000000
    2      -12.337354   1.000000
    3      -12.337354   1.000000
    4      -12.267337   1.000000
    5      -12.251652   1.000000
    6      -12.251652   1.000000
    7       -7.324066   1.000000
    8       -6.674803   1.000000
    9       -6.674803   1.000000
   10       -0.699659   1.000000
   11        4.227545   1.000000
   12        5.065815   1.000000
   13        5.065815   1.000000
   14        6.162163   1.000000
   15        6.162163   1.000000
   16        6.765741   1.000000
   17        9.287059   1.000000
   18        9.287059   1.000000
   19       10.801287   1.000000
   20       12.588760   0.000000
   21       12.588760   0.000000
   22       13.545473   0.000000
   23       13.545476   0.000000
   24       13.666856   0.000000

  0.4615385E+00 -0.9477801E-17  0.5385562E-17  0.3641329E-02
    1      -28.410819   1.000000
    2      -12.341064   1.000000
    3      -12.341064   1.000000
    4      -12.269166   1.000000
    5      -12.250948   1.000000
    6      -12.250948   1.000000
    7       -7.372470   1.000000
    8       -6.661295   1.000000
    9       -6.661295   1.000000
   10       -0.517335   1.000000
   11        4.065950   1.000000
   12        5.073568   1.000000
   13        5.073568   1.000000
   14        6.029673   1.000000
   15        6.029673   1.000000
   16        6.645270   1.000000
   17        9.319622   1.000000
   18        9.319622   1.000000
   19       10.993274   1.000000
   20       12.748610   0.000000
   21       12.748610   0.000000
   22       13.399846   0.000000
   23       13.522361   0.000000
   24       13.522366   0.000000

  0.7692308E-01  0.7692308E-01  0.6082238E-18  0.2730997E-02
    1      -28.428240   1.000000
    2      -12.313266   1.000000
    3      -12.307047   1.000000
    4      -12.257762   1.000000
    5      -12.256366   1.000000
    6      -12.256366   1.000000
    7       -6.821925   1.000000
    8       -6.784987   1.000000
    9       -6.784987   1.000000
   10       -2.166182   1.000000
   11        5.349206   1.000000
   12        5.928481   1.000000
   13        5.979455   1.000000
   14        5.979455   1.000000
   15        6.273670   1.000000
   16        8.939445   1.000000
   17        9.428662   1.000000
   18        9.428662   1.000000
   19       10.840622   1.000000
   20       11.038716   1.000000
   21       11.568302   0.000000
   22       11.568302   0.000000
   23       12.700130   0.000000
   24       13.579168   0.000000

  0.1538462E+00  0.7692308E-01 -0.4293988E-17  0.1092399E-01
    1      -28.425863   1.000000
    2      -12.319319   1.000000
    3      -12.308395   1.000000
    4      -12.258944   1.000000
    5      -12.255703   1.000000
    6      -12.255521   1.000000
    7       -6.911374   1.000000
    8       -6.780248   1.000000
    9       -6.765496   1.000000
   10       -1.928165   1.000000
   11        5.016589   1.000000
   12        5.708033   1.000000
   13        5.792381   1.000000
   14        6.189189   1.000000
   15        6.429919   1.000000
   16        8.358092   1.000000
   17        9.249055   1.000000
   18        9.265746   1.000000
   19       10.933842   1.000000
   20       11.188149   0.000000
   21       11.862827   0.000000
   22       12.124945   0.000000
   23       13.160625   0.000000
   24       13.538781   0.000000

  0.2307692E+00  0.7692308E-01  0.3985279E-18  0.1092399E-01
    1      -28.422015   1.000000
    2      -12.326468   1.000000
    3      -12.313492   1.000000
    4      -12.260842   1.000000
    5      -12.254796   1.000000
    6      -12.254177   1.000000
    7       -7.046828   1.000000
    8       -6.762273   1.000000
    9       -6.734948   1.000000
   10       -1.559731   1.000000
   11        4.724255   1.000000
   12        5.441228   1.000000
   13        5.509636   1.000000
   14        6.280280   1.000000
   15        6.540946   1.000000
   16        7.736110   1.000000
   17        9.113305   1.000000
   18        9.152215   1.000000
   19       10.833533   1.000000
   20       11.594570   0.000000
   21       12.164414   0.000000
   22       12.852923   0.000000
   23       13.507196   0.000000
   24       13.632733   0.000000

  0.3076923E+00  0.7692308E-01 -0.9421404E-17  0.1092399E-01
    1      -28.417584   1.000000
    2      -12.333073   1.000000
    3      -12.321075   1.000000
    4      -12.263385   1.000000
    5      -12.253713   1.000000
    6      -12.252671   1.000000
    7       -7.179899   1.000000
    8       -6.735284   1.000000
    9       -6.706769   1.000000
   10       -1.159881   1.000000
   11        4.477635   1.000000
   12        5.139153   1.000000
   13        5.368539   1.000000
   14        6.218008   1.000000
   15        6.518320   1.000000
   16        7.239430   1.000000
   17        9.055091   1.000000
   18        9.163977   1.000000
   19       10.779275   1.000000
   20       12.052120   0.000000
   21       12.442570   0.000000
   22       13.375734   0.000000
   23       13.489156   0.000000
   24       13.654667   0.000000

  0.3846154E+00  0.7692308E-01  0.2161135E-17  0.1092399E-01
    1      -28.413580   1.000000
    2      -12.337661   1.000000
    3      -12.329330   1.000000
    4      -12.266090   1.000000
    5      -12.252625   1.000000
    6      -12.251388   1.000000
    7       -7.283058   1.000000
    8       -6.705439   1.000000
    9       -6.687521   1.000000
   10       -0.823763   1.000000
   11        4.282438   1.000000
   12        4.993885   1.000000
   13        5.269149   1.000000
   14        6.088339   1.000000
   15        6.381420   1.000000
   16        6.899362   1.000000
   17        9.083368   1.000000
   18        9.225786   1.000000
   19       10.842145   1.000000
   20       12.432766   0.000000
   21       12.670229   0.000000
   22       13.475407   0.000000
   23       13.483128   0.000000
   24       13.739292   0.000000

  0.4615385E+00  0.7692308E-01 -0.4902787E-17  0.1092399E-01
    1      -28.410922   1.000000
    2      -12.339237   1.000000
    3      -12.336355   1.000000
    4      -12.268108   1.000000
    5      -12.251797   1.000000
    6      -12.250658   1.000000
    7       -7.343932   1.000000
    8       -6.681338   1.000000
    9       -6.679445   1.000000
   10       -0.615763   1.000000
   11        4.164446   1.000000
   12        5.001475   1.000000
   13        5.166084   1.000000
   14        6.021253   1.000000
   15        6.201862   1.000000
   16        6.715957   1.000000
   17        9.136370   1.000000
   18        9.271365   1.000000
   19       10.997393   1.000000
   20       12.623016   0.000000
   21       12.804079   0.000000
   22       13.414530   0.000000
   23       13.480616   0.000000
   24       13.668259   0.000000

 -0.4615385E+00  0.7692308E-01  0.2330118E-16  0.1092399E-01
    1      -28.410216   1.000000
    2      -12.340603   1.000000
    3      -12.337476   1.000000
    4      -12.268634   1.000000
    5      -12.251434   1.000000
    6      -12.250641   1.000000
    7       -7.358989   1.000000
    8       -6.689241   1.000000
    9       -6.663120   1.000000
   10       -0.560050   1.000000
   11        4.133651   1.000000
   12        5.038858   1.000000
   13        5.101815   1.000000
   14        6.065762   1.000000
   15        6.089846   1.000000
   16        6.674035   1.000000
   17        9.154759   1.000000
   18        9.275146   1.000000
   19       11.082458   0.566101
   20       12.644012   0.000000
   21       12.796895   0.000000
   22       13.412076   0.000000
   23       13.485219   0.000000
   24       13.593623   0.000000

 -0.3846154E+00  0.7692308E-01  0.1623726E-16  0.1092399E-01
    1      -28.411617   1.000000
    2      -12.341159   1.000000
    3      -12.332754   1.000000
    4      -12.267428   1.000000
    5      -12.251675   1.000000
    6      -12.251331   1.000000
    7       -7.328025   1.000000
    8       -6.709042   1.000000
    9       -6.660194   1.000000
   10       -0.660910   1.000000
   11        4.197112   1.000000
   12        4.931815   1.000000
   13        5.229872   1.000000
   14        6.040278   1.000000
   15        6.261439   1.000000
   16        6.765045   1.000000
   17        9.106329   1.000000
   18        9.249727   1.000000
   19       10.975563   1.000000
   20       12.625603   0.000000
   21       12.697585   0.000000
   22       13.435644   0.000000
   23       13.505066   0.000000
   24       13.709129   0.000000

 -0.3076923E+00  0.7692308E-01  0.8429992E-17  0.1092399E-01
    1      -28.414812   1.000000
    2      -12.337917   1.000000
    3      -12.326053   1.000000
    4      -12.264984   1.000000
    5      -12.252527   1.000000
    6      -12.252463   1.000000
    7       -7.252578   1.000000
    8       -6.735908   1.000000
    9       -6.671463   1.000000
   10       -0.913453   1.000000
   11        4.378863   1.000000
   12        4.894492   1.000000
   13        5.360840   1.000000
   14        6.125414   1.000000
   15        6.457170   1.000000
   16        6.996903   1.000000
   17        8.998377   1.000000
   18        9.234380   1.000000
   19       10.852437   1.000000
   20       12.321073   0.000000
   21       12.580773   0.000000
   22       13.439310   0.000000
   23       13.532801   0.000000
   24       13.718083   0.000000

 -0.2307692E+00  0.7692308E-01  0.6878089E-17  0.1092399E-01
    1      -28.419068   1.000000
    2      -12.331596   1.000000
    3      -12.318855   1.000000
    4      -12.262196   1.000000
    5      -12.253943   1.000000
    6      -12.253622   1.000000
    7       -7.139095   1.000000
    8       -6.763275   1.000000
    9       -6.694489   1.000000
   10       -1.281202   1.000000
   11        4.682011   1.000000
   12        4.951964   1.000000
   13        5.529875   1.000000
   14        6.223330   1.000000
   15        6.588030   1.000000
   16        7.385665   1.000000
   17        8.891369   1.000000
   18        9.281895   1.000000
   19       10.823439   1.000000
   20       11.953602   0.000000
   21       12.277926   0.000000
   22       13.250174   0.000000
   23       13.560206   0.000000
   24       13.597956   0.000000

 -0.1538462E+00  0.7692308E-01 -0.9291785E-18  0.1092399E-01
    1      -28.423416   1.000000
    2      -12.323585   1.000000
    3      -12.312853   1.000000
    4      -12.259829   1.000000
    5      -12.255252   1.000000
    6      -12.254864   1.000000
    7       -7.005546   1.000000
    8       -6.783719   1.000000
    9       -6.724036   1.000000
   10       -1.684952   1.000000
   11        5.054445   1.000000
   12        5.108470   1.000000
   13        5.766097   1.000000
   14        6.212234   1.000000
   15        6.585727   1.000000
   16        7.924991   1.000000
   17        8.895638   1.000000
   18        9.415225   1.000000
   19       10.883304   1.000000
   20       11.604670   0.000000
   21       11.818170   0.000000
   22       12.708643   0.000000
   23       13.511875   0.000000
   24       13.584613   0.000000

 -0.7692308E-01  0.7692308E-01  0.5884687E-17  0.5461994E-02
    1      -28.426857   1.000000
    2      -12.315696   1.000000
    3      -12.309537   1.000000
    4      -12.258208   1.000000
    5      -12.256179   1.000000
    6      -12.255911   1.000000
    7       -6.888258   1.000000
    8       -6.788437   1.000000
    9       -6.753242   1.000000
   10       -2.023307   1.000000
   11        5.351055   1.000000
   12        5.423012   1.000000
   13        5.987213   1.000000
   14        6.081776   1.000000
   15        6.445529   1.000000
   16        8.508522   1.000000
   17        9.150146   1.000000
   18        9.561617   1.000000
   19       10.872684   1.000000
   20       11.360546   0.000000
   21       11.371726   0.000000
   22       12.059838   0.000000
   23       13.009211   0.000000
   24       13.610279   0.000000

  0.1538462E+00  0.1538462E+00  0.1216448E-17  0.2730997E-02
    1      -28.424273   1.000000
    2      -12.324367   1.000000
    3      -12.305095   1.000000
    4      -12.260308   1.000000
    5      -12.254792   1.000000
    6      -12.254792   1.000000
    7       -6.916159   1.000000
    8       -6.792395   1.000000
    9       -6.792395   1.000000
   10       -1.795156   1.000000
   11        4.656665   1.000000
   12        5.977066   1.000000
   13        5.978650   1.000000
   14        5.978650   1.000000
   15        6.325590   1.000000
   16        8.348810   1.000000
   17        9.086293   1.000000
   18        9.086293   1.000000
   19       10.664369   1.000000
   20       11.705734   0.000000
   21       12.144650   0.000000
   22       12.144650   0.000000
   23       13.308066   0.000000
   24       13.450543   0.000000

  0.2307692E+00  0.1538462E+00  0.7525245E-17  0.1092399E-01
    1      -28.421157   1.000000
    2      -12.329040   1.000000
    3      -12.306064   1.000000
    4      -12.262053   1.000000
    5      -12.253854   1.000000
    6      -12.253519   1.000000
    7       -7.007636   1.000000
    8       -6.789418   1.000000
    9       -6.775736   1.000000
   10       -1.539626   1.000000
   11        4.393495   1.000000
   12        5.747940   1.000000
   13        5.793587   1.000000
   14        6.123096   1.000000
   15        6.407576   1.000000
   16        8.028476   1.000000
   17        8.907859   1.000000
   18        9.013119   1.000000
   19       10.775021   1.000000
   20       11.763995   0.000000
   21       12.404674   0.000000
   22       12.690810   0.000000
   23       13.380203   0.000000
   24       13.599237   0.000000

  0.3076923E+00  0.1538462E+00 -0.3721561E-17  0.1092399E-01
    1      -28.417224   1.000000
    2      -12.332292   1.000000
    3      -12.311100   1.000000
    4      -12.263842   1.000000
    5      -12.253246   1.000000
    6      -12.251980   1.000000
    7       -7.123132   1.000000
    8       -6.772184   1.000000
    9       -6.750366   1.000000
   10       -1.244456   1.000000
   11        4.264649   1.000000
   12        5.398344   1.000000
   13        5.639491   1.000000
   14        6.121507   1.000000
   15        6.494833   1.000000
   16        7.607508   1.000000
   17        8.759173   1.000000
   18        9.051545   1.000000
   19       10.922086   1.000000
   20       11.970318   0.000000
   21       12.623795   0.000000
   22       13.202251   0.000000
   23       13.350074   0.000000
   24       13.700613   0.000000

  0.3846154E+00  0.1538462E+00 -0.1152883E-16  0.1092399E-01
    1      -28.413383   1.000000
    2      -12.333406   1.000000
    3      -12.318886   1.000000
    4      -12.265492   1.000000
    5      -12.252969   1.000000
    6      -12.250621   1.000000
    7       -7.220442   1.000000
    8       -6.744695   1.000000
    9       -6.736855   1.000000
   10       -0.988923   1.000000
   11        4.271994   1.000000
   12        5.131604   1.000000
   13        5.484160   1.000000
   14        6.061759   1.000000
   15        6.483474   1.000000
   16        7.210419   1.000000
   17        8.727397   1.000000
   18        9.133290   1.000000
   19       10.943548   1.000000
   20       12.353135   0.000000
   21       12.800454   0.000000
   22       13.366513   0.000000
   23       13.389740   0.000000
   24       13.768496   0.000000

  0.4615385E+00  0.1538462E+00 -0.1573900E-16  0.1092399E-01
    1      -28.410508   1.000000
    2      -12.332238   1.000000
    3      -12.327537   1.000000
    4      -12.266664   1.000000
    5      -12.252908   1.000000
    6      -12.249832   1.000000
    7       -7.282883   1.000000
    8       -6.739843   1.000000
    9       -6.713100   1.000000
   10       -0.816829   1.000000
   11        4.351923   1.000000
   12        5.015624   1.000000
   13        5.286403   1.000000
   14        6.069710   1.000000
   15        6.381428   1.000000
   16        6.931046   1.000000
   17        8.759111   1.000000
   18        9.181380   1.000000
   19       11.024504   1.000000
   20       12.528416   0.000000
   21       12.915217   0.000000
   22       13.393730   0.000000
   23       13.401376   0.000000
   24       13.784713   0.000000

 -0.4615385E+00  0.1538462E+00  0.1245450E-17  0.1092399E-01
    1      -28.409255   1.000000
    2      -12.335107   1.000000
    3      -12.329149   1.000000
    4      -12.266871   1.000000
    5      -12.252973   1.000000
    6      -12.249793   1.000000
    7       -7.305931   1.000000
    8       -6.757514   1.000000
    9       -6.684426   1.000000
   10       -0.733763   1.000000
   11        4.392341   1.000000
   12        5.067035   1.000000
   13        5.069265   1.000000
   14        6.181807   1.000000
   15        6.236788   1.000000
   16        6.824497   1.000000
   17        8.774963   1.000000
   18        9.173506   1.000000
   19       11.169112   0.000000
   20       12.425364   0.000000
   21       12.924667   0.000000
   22       13.425552   0.000000
   23       13.478016   0.000000
   24       13.711601   0.000000

 -0.3846154E+00  0.1538462E+00  0.2193710E-16  0.1092399E-01
    1      -28.409910   1.000000
    2      -12.339944   1.000000
    3      -12.324827   1.000000
    4      -12.265909   1.000000
    5      -12.253149   1.000000
    6      -12.250468   1.000000
    7       -7.290766   1.000000
    8       -6.783512   1.000000
    9       -6.665144   1.000000
   10       -0.739024   1.000000
   11        4.363091   1.000000
   12        4.889214   1.000000
   13        5.231498   1.000000
   14        6.120289   1.000000
   15        6.362578   1.000000
   16        6.897479   1.000000
   17        8.712425   1.000000
   18        9.135722   1.000000
   19       11.218414   0.000000
   20       12.475303   0.000000
   21       12.780232   0.000000
   22       13.446027   0.000000
   23       13.495065   0.000000
   24       13.732230   0.000000

 -0.3076923E+00  0.1538462E+00 -0.8113721E-17  0.1092399E-01
    1      -28.412324   1.000000
    2      -12.341029   1.000000
    3      -12.320088   1.000000
    4      -12.264201   1.000000
    5      -12.253404   1.000000
    6      -12.251654   1.000000
    7       -7.241200   1.000000
    8       -6.808648   1.000000
    9       -6.659774   1.000000
   10       -0.849176   1.000000
   11        4.345878   1.000000
   12        4.787933   1.000000
   13        5.446154   1.000000
   14        6.072297   1.000000
   15        6.552433   1.000000
   16        7.122473   1.000000
   17        8.559314   1.000000
   18        9.117929   1.000000
   19       11.194959   0.000000
   20       12.491179   0.000000
   21       12.583161   0.000000
   22       13.440301   0.000000
   23       13.473356   0.000000
   24       13.795666   0.000000

 -0.2307692E+00  0.1538462E+00  0.7065913E-17  0.1092399E-01
    1      -28.415946   1.000000
    2      -12.338131   1.000000
    3      -12.315840   1.000000
    4      -12.262459   1.000000
    5      -12.253720   1.000000
    6      -12.253047   1.000000
    7       -7.165208   1.000000
    8       -6.822435   1.000000
    9       -6.669779   1.000000
   10       -1.075582   1.000000
   11        4.443918   1.000000
   12        4.788485   1.000000
   13        5.680597   1.000000
   14        6.067206   1.000000
   15        6.679580   1.000000
   16        7.464854   1.000000
   17        8.379884   1.000000
   18        9.170575   1.000000
   19       11.201071   0.000000
   20       12.131688   0.000000
   21       12.447459   0.000000
   22       13.364282   0.000000
   23       13.505153   0.000000
   24       13.736675   0.000000

 -0.1538462E+00  0.1538462E+00 -0.7413547E-18  0.5461994E-02
    1      -28.419948   1.000000
    2      -12.331872   1.000000
    3      -12.313150   1.000000
    4      -12.261035   1.000000
    5      -12.254328   1.000000
    6      -12.254168   1.000000
    7       -7.079334   1.000000
    8       -6.814628   1.000000
    9       -6.692995   1.000000
   10       -1.382346   1.000000
   11        4.695191   1.000000
   12        4.898069   1.000000
   13        5.903088   1.000000
   14        6.032695   1.000000
   15        6.690692   1.000000
   16        7.796339   1.000000
   17        8.402543   1.000000
   18        9.298856   1.000000
   19       11.172213   0.000000
   20       11.798716   0.000000
   21       12.091457   0.000000
   22       13.146019   0.000000
   23       13.541404   0.000000
   24       13.577799   0.000000

  0.2307692E+00  0.2307692E+00  0.1824671E-17  0.2730997E-02
    1      -28.418882   1.000000
    2      -12.329745   1.000000
    3      -12.302315   1.000000
    4      -12.264098   1.000000
    5      -12.252358   1.000000
    6      -12.252358   1.000000
    7       -7.020980   1.000000
    8       -6.803310   1.000000
    9       -6.803310   1.000000
   10       -1.431979   1.000000
   11        4.200944   1.000000
   12        5.914676   1.000000
   13        5.914676   1.000000
   14        6.048073   1.000000
   15        6.150581   1.000000
   16        8.036460   1.000000
   17        8.959504   1.000000
   18        8.959504   1.000000
   19       10.510186   1.000000
   20       12.233412   0.000000
   21       12.616499   0.000000
   22       12.616499   0.000000
   23       13.260630   0.000000
   24       13.675792   0.000000

  0.3076923E+00  0.2307692E+00  0.8233646E-17  0.1092399E-01
    1      -28.415718   1.000000
    2      -12.328377   1.000000
    3      -12.303216   1.000000
    4      -12.265957   1.000000
    5      -12.251351   1.000000
    6      -12.250879   1.000000
    7       -7.090803   1.000000
    8       -6.801050   1.000000
    9       -6.797338   1.000000
   10       -1.290636   1.000000
   11        4.188160   1.000000
   12        5.628495   1.000000
   13        5.798396   1.000000
   14        6.089049   1.000000
   15        6.229671   1.000000
   16        7.851393   1.000000
   17        8.827160   1.000000
   18        9.017180   1.000000
   19       10.681768   1.000000
   20       12.255913   0.000000
   21       12.782068   0.000000
   22       13.002500   0.000000
   23       13.191262   0.000000
   24       13.749254   0.000000

  0.3846154E+00  0.2307692E+00  0.1154816E-16  0.1092399E-01
    1      -28.412392   1.000000
    2      -12.325302   1.000000
    3      -12.308440   1.000000
    4      -12.267097   1.000000
    5      -12.251268   1.000000
    6      -12.249496   1.000000
    7       -7.164597   1.000000
    8       -6.793743   1.000000
    9       -6.783325   1.000000
   10       -1.162087   1.000000
   11        4.346333   1.000000
   12        5.314332   1.000000
   13        5.625618   1.000000
   14        6.099533   1.000000
   15        6.340973   1.000000
   16        7.558689   1.000000
   17        8.627264   1.000000
   18        9.111001   1.000000
   19       10.895609   1.000000
   20       12.392391   0.000000
   21       12.912089   0.000000
   22       13.214376   0.000000
   23       13.288137   0.000000
   24       13.795438   0.000000

  0.4615385E+00  0.2307692E+00 -0.3783794E-17  0.1092399E-01
    1      -28.409663   1.000000
    2      -12.321339   1.000000
    3      -12.316622   1.000000
    4      -12.267174   1.000000
    5      -12.252140   1.000000
    6      -12.248640   1.000000
    7       -7.212934   1.000000
    8       -6.809667   1.000000
    9       -6.754147   1.000000
   10       -1.061994   1.000000
   11        4.592855   1.000000
   12        5.124660   1.000000
   13        5.398641   1.000000
   14        6.151961   1.000000
   15        6.379510   1.000000
   16        7.246937   1.000000
   17        8.506197   1.000000
   18        9.148382   1.000000
   19       10.997489   1.000000
   20       12.519484   0.000000
   21       13.009885   0.000000
   22       13.305688   0.000000
   23       13.351287   0.000000
   24       13.807272   0.000000

 -0.4615385E+00  0.2307692E+00 -0.1455492E-16  0.1092399E-01
    1      -28.408157   1.000000
    2      -12.325831   1.000000
    3      -12.317632   1.000000
    4      -12.265973   1.000000
    5      -12.253666   1.000000
    6      -12.248564   1.000000
    7       -7.229096   1.000000
    8       -6.842885   1.000000
    9       -6.719948   1.000000
   10       -0.981384   1.000000
   11        4.764384   1.000000
   12        5.084472   1.000000
   13        5.152515   1.000000
   14        6.270762   1.000000
   15        6.327106   1.000000
   16        7.065364   1.000000
   17        8.425154   1.000000
   18        9.108820   1.000000
   19       11.143850   0.000000
   20       12.372086   0.000000
   21       13.051738   0.000000
   22       13.380763   0.000000
   23       13.438777   0.000000
   24       13.773260   0.000000

 -0.3846154E+00  0.2307692E+00  0.6136734E-17  0.1092399E-01
    1      -28.408212   1.000000
    2      -12.334027   1.000000
    3      -12.315067   1.000000
    4      -12.263789   1.000000
    5      -12.255259   1.000000
    6      -12.249221   1.000000
    7       -7.219221   1.000000
    8       -6.879308   1.000000
    9       -6.688320   1.000000
   10       -0.914851   1.000000
   11        4.731016   1.000000
   12        4.935690   1.000000
   13        5.160688   1.000000
   14        6.225515   1.000000
   15        6.432994   1.000000
   16        7.113386   1.000000
   17        8.321379   1.000000
   18        9.037134   1.000000
   19       11.342065   0.000000
   20       12.245360   0.000000
   21       12.978935   0.000000
   22       13.405582   0.000000