 vasp.6.0.8 29Jun18 (build Jun 13 2019 12:54:44) complex

 executed on      IFC18_CrayMPICH date 2021.12.05  14:21:49
 running   64 mpi-ranks, with    1 threads/rank
 distrk:  each k-point on   16 cores,    4 groups
 distr:  one band on NCORES_PER_BAND=   4 cores,    4 groups


--------------------------------------------------------------------------------------------------------


 INCAR:
 POTCAR:    PAW_PBE Th 07Sep2000
 POTCAR:    PAW_PBE Bi_d 06Sep2000
 POTCAR:    PAW_PBE Pt 04Feb2005
 POTCAR:    PAW_PBE Th 07Sep2000
   VRHFIN =Th:  [Xe,5d,4f]
   LEXCH  = PE
   EATOM  =   984.7553 eV,   72.3775 Ry

   TITEL  = PAW_PBE Th 07Sep2000
   LULTRA =        F    use ultrasoft PP ?
   IUNSCR =        1    unscreen: 0-lin 1-nonlin 2-no
   RPACOR =    2.200    partial core radius
   POMASS =  232.039; ZVAL   =   12.000    mass and valenz
   RCORE  =    2.800    outmost cutoff radius
   RWIGS  =    3.000; RWIGS  =    1.588    wigner-seitz radius (au A)
   ENMAX  =  247.306; ENMIN  =  185.480 eV
   RCLOC  =    2.211    cutoff for local pot
   LCOR   =        T    correct aug charges
   LPAW   =        T    paw PP
   EAUG   =  535.431
   DEXC   =    0.000
   RMAX   =    2.862    core radius for proj-oper
   RAUG   =    1.300    factor for augmentation sphere
   RDEP   =    2.926    radius for radial grids
   RDEPT  =    2.250    core radius for aug-charge

   Atomic configuration
   18 entries
     n  l   j            E        occ.
     1  0  0.50   -109990.1879   2.0000
     2  0  0.50    -20388.0147   2.0000
     2  1  1.50    -17049.6156   6.0000
     3  0  0.50     -5106.5436   2.0000
     3  1  1.50     -4175.1262   6.0000
     3  2  2.50     -3342.8437  10.0000
     4  0  0.50     -1280.8211   2.0000
     4  1  1.50      -976.4859   6.0000
     4  2  2.50      -661.8358  10.0000
     4  3  3.50      -324.9124  14.0000
     5  0  0.50      -278.7726   2.0000
     5  1  1.50      -186.2212   6.0000
     5  2  2.50       -86.9031  10.0000
     6  0  0.50       -43.3059   2.0000
     7  0  0.50        -4.0783   2.0000
     6  1  1.50       -21.4071   6.0000
     6  2  1.50        -2.3664   1.0000
     5  3  2.50        -1.2804   1.0000
   Description
     l       E           TYP  RCUT    TYP  RCUT
     0    -43.3059201     23  2.800
     0     -4.0782900     23  2.800
     1    -21.4071032     23  2.500
     1    -22.7676858     23  2.500
     2     -2.3664170     23  2.500
     2      3.0546543     23  2.500
     3     -1.2803910     23  2.800
     3      0.1360583     23  2.800
  local pseudopotential read in
  partial core-charges read in
  partial kinetic energy density read in
  atomic valenz-charges read in
  non local Contribution for L=           0  read in
    real space projection operators read in
  non local Contribution for L=           0  read in
    real space projection operators read in
  non local Contribution for L=           1  read in
    real space projection operators read in
  non local Contribution for L=           1  read in
    real space projection operators read in
  non local Contribution for L=           2  read in
    real space projection operators read in
  non local Contribution for L=           2  read in
    real space projection operators read in
  non local Contribution for L=           3  read in
    real space projection operators read in
  non local Contribution for L=           3  read in
    real space projection operators read in
    PAW grid and wavefunctions read in

   number of l-projection  operators is LMAX  =           8
   number of lm-projection operators is LMMAX =          32

 POTCAR:    PAW_PBE Bi_d 06Sep2000
   VRHFIN =Bi:
   LEXCH  = PE
   EATOM  =  1959.2045 eV,  143.9975 Ry

   TITEL  = PAW_PBE Bi_d 06Sep2000
   LULTRA =        F    use ultrasoft PP ?
   IUNSCR =        1    unscreen: 0-lin 1-nonlin 2-no
   RPACOR =    2.200    partial core radius
   POMASS =  208.980; ZVAL   =   15.000    mass and valenz
   RCORE  =    2.500    outmost cutoff radius
   RWIGS  =    3.090; RWIGS  =    1.635    wigner-seitz radius (au A)
   ENMAX  =  242.839; ENMIN  =  182.129 eV
   ICORE  =        3    local potential
   LCOR   =        T    correct aug charges
   LPAW   =        T    paw PP
   EAUG   =  442.899
   DEXC   =    0.000
   RMAX   =    2.551    core radius for proj-oper
   RAUG   =    1.300    factor for augmentation sphere
   RDEP   =    2.650    radius for radial grids
   RDEPT  =    2.039    core radius for aug-charge

   Atomic configuration
   16 entries
     n  l   j            E        occ.
     1  0  0.50    -90639.6581   2.0000
     2  0  0.50    -16282.4666   2.0000
     2  1  1.50    -13922.8286   6.0000
     3  0  0.50     -3930.4763   2.0000
     3  1  1.50     -3256.7013   6.0000
     3  2  2.50     -2581.6168  10.0000
     4  0  0.50      -902.2614   2.0000
     4  1  1.50      -681.5915   6.0000
     4  2  2.50      -429.8249  10.0000
     4  3  3.50      -152.6004  14.0000
     5  0  0.50      -157.7156   2.0000
     5  1  1.50       -95.8054   6.0000
     5  2  2.50       -27.0806  10.0000
     6  0  0.50       -14.4732   2.0000
     6  1  1.50        -4.5702   3.0000
     5  3  2.50        -2.7212   0.0000
   Description
     l       E           TYP  RCUT    TYP  RCUT
     2    -27.0805982     23  2.500
     2     -1.3605826     23  2.500
     0    -14.4732271     23  2.500
     0      6.8029130     23  2.500
     1     -4.5701651     23  2.500
     1     13.6058260     23  2.500
     3     -1.3605826      7  2.500
  local pseudopotential read in
  partial core-charges read in
  partial kinetic energy density read in
  atomic valenz-charges read in
  non local Contribution for L=           2  read in
    real space projection operators read in
  non local Contribution for L=           2  read in
    real space projection operators read in
  non local Contribution for L=           0  read in
    real space projection operators read in
  non local Contribution for L=           0  read in
    real space projection operators read in
  non local Contribution for L=           1  read in
    real space projection operators read in
  non local Contribution for L=           1  read in
    real space projection operators read in
    PAW grid and wavefunctions read in

   number of l-projection  operators is LMAX  =           6
   number of lm-projection operators is LMMAX =          18

 POTCAR:    PAW_PBE Pt 04Feb2005
   VRHFIN =Pt: s1d9
   LEXCH  = PE
   EATOM  =   729.1176 eV,   53.5886 Ry

   TITEL  = PAW_PBE Pt 04Feb2005
   LULTRA =        F    use ultrasoft PP ?
   IUNSCR =        1    unscreen: 0-lin 1-nonlin 2-no
   RPACOR =    2.330    partial core radius
   POMASS =  195.080; ZVAL   =   10.000    mass and valenz
   RCORE  =    2.600    outmost cutoff radius
   RWIGS  =    2.750; RWIGS  =    1.455    wigner-seitz radius (au A)
   ENMAX  =  230.283; ENMIN  =  172.712 eV
   ICORE  =        3    local potential
   LCOR   =        T    correct aug charges
   LPAW   =        T    paw PP
   EAUG   =  358.966
   DEXC   =    0.000
   RMAX   =    2.658    core radius for proj-oper
   RAUG   =    1.300    factor for augmentation sphere
   RDEP   =    2.761    radius for radial grids
   RDEPT  =    2.203    core radius for aug-charge

   Atomic configuration
   16 entries
     n  l   j            E        occ.
     1  0  0.50    -78401.1885   2.0000
     2  0  0.50    -13770.7750   2.0000
     2  1  1.50    -11931.0468   6.0000
     3  0  0.50     -3234.7234   2.0000
     3  1  1.50     -2699.2216   6.0000
     3  2  2.50     -2119.5714  10.0000
     4  0  0.50      -695.1528   2.0000
     4  1  1.50      -519.6034   6.0000
     4  2  2.50      -306.6786  10.0000
     4  3  3.50       -70.1041  14.0000
     5  0  0.50      -101.7747   2.0000
     5  1  1.50       -55.9873   6.0000
     5  2  2.50        -6.1423   9.0000
     6  0  0.50        -5.6573   1.0000
     6  1  1.50        -6.8029   0.0000
     5  3  2.50        -1.3606   0.0000
   Description
     l       E           TYP  RCUT    TYP  RCUT
     2     -6.1423404     23  2.500
     2     -7.5029230     23  2.500
     0     -5.6573207     23  2.500
     0      0.7416693     23  2.500
     1     -2.7211652     23  2.600
     1     20.4087390     23  2.600
     3     -1.3605826     23  2.500
  local pseudopotential read in
  partial core-charges read in
  partial kinetic energy density read in
  atomic valenz-charges read in
  non local Contribution for L=           2  read in
    real space projection operators read in
  non local Contribution for L=           2  read in
    real space projection operators read in
  non local Contribution for L=           0  read in
    real space projection operators read in
  non local Contribution for L=           0  read in
    real space projection operators read in
  non local Contribution for L=           1  read in
    real space projection operators read in
  non local Contribution for L=           1  read in
    real space projection operators read in
    PAW grid and wavefunctions read in

   number of l-projection  operators is LMAX  =           6
   number of lm-projection operators is LMMAX =          18

 WARNING: PSMAXN for non-local potential too small
          PSMAXN should be >   13.5545592237991       NTYP=           1

 -----------------------------------------------------------------------------
|                                                                             |
|  ADVICE TO THIS USER RUNNING 'VASP/VAMP'   (HEAR YOUR MASTER'S VOICE ...):  |
|                                                                             |
|      You enforced a specific xc-type in the INCAR file,                     |
|      a different type was found on the POTCAR file                          |
|          I HOPE YOU KNOW, WHAT YOU ARE  DOING                               |
|                                                                             |
 -----------------------------------------------------------------------------

  PAW_PBE Th 07Sep2000                  :
 energy of atom  1       EATOM= -984.7553
 kinetic energy error for atom=    0.0005 (will be added to EATOM!!)
  PAW_PBE Bi_d 06Sep2000                :
 energy of atom  2       EATOM=-1959.2045
 kinetic energy error for atom=    0.0012 (will be added to EATOM!!)
  PAW_PBE Pt 04Feb2005                  :
 energy of atom  3       EATOM= -729.1176
 kinetic energy error for atom=    0.0010 (will be added to EATOM!!)


 POSCAR: Th1 Bi1 Pt1
  positions in direct lattice
  No initial velocities read in
 exchange correlation table for  LEXCH =       14
   RHO(1)=    0.500       N(1)  =     2000
   RHO(2)=  100.500       N(2)  =     4000



--------------------------------------------------------------------------------------------------------


 ion  position               nearest neighbor table
   1  0.250  0.250  0.250-   3 2.78   3 2.78   3 2.78   3 2.78   2 3.21   2 3.21   2 3.21   2 3.21
                             2 3.21   2 3.21
   2  0.750  0.750  0.750-   3 2.78   3 2.78   3 2.78   3 2.78   1 3.21   1 3.21   1 3.21   1 3.21
                             1 3.21   1 3.21
   3  0.000  0.000  0.000-   2 2.78   2 2.78   2 2.78   1 2.78   2 2.78   1 2.78   1 2.78   1 2.78


  LATTYP: Found a face centered cubic cell.
 ALAT       =     6.4112686626

  Lattice vectors:

 A1 = (   0.0000000000,   3.2056343313,   3.2056343313)
 A2 = (   3.2056343313,   0.0000000000,   3.2056343313)
 A3 = (   3.2056343313,   3.2056343313,   0.0000000000)


Analysis of symmetry for initial positions (statically):
=====================================================================
 Subroutine PRICEL returns:
 Original cell was already a primitive cell.


 Routine SETGRP: Setting up the symmetry group for a
 face centered cubic supercell.


 Subroutine GETGRP returns: Found 24 space group operations
 (whereof 24 operations were pure point group operations)
 out of a pool of 48 trial point group operations.


The static configuration has the point symmetry T_d .


Analysis of symmetry for dynamics (positions and initial velocities):
=====================================================================
 Subroutine PRICEL returns:
 Original cell was already a primitive cell.


 Routine SETGRP: Setting up the symmetry group for a
 face centered cubic supercell.


 Subroutine GETGRP returns: Found 24 space group operations
 (whereof 24 operations were pure point group operations)
 out of a pool of 48 trial point group operations.


The dynamic configuration has the point symmetry T_d .


 Subroutine INISYM returns: Found 24 space group operations
 (whereof 24 operations are pure point group operations),
 and found     1 'primitive' translations


----------------------------------------------------------------------------------------

                                     Primitive cell

  volume of cell :      65.8828

  direct lattice vectors                    reciprocal lattice vectors
     0.000000000  3.205634331  3.205634331    -0.155975370  0.155975370  0.155975370
     3.205634331  0.000000000  3.205634331     0.155975370 -0.155975370  0.155975370
     3.205634331  3.205634331  0.000000000     0.155975370  0.155975370 -0.155975370

  length of vectors
     4.533451547  4.533451547  4.533451547     0.270157265  0.270157265  0.270157265

  position of ions in fractional coordinates (direct lattice)
     0.250000000  0.250000000  0.250000000
     0.750000000  0.750000000  0.750000000
     0.000000000  0.000000000  0.000000000

  ion indices of the primitive-cell ions
   primitive index   ion index
                 1           1
                 2           2
                 3           3

----------------------------------------------------------------------------------------



 KPOINTS: KPOINTS

Automatic generation of k-mesh.
Space group operators:
 irot       det(A)        alpha          n_x          n_y          n_z        tau_x        tau_y        tau_z
    1     1.000000     0.000000     1.000000     0.000000     0.000000     0.000000     0.000000     0.000000
    2     1.000000   120.000000    -0.577350    -0.577350    -0.577350     0.000000     0.000000     0.000000
    3     1.000000   120.000000     0.577350     0.577350     0.577350     0.000000     0.000000     0.000000
    4    -1.000000    90.000000     0.000000     0.000000    -1.000000     0.000000     0.000000     0.000000
    5    -1.000000   180.000000     0.000000     0.707107     0.707107     0.000000     0.000000     0.000000
    6    -1.000000    90.000000     0.000000     1.000000     0.000000     0.000000     0.000000     0.000000
    7     1.000000   180.000000    -0.000000     0.000000    -1.000000     0.000000     0.000000     0.000000
    8     1.000000   120.000000    -0.577350     0.577350     0.577350     0.000000     0.000000     0.000000
    9     1.000000   120.000000    -0.577350     0.577350    -0.577350     0.000000     0.000000     0.000000
   10    -1.000000    90.000000     0.000000     0.000000     1.000000     0.000000     0.000000     0.000000
   11    -1.000000    90.000000    -1.000000    -0.000000     0.000000     0.000000     0.000000     0.000000
   12    -1.000000   180.000000     0.707107     0.000000     0.707107     0.000000     0.000000     0.000000
   13     1.000000   120.000000     0.577350    -0.577350     0.577350     0.000000     0.000000     0.000000
   14     1.000000   120.000000    -0.577350    -0.577350     0.577350     0.000000     0.000000     0.000000
   15     1.000000   180.000000     1.000000     0.000000     0.000000     0.000000     0.000000     0.000000
   16    -1.000000    90.000000     0.000000    -1.000000     0.000000     0.000000     0.000000     0.000000
   17    -1.000000   180.000000     0.707107     0.707107     0.000000     0.000000     0.000000     0.000000
   18    -1.000000    90.000000     1.000000     0.000000    -0.000000     0.000000     0.000000     0.000000
   19     1.000000   120.000000     0.577350    -0.577350    -0.577350     0.000000     0.000000     0.000000
   20     1.000000   180.000000     0.000000    -1.000000     0.000000     0.000000     0.000000     0.000000
   21     1.000000   120.000000     0.577350     0.577350    -0.577350     0.000000     0.000000     0.000000
   22    -1.000000   180.000000     0.000000    -0.707107     0.707107     0.000000     0.000000     0.000000
   23    -1.000000   180.000000     0.707107    -0.707107    -0.000000     0.000000     0.000000     0.000000
   24    -1.000000   180.000000     0.707107     0.000000    -0.707107     0.000000     0.000000     0.000000

 Subroutine IBZKPT returns following result:
 ===========================================

 Found     84 irreducible k-points:

 Following reciprocal coordinates:
            Coordinates               Weight
  0.000000  0.000000  0.000000      1.000000
  0.076923 -0.000000  0.000000      8.000000
  0.153846 -0.000000 -0.000000      8.000000
  0.230769 -0.000000 -0.000000      8.000000
  0.307692 -0.000000 -0.000000      8.000000
  0.384615  0.000000 -0.000000      8.000000
  0.461538 -0.000000  0.000000      8.000000
  0.076923  0.076923  0.000000      6.000000
  0.153846  0.076923 -0.000000     24.000000
  0.230769  0.076923  0.000000     24.000000
  0.307692  0.076923 -0.000000     24.000000
  0.384615  0.076923  0.000000     24.000000
  0.461538  0.076923 -0.000000     24.000000
 -0.461538  0.076923  0.000000     24.000000
 -0.384615  0.076923  0.000000     24.000000
 -0.307692  0.076923  0.000000     24.000000
 -0.230769  0.076923  0.000000     24.000000
 -0.153846  0.076923 -0.000000     24.000000
 -0.076923  0.076923  0.000000     12.000000
  0.153846  0.153846  0.000000      6.000000
  0.230769  0.153846  0.000000     24.000000
  0.307692  0.153846 -0.000000     24.000000
  0.384615  0.153846 -0.000000     24.000000
  0.461538  0.153846 -0.000000     24.000000
 -0.461538  0.153846  0.000000     24.000000
 -0.384615  0.153846  0.000000     24.000000
 -0.307692  0.153846 -0.000000     24.000000
 -0.230769  0.153846  0.000000     24.000000
 -0.153846  0.153846 -0.000000     12.000000
  0.230769  0.230769  0.000000      6.000000
  0.307692  0.230769  0.000000     24.000000
  0.384615  0.230769  0.000000     24.000000
  0.461538  0.230769 -0.000000     24.000000
 -0.461538  0.230769 -0.000000     24.000000
 -0.384615  0.230769  0.000000     24.000000
 -0.307692  0.230769  0.000000     24.000000
 -0.230769  0.230769 -0.000000     12.000000
  0.307692  0.307692  0.000000      6.000000
  0.384615  0.307692  0.000000     24.000000
  0.461538  0.307692 -0.000000     24.000000
 -0.461538  0.307692  0.000000     24.000000
 -0.384615  0.307692 -0.000000     24.000000
 -0.307692  0.307692 -0.000000     12.000000
  0.384615  0.384615  0.000000      6.000000
  0.461538  0.384615  0.000000     24.000000
 -0.461538  0.384615  0.000000     24.000000
 -0.384615  0.384615  0.000000     12.000000
  0.461538  0.461538  0.000000      6.000000
 -0.461538  0.461538 -0.000000     12.000000
  0.230769  0.153846  0.076923     24.000000
  0.307692  0.153846  0.076923     48.000000
  0.384615  0.153846  0.076923     48.000000
  0.461538  0.153846  0.076923     48.000000
 -0.461538  0.153846  0.076923     48.000000
  0.307692  0.230769  0.076923     24.000000
  0.384615  0.230769  0.076923     48.000000
  0.461538  0.230769  0.076923     48.000000
 -0.461538  0.230769  0.076923     48.000000
 -0.384615  0.230769  0.076923     48.000000
 -0.307692  0.230769  0.076923     48.000000
 -0.230769  0.230769  0.076923     48.000000
 -0.153846  0.230769  0.076923     24.000000
  0.384615  0.307692  0.076923     24.000000
  0.461538  0.307692  0.076923     48.000000
 -0.461538  0.307692  0.076923     48.000000
 -0.384615  0.307692  0.076923     48.000000
 -0.307692  0.307692  0.076923     48.000000
 -0.230769  0.307692  0.076923     24.000000
  0.461538  0.384615  0.076923     24.000000
 -0.461538  0.384615  0.076923     48.000000
 -0.384615  0.384615  0.076923     48.000000
 -0.307692  0.384615  0.076923     24.000000
 -0.461538  0.461538  0.076923     24.000000
 -0.384615  0.461538  0.076923     24.000000
  0.461538  0.307692  0.153846     24.000000
 -0.461538  0.307692  0.153846     48.000000
 -0.384615  0.307692  0.153846     48.000000
 -0.461538  0.384615  0.153846     24.000000
 -0.384615  0.384615  0.153846     48.000000
 -0.307692  0.384615  0.153846     48.000000
 -0.230769  0.384615  0.153846     24.000000
 -0.384615  0.461538  0.153846     24.000000
 -0.307692  0.461538  0.153846     24.000000
 -0.307692  0.461538  0.230769     24.000000

 Following cartesian coordinates:
            Coordinates               Weight
  0.000000  0.000000  0.000000      1.000000
 -0.011230  0.011230  0.011230      8.000000
 -0.022460  0.022460  0.022460      8.000000
 -0.033690  0.033690  0.033690      8.000000
 -0.044920  0.044920  0.044920      8.000000
 -0.056151  0.056151  0.056151      8.000000
 -0.067381  0.067381  0.067381      8.000000
 -0.000000  0.000000  0.022460      6.000000
 -0.011230  0.011230  0.033690     24.000000
 -0.022460  0.022460  0.044920     24.000000
 -0.033690  0.033690  0.056151     24.000000
 -0.044920  0.044920  0.067381     24.000000
 -0.056151  0.056151  0.078611     24.000000
  0.078611 -0.078611 -0.056151     24.000000
  0.067381 -0.067381 -0.044920     24.000000
  0.056151 -0.056151 -0.033690     24.000000
  0.044920 -0.044920 -0.022460     24.000000
  0.033690 -0.033690 -0.011230     24.000000
  0.022460 -0.022460  0.000000     12.000000
  0.000000 -0.000000  0.044920      6.000000
 -0.011230  0.011230  0.056151     24.000000
 -0.022460  0.022460  0.067381     24.000000
 -0.033690  0.033690  0.078611     24.000000
 -0.044920  0.044920  0.089841     24.000000
  0.089841 -0.089841 -0.044920     24.000000
  0.078611 -0.078611 -0.033690     24.000000
  0.067381 -0.067381 -0.022460     24.000000
  0.056151 -0.056151 -0.011230     24.000000
  0.044920 -0.044920  0.000000     12.000000
  0.000000 -0.000000  0.067381      6.000000
 -0.011230  0.011230  0.078611     24.000000
 -0.022460  0.022460  0.089841     24.000000
 -0.033690  0.033690  0.101071     24.000000
  0.101071 -0.101071 -0.033690     24.000000
  0.089841 -0.089841 -0.022460     24.000000
  0.078611 -0.078611 -0.011230     24.000000
  0.067381 -0.067381  0.000000     12.000000
  0.000000 -0.000000  0.089841      6.000000
 -0.011230  0.011230  0.101071     24.000000
 -0.022460  0.022460  0.112301     24.000000
  0.112301 -0.112301 -0.022460     24.000000
  0.101071 -0.101071 -0.011230     24.000000
  0.089841 -0.089841  0.000000     12.000000
  0.000000 -0.000000  0.112301      6.000000
 -0.011230  0.011230  0.123531     24.000000
  0.123531 -0.123531 -0.011230     24.000000
  0.112301 -0.112301  0.000000     12.000000
  0.000000 -0.000000  0.134761      6.000000
  0.134761 -0.134761  0.000000     12.000000
 -0.000000  0.022460  0.044920     24.000000
 -0.011230  0.033690  0.056151     48.000000
 -0.022460  0.044920  0.067381     48.000000
 -0.033690  0.056151  0.078611     48.000000
  0.101071 -0.078611 -0.056151     48.000000
  0.000000  0.022460  0.067381     24.000000
 -0.011230  0.033690  0.078611     48.000000
 -0.022460  0.044920  0.089841     48.000000
  0.112301 -0.089841 -0.044920     48.000000
  0.101071 -0.078611 -0.033690     48.000000
  0.089841 -0.067381 -0.022460     48.000000
  0.078611 -0.056151 -0.011230     48.000000
  0.067381 -0.044920  0.000000     24.000000
  0.000000  0.022460  0.089841     24.000000
 -0.011230  0.033690  0.101071     48.000000
  0.123531 -0.101071 -0.033690     48.000000
  0.112301 -0.089841 -0.022460     48.000000
  0.101071 -0.078611 -0.011230     48.000000
  0.089841 -0.067381 -0.000000     24.000000
  0.000000  0.022460  0.112301     24.000000
  0.134761 -0.112301 -0.022460     48.000000
  0.123531 -0.101071 -0.011230     48.000000
  0.112301 -0.089841 -0.000000     24.000000
  0.145991 -0.123531 -0.011230     24.000000
  0.134761 -0.112301 -0.000000     24.000000
  0.000000  0.044920  0.089841     24.000000
  0.134761 -0.089841 -0.044920     48.000000
  0.123531 -0.078611 -0.033690     48.000000
  0.145991 -0.101071 -0.033690     24.000000
  0.134761 -0.089841 -0.022460     48.000000
  0.123531 -0.078611 -0.011230     48.000000
  0.112301 -0.067381  0.000000     24.000000
  0.145991 -0.101071 -0.011230     24.000000
  0.134761 -0.089841  0.000000     24.000000
  0.145991 -0.078611 -0.011230     24.000000



--------------------------------------------------------------------------------------------------------




 Dimension of arrays:
   k-points           NKPTS =     84   k-points in BZ     NKDIM =     84   number of bands    NBANDS=     24
   number of dos      NEDOS =    301   number of ions     NIONS =      3
   non local maximal  LDIM  =      8   non local SUM 2l+1 LMDIM =     32
   total plane-waves  NPLWV =  64000
   max r-space proj   IRMAX =      1   max aug-charges    IRDMAX= 470837
   dimension x,y,z NGX =    40 NGY =   40 NGZ =   40
   dimension x,y,z NGXF=    80 NGYF=   80 NGZF=   80
   support grid    NGXF=   160 NGYF=  160 NGZF=  160
   ions per type =               1   1   1
   NGX,Y,Z   is equivalent  to a cutoff of  14.67, 14.67, 14.67 a.u.
   NGXF,Y,Z  is equivalent  to a cutoff of  29.34, 29.34, 29.34 a.u.

 SYSTEM =  unknown system
 POSCAR =  Th1 Bi1 Pt1

 Startparameter for this run:
   NWRITE =      2    write-flag & timer
   PREC   = acc       normal or accurate (medium, high low for compatibility)
   ISTART =      0    job   : 0-new  1-cont  2-samecut
   ICHARG =      2    charge: 1-file 2-atom 10-const
   ISPIN  =      1    spin polarized calculation?
   LNONCOLLINEAR =      F non collinear calculations
   LSORBIT =      F    spin-orbit coupling
   INIWAV =      1    electr: 0-lowe 1-rand  2-diag
   LASPH  =      F    aspherical Exc in radial PAW
   METAGGA=      F    non-selfconsistent MetaGGA calc.

 Electronic Relaxation 1
   ENCUT  =  700.0 eV  51.45 Ry    7.17 a.u.   9.78  9.78  9.78*2*pi/ulx,y,z
   ENINI  =  700.0     initial cutoff
   ENAUG  =  535.4 eV  augmentation charge cutoff
   NELM   =     60;   NELMIN=  5; NELMDL= -5     # of ELM steps
   EDIFF  = 0.1E-06   stopping-criterion for ELM
   LREAL  =      F    real-space projection
   NLSPLINE    = F    spline interpolate recip. space projectors
   LCOMPAT=      F    compatible to vasp.4.4
   GGA_COMPAT  = T    GGA compatible to vasp.4.4-vasp.4.6
   LMAXPAW     = -100 max onsite density
   LMAXMIX     =    2 max onsite mixed and CHGCAR
   VOSKOWN=      0    Vosko Wilk Nusair interpolation
   ROPT   =    0.00000   0.00000   0.00000
 Ionic relaxation
   EDIFFG = 0.1E-05   stopping-criterion for IOM
   NSW    =      0    number of steps for IOM
   NBLOCK =      1;   KBLOCK =      1    inner block; outer block
   IBRION =     -1    ionic relax: 0-MD 1-quasi-New 2-CG
   NFREE  =      0    steps in history (QN), initial steepest desc. (CG)
   ISIF   =      3    stress and relaxation
   IWAVPR =     10    prediction:  0-non 1-charg 2-wave 3-comb
   ISYM   =      2    0-nonsym 1-usesym 2-fastsym
   LCORR  =      T    Harris-Foulkes like correction to forces

   POTIM  = 0.5000    time-step for ionic-motion
   TEIN   =    0.0    initial temperature
   TEBEG  =    0.0;   TEEND  =   0.0 temperature during run
   SMASS  =  -3.00    Nose mass-parameter (am)
   estimated Nose-frequenzy (Omega)   =  0.10E-29 period in steps = 0.13E+47 mass=  -0.470E-27a.u.
   SCALEE = 1.0000    scale energy and forces
   NPACO  =    256;   APACO  = 16.0  distance and # of slots for P.C.
   PSTRESS=    0.0 pullay stress

  Mass of Ions in am
   POMASS = 232.04208.98195.08
  Ionic Valenz
   ZVAL   =  12.00 15.00 10.00
  Atomic Wigner-Seitz radii
   RWIGS  =  -1.00 -1.00 -1.00
  virtual crystal weights
   VCA    =   1.00  1.00  1.00
   NELECT =      37.0000    total number of electrons
   NUPDOWN=      -1.0000    fix difference up-down

 DOS related values:
   EMIN   =  10.00;   EMAX   =-10.00  energy-range for DOS
   EFERMI =   0.00
   ISMEAR =     0;   SIGMA  =   0.01  broadening in eV -4-tet -1-fermi 0-gaus

 Electronic relaxation 2 (details)
   IALGO  =     38    algorithm
   LDIAG  =      T    sub-space diagonalisation (order eigenvalues)
   LSUBROT=      F    optimize rotation matrix (better conditioning)
   TURBO    =      0    0=normal 1=particle mesh
   IRESTART =      0    0=no restart 2=restart with 2 vectors
   NREBOOT  =      0    no. of reboots
   NMIN     =      0    reboot dimension
   EREF     =   0.00    reference energy to select bands
   IMIX   =      4    mixing-type and parameters
     AMIX     =   0.40;   BMIX     =  1.00
     AMIX_MAG =   1.60;   BMIX_MAG =  1.00
     AMIN     =   0.10
     WC   =   100.;   INIMIX=   1;  MIXPRE=   1;  MAXMIX= -45

 Intra band minimization:
   WEIMIN = 0.0000     energy-eigenvalue tresh-hold
   EBREAK =  0.10E-08  absolut break condition
   DEPER  =   0.30     relativ break condition

   TIME   =   0.40     timestep for ELM

  volume/ion in A,a.u.               =      21.96       148.20
  Fermi-wavevector in a.u.,A,eV,Ry     =   1.350677  2.552409 24.821485  1.824328
  Thomas-Fermi vector in A             =   2.478162

 Write flags
   LWAVE        =      F    write WAVECAR
   LDOWNSAMPLE  =      F    k-point downsampling of WAVECAR
   LCHARG       =      F    write CHGCAR
   LVTOT        =      F    write LOCPOT, total local potential
   LVHAR        =      F    write LOCPOT, Hartree potential only
   LELF         =      F    write electronic localiz. function (ELF)
   LORBIT       =      0    0 simple, 1 ext, 2 COOP (PROOUT), +10 PAW based schemes


 Dipole corrections
   LMONO  =      F    monopole corrections only (constant potential shift)
   LDIPOL =      F    correct potential (dipole corrections)
   IDIPOL =      0    1-x, 2-y, 3-z, 4-all directions
   EPSILON=  1.0000000 bulk dielectric constant

 Exchange correlation treatment:
   GGA     =    PS    GGA type
   LEXCH   =    14    internal setting for exchange type
   VOSKOWN=      0    Vosko Wilk Nusair interpolation
   LHFCALC =     F    Hartree Fock is set to
   LHFONE  =     F    Hartree Fock one center treatment
   AEXX    =    0.0000 exact exchange contribution

 Linear response parameters
   LEPSILON=     F    determine dielectric tensor
   LRPA    =     F    only Hartree local field effects (RPA)
   LNABLA  =     F    use nabla operator in PAW spheres
   LVEL    =     F    velocity operator in full k-point grid
   LINTERFAST=   F  fast interpolation
   KINTER  =     0    interpolate to denser k-point grid
   CSHIFT  =0.1000    complex shift for real part using Kramers Kronig
   OMEGAMAX=  -1.0    maximum frequency
   DEG_THRESHOLD= 0.2000000E-02 threshold for treating states as degnerate
   RTIME   =   -0.100 relaxation time in fs
  (WPLASMAI=    0.000 imaginary part of plasma frequency in eV, 0.658/RTIME)
   DFIELD  = 0.0000000 0.0000000 0.0000000 field for delta impulse in time

 Orbital magnetization related:
   ORBITALMAG=     F  switch on orbital magnetization
   LCHIMAG   =     F  perturbation theory with respect to B field
   DQ        =  0.001000  dq finite difference perturbation B field
   LLRAUG    =     F  two centre corrections for induced B field



--------------------------------------------------------------------------------------------------------


 Static calculation
 charge density and potential will be updated during run
 non-spin polarized calculation
 Variant of blocked Davidson
 Davidson routine will perform the subspace rotation
 perform sub-space diagonalisation
    after iterative eigenvector-optimisation
 modified Broyden-mixing scheme, WC =      100.0
 initial mixing is a Kerker type mixing with AMIX =  0.4000 and BMIX =      1.0000
 Hartree-type preconditioning will be used
 using additional bands            5
 reciprocal scheme for non local part
 use partial core corrections
 calculate Harris-corrections to forces
   (improved forces if not selfconsistent)
 use gradient corrections
 use of overlap-Matrix (Vanderbilt PP)
 Gauss-broadening in eV      SIGMA  =   0.01


--------------------------------------------------------------------------------------------------------


  energy-cutoff  :      700.00
  volume of cell :       65.88
      direct lattice vectors                 reciprocal lattice vectors
     0.000000000  3.205634331  3.205634331    -0.155975370  0.155975370  0.155975370
     3.205634331  0.000000000  3.205634331     0.155975370 -0.155975370  0.155975370
     3.205634331  3.205634331  0.000000000     0.155975370  0.155975370 -0.155975370

  length of vectors
     4.533451547  4.533451547  4.533451547     0.270157265  0.270157265  0.270157265



 k-points in units of 2pi/SCALE and weight: KPOINTS
   0.00000000  0.00000000  0.00000000       0.000
  -0.01123011  0.01123011  0.01123011       0.004
  -0.02246022  0.02246022  0.02246022       0.004
  -0.03369033  0.03369033  0.03369033       0.004
  -0.04492043  0.04492043  0.04492043       0.004
  -0.05615054  0.05615054  0.05615054       0.004
  -0.06738065  0.06738065  0.06738065       0.004
  -0.00000000  0.00000000  0.02246022       0.003
  -0.01123011  0.01123011  0.03369033       0.011
  -0.02246022  0.02246022  0.04492043       0.011
  -0.03369033  0.03369033  0.05615054       0.011
  -0.04492043  0.04492043  0.06738065       0.011
  -0.05615054  0.05615054  0.07861076       0.011
   0.07861076 -0.07861076 -0.05615054       0.011
   0.06738065 -0.06738065 -0.04492043       0.011
   0.05615054 -0.05615054 -0.03369033       0.011
   0.04492043 -0.04492043 -0.02246022       0.011
   0.03369033 -0.03369033 -0.01123011       0.011
   0.02246022 -0.02246022  0.00000000       0.005
   0.00000000 -0.00000000  0.04492043       0.003
  -0.01123011  0.01123011  0.05615054       0.011
  -0.02246022  0.02246022  0.06738065       0.011
  -0.03369033  0.03369033  0.07861076       0.011
  -0.04492043  0.04492043  0.08984087       0.011
   0.08984087 -0.08984087 -0.04492043       0.011
   0.07861076 -0.07861076 -0.03369033       0.011
   0.06738065 -0.06738065 -0.02246022       0.011
   0.05615054 -0.05615054 -0.01123011       0.011
   0.04492043 -0.04492043  0.00000000       0.005
   0.00000000 -0.00000000  0.06738065       0.003
  -0.01123011  0.01123011  0.07861076       0.011
  -0.02246022  0.02246022  0.08984087       0.011
  -0.03369033  0.03369033  0.10107098       0.011
   0.10107098 -0.10107098 -0.03369033       0.011
   0.08984087 -0.08984087 -0.02246022       0.011
   0.07861076 -0.07861076 -0.01123011       0.011
   0.06738065 -0.06738065  0.00000000       0.005
   0.00000000 -0.00000000  0.08984087       0.003
  -0.01123011  0.01123011  0.10107098       0.011
  -0.02246022  0.02246022  0.11230109       0.011
   0.11230109 -0.11230109 -0.02246022       0.011
   0.10107098 -0.10107098 -0.01123011       0.011
   0.08984087 -0.08984087  0.00000000       0.005
   0.00000000 -0.00000000  0.11230109       0.003
  -0.01123011  0.01123011  0.12353119       0.011
   0.12353119 -0.12353119 -0.01123011       0.011
   0.11230109 -0.11230109  0.00000000       0.005
   0.00000000 -0.00000000  0.13476130       0.003
   0.13476130 -0.13476130  0.00000000       0.005
  -0.00000000  0.02246022  0.04492043       0.011
  -0.01123011  0.03369033  0.05615054       0.022
  -0.02246022  0.04492043  0.06738065       0.022
  -0.03369033  0.05615054  0.07861076       0.022
   0.10107098 -0.07861076 -0.05615054       0.022
   0.00000000  0.02246022  0.06738065       0.011
  -0.01123011  0.03369033  0.07861076       0.022
  -0.02246022  0.04492043  0.08984087       0.022
   0.11230109 -0.08984087 -0.04492043       0.022
   0.10107098 -0.07861076 -0.03369033       0.022
   0.08984087 -0.06738065 -0.02246022       0.022
   0.07861076 -0.05615054 -0.01123011       0.022
   0.06738065 -0.04492043  0.00000000       0.011
   0.00000000  0.02246022  0.08984087       0.011
  -0.01123011  0.03369033  0.10107098       0.022
   0.12353119 -0.10107098 -0.03369033       0.022
   0.11230109 -0.08984087 -0.02246022       0.022
   0.10107098 -0.07861076 -0.01123011       0.022
   0.08984087 -0.06738065 -0.00000000       0.011
   0.00000000  0.02246022  0.11230109       0.011
   0.13476130 -0.11230109 -0.02246022       0.022
   0.12353119 -0.10107098 -0.01123011       0.022
   0.11230109 -0.08984087 -0.00000000       0.011
   0.14599141 -0.12353119 -0.01123011       0.011
   0.13476130 -0.11230109 -0.00000000       0.011
   0.00000000  0.04492043  0.08984087       0.011
   0.13476130 -0.08984087 -0.04492043       0.022
   0.12353119 -0.07861076 -0.03369033       0.022
   0.14599141 -0.10107098 -0.03369033       0.011
   0.13476130 -0.08984087 -0.02246022       0.022
   0.12353119 -0.07861076 -0.01123011       0.022
   0.11230109 -0.06738065  0.00000000       0.011
   0.14599141 -0.10107098 -0.01123011       0.011
   0.13476130 -0.08984087  0.00000000       0.011
   0.14599141 -0.07861076 -0.01123011       0.011

 k-points in reciprocal lattice and weights: KPOINTS
   0.00000000  0.00000000  0.00000000       0.000
   0.07692308 -0.00000000  0.00000000       0.004
   0.15384615 -0.00000000 -0.00000000       0.004
   0.23076923 -0.00000000 -0.00000000       0.004
   0.30769231 -0.00000000 -0.00000000       0.004
   0.38461538  0.00000000 -0.00000000       0.004
   0.46153846 -0.00000000  0.00000000       0.004
   0.07692308  0.07692308  0.00000000       0.003
   0.15384615  0.07692308 -0.00000000       0.011
   0.23076923  0.07692308  0.00000000       0.011
   0.30769231  0.07692308 -0.00000000       0.011
   0.38461538  0.07692308  0.00000000       0.011
   0.46153846  0.07692308 -0.00000000       0.011
  -0.46153846  0.07692308  0.00000000       0.011
  -0.38461538  0.07692308  0.00000000       0.011
  -0.30769231  0.07692308  0.00000000       0.011
  -0.23076923  0.07692308  0.00000000       0.011
  -0.15384615  0.07692308 -0.00000000       0.011
  -0.07692308  0.07692308  0.00000000       0.005
   0.15384615  0.15384615  0.00000000       0.003
   0.23076923  0.15384615  0.00000000       0.011
   0.30769231  0.15384615 -0.00000000       0.011
   0.38461538  0.15384615 -0.00000000       0.011
   0.46153846  0.15384615 -0.00000000       0.011
  -0.46153846  0.15384615  0.00000000       0.011
  -0.38461538  0.15384615  0.00000000       0.011
  -0.30769231  0.15384615 -0.00000000       0.011
  -0.23076923  0.15384615  0.00000000       0.011
  -0.15384615  0.15384615 -0.00000000       0.005
   0.23076923  0.23076923  0.00000000       0.003
   0.30769231  0.23076923  0.00000000       0.011
   0.38461538  0.23076923  0.00000000       0.011
   0.46153846  0.23076923 -0.00000000       0.011
  -0.46153846  0.23076923 -0.00000000       0.011
  -0.38461538  0.23076923  0.00000000       0.011
  -0.30769231  0.23076923  0.00000000       0.011
  -0.23076923  0.23076923 -0.00000000       0.005
   0.30769231  0.30769231  0.00000000       0.003
   0.38461538  0.30769231  0.00000000       0.011
   0.46153846  0.30769231 -0.00000000       0.011
  -0.46153846  0.30769231  0.00000000       0.011
  -0.38461538  0.30769231 -0.00000000       0.011
  -0.30769231  0.30769231 -0.00000000       0.005
   0.38461538  0.38461538  0.00000000       0.003
   0.46153846  0.38461538  0.00000000       0.011
  -0.46153846  0.38461538  0.00000000       0.011
  -0.38461538  0.38461538  0.00000000       0.005
   0.46153846  0.46153846  0.00000000       0.003
  -0.46153846  0.46153846 -0.00000000       0.005
   0.23076923  0.15384615  0.07692308       0.011
   0.30769231  0.15384615  0.07692308       0.022
   0.38461538  0.15384615  0.07692308       0.022
   0.46153846  0.15384615  0.07692308       0.022
  -0.46153846  0.15384615  0.07692308       0.022
   0.30769231  0.23076923  0.07692308       0.011
   0.38461538  0.23076923  0.07692308       0.022
   0.46153846  0.23076923  0.07692308       0.022
  -0.46153846  0.23076923  0.07692308       0.022
  -0.38461538  0.23076923  0.07692308       0.022
  -0.30769231  0.23076923  0.07692308       0.022
  -0.23076923  0.23076923  0.07692308       0.022
  -0.15384615  0.23076923  0.07692308       0.011
   0.38461538  0.30769231  0.07692308       0.011
   0.46153846  0.30769231  0.07692308       0.022
  -0.46153846  0.30769231  0.07692308       0.022
  -0.38461538  0.30769231  0.07692308       0.022
  -0.30769231  0.30769231  0.07692308       0.022
  -0.23076923  0.30769231  0.07692308       0.011
   0.46153846  0.38461538  0.07692308       0.011
  -0.46153846  0.38461538  0.07692308       0.022
  -0.38461538  0.38461538  0.07692308       0.022
  -0.30769231  0.38461538  0.07692308       0.011
  -0.46153846  0.46153846  0.07692308       0.011
  -0.38461538  0.46153846  0.07692308       0.011
   0.46153846  0.30769231  0.15384615       0.011
  -0.46153846  0.30769231  0.15384615       0.022
  -0.38461538  0.30769231  0.15384615       0.022
  -0.46153846  0.38461538  0.15384615       0.011
  -0.38461538  0.38461538  0.15384615       0.022
  -0.30769231  0.38461538  0.15384615       0.022
  -0.23076923  0.38461538  0.15384615       0.011
  -0.38461538  0.46153846  0.15384615       0.011
  -0.30769231  0.46153846  0.15384615       0.011
  -0.30769231  0.46153846  0.23076923       0.011

 position of ions in fractional coordinates (direct lattice)
   0.25000000  0.25000000  0.25000000
   0.75000000  0.75000000  0.75000000
   0.00000000  0.00000000  0.00000000

 position of ions in cartesian coordinates  (Angst):
   1.60281717  1.60281717  1.60281717
   4.80845150  4.80845150  4.80845150
   0.00000000  0.00000000  0.00000000



--------------------------------------------------------------------------------------------------------


 k-point  1 :   0.0000 0.0000 0.0000  plane waves:    2733
 k-point  2 :   0.0769-0.0000 0.0000  plane waves:    2737
 k-point  3 :   0.1538-0.0000-0.0000  plane waves:    2761
 k-point  4 :   0.2308-0.0000-0.0000  plane waves:    2770
 k-point  5 :   0.3077-0.0000-0.0000  plane waves:    2779
 k-point  6 :   0.3846 0.0000-0.0000  plane waves:    2794
 k-point  7 :   0.4615-0.0000 0.0000  plane waves:    2782
 k-point  8 :   0.0769 0.0769 0.0000  plane waves:    2745
 k-point  9 :   0.1538 0.0769-0.0000  plane waves:    2761
 k-point 10 :   0.2308 0.0769 0.0000  plane waves:    2768
 k-point 11 :   0.3077 0.0769-0.0000  plane waves:    2770
 k-point 12 :   0.3846 0.0769 0.0000  plane waves:    2769
 k-point 13 :   0.4615 0.0769-0.0000  plane waves:    2777
 k-point 14 :  -0.4615 0.0769 0.0000  plane waves:    2782
 k-point 15 :  -0.3846 0.0769 0.0000  plane waves:    2794
 k-point 16 :  -0.3077 0.0769 0.0000  plane waves:    2775
 k-point 17 :  -0.2308 0.0769 0.0000  plane waves:    2786
 k-point 18 :  -0.1538 0.0769-0.0000  plane waves:    2765
 k-point 19 :  -0.0769 0.0769 0.0000  plane waves:    2749
 k-point 20 :   0.1538 0.1538 0.0000  plane waves:    2750
 k-point 21 :   0.2308 0.1538 0.0000  plane waves:    2767
 k-point 22 :   0.3077 0.1538-0.0000  plane waves:    2769
 k-point 23 :   0.3846 0.1538-0.0000  plane waves:    2770
 k-point 24 :   0.4615 0.1538-0.0000  plane waves:    2772
 k-point 25 :  -0.4615 0.1538 0.0000  plane waves:    2768
 k-point 26 :  -0.3846 0.1538 0.0000  plane waves:    2773
 k-point 27 :  -0.3077 0.1538-0.0000  plane waves:    2774
 k-point 28 :  -0.2308 0.1538 0.0000  plane waves:    2778
 k-point 29 :  -0.1538 0.1538-0.0000  plane waves:    2774
 k-point 30 :   0.2308 0.2308 0.0000  plane waves:    2798
 k-point 31 :   0.3077 0.2308 0.0000  plane waves:    2775
 k-point 32 :   0.3846 0.2308 0.0000  plane waves:    2767
 k-point 33 :   0.4615 0.2308-0.0000  plane waves:    2763
 k-point 34 :  -0.4615 0.2308-0.0000  plane waves:    2766
 k-point 35 :  -0.3846 0.2308 0.0000  plane waves:    2767
 k-point 36 :  -0.3077 0.2308 0.0000  plane waves:    2766
 k-point 37 :  -0.2308 0.2308-0.0000  plane waves:    2766
 k-point 38 :   0.3077 0.3077 0.0000  plane waves:    2778
 k-point 39 :   0.3846 0.3077 0.0000  plane waves:    2775
 k-point 40 :   0.4615 0.3077-0.0000  plane waves:    2769
 k-point 41 :  -0.4615 0.3077 0.0000  plane waves:    2779
 k-point 42 :  -0.3846 0.3077-0.0000  plane waves:    2772
 k-point 43 :  -0.3077 0.3077-0.0000  plane waves:    2760
 k-point 44 :   0.3846 0.3846 0.0000  plane waves:    2782
 k-point 45 :   0.4615 0.3846 0.0000  plane waves:    2782
 k-point 46 :  -0.4615 0.3846 0.0000  plane waves:    2781
 k-point 47 :  -0.3846 0.3846 0.0000  plane waves:    2776
 k-point 48 :   0.4615 0.4615 0.0000  plane waves:    2770
 k-point 49 :  -0.4615 0.4615-0.0000  plane waves:    2774
 k-point 50 :   0.2308 0.1538 0.0769  plane waves:    2764
 k-point 51 :   0.3077 0.1538 0.0769  plane waves:    2778
 k-point 52 :   0.3846 0.1538 0.0769  plane waves:    2771
 k-point 53 :   0.4615 0.1538 0.0769  plane waves:    2772
 k-point 54 :  -0.4615 0.1538 0.0769  plane waves:    2778
 k-point 55 :   0.3077 0.2308 0.0769  plane waves:    2774
 k-point 56 :   0.3846 0.2308 0.0769  plane waves:    2769
 k-point 57 :   0.4615 0.2308 0.0769  plane waves:    2770
 k-point 58 :  -0.4615 0.2308 0.0769  plane waves:    2772
 k-point 59 :  -0.3846 0.2308 0.0769  plane waves:    2767
 k-point 60 :  -0.3077 0.2308 0.0769  plane waves:    2763
 k-point 61 :  -0.2308 0.2308 0.0769  plane waves:    2778
 k-point 62 :  -0.1538 0.2308 0.0769  plane waves:    2767
 k-point 63 :   0.3846 0.3077 0.0769  plane waves:    2774
 k-point 64 :   0.4615 0.3077 0.0769  plane waves:    2767
 k-point 65 :  -0.4615 0.3077 0.0769  plane waves:    2762
 k-point 66 :  -0.3846 0.3077 0.0769  plane waves:    2768
 k-point 67 :  -0.3077 0.3077 0.0769  plane waves:    2765
 k-point 68 :  -0.2308 0.3077 0.0769  plane waves:    2768
 k-point 69 :   0.4615 0.3846 0.0769  plane waves:    2767
 k-point 70 :  -0.4615 0.3846 0.0769  plane waves:    2772
 k-point 71 :  -0.3846 0.3846 0.0769  plane waves:    2771
 k-point 72 :  -0.3077 0.3846 0.0769  plane waves:    2765
 k-point 73 :  -0.4615 0.4615 0.0769  plane waves:    2774
 k-point 74 :  -0.3846 0.4615 0.0769  plane waves:    2791
 k-point 75 :   0.4615 0.3077 0.1538  plane waves:    2770
 k-point 76 :  -0.4615 0.3077 0.1538  plane waves:    2768
 k-point 77 :  -0.3846 0.3077 0.1538  plane waves:    2775
 k-point 78 :  -0.4615 0.3846 0.1538  plane waves:    2771
 k-point 79 :  -0.3846 0.3846 0.1538  plane waves:    2765
 k-point 80 :  -0.3077 0.3846 0.1538  plane waves:    2766
 k-point 81 :  -0.2308 0.3846 0.1538  plane waves:    2762
 k-point 82 :  -0.3846 0.4615 0.1538  plane waves:    2769
 k-point 83 :  -0.3077 0.4615 0.1538  plane waves:    2763
 k-point 84 :  -0.3077 0.4615 0.2308  plane waves:    2758

 maximum and minimum number of plane-waves per node :       709      668

 maximum number of plane-waves:      2798
 maximum index in each direction:
   IXMAX=   10   IYMAX=    9   IZMAX=    9
   IXMIN=  -10   IYMIN=  -10   IZMIN=   -9


 parallel 3D FFT for wavefunctions:
    minimum data exchange during FFTs selected (reduces bandwidth)
 parallel 3D FFT for charge:
    minimum data exchange during FFTs selected (reduces bandwidth)


 total amount of memory used by VASP MPI-rank0    89660. kBytes
=======================================================================

   base      :      30000. kBytes
   nonl-proj :      45708. kBytes
   fftplans  :       5204. kBytes
   grid      :       2732. kBytes
   one-center:         49. kBytes
   wavefun   :       5967. kBytes

     INWAV:  cpu time    0.0002: real time    0.0005
 Broyden mixing: mesh for mixing (old mesh)
   NGX = 19   NGY = 19   NGZ = 19
  (NGX  = 80   NGY  = 80   NGZ  = 80)
  gives a total of   6859 points

 initial charge density was supplied:
 charge density of overlapping atoms calculated
 number of electron      37.0000000 magnetization
 keeping initial charge density in first step


--------------------------------------------------------------------------------------------------------


 Maximum index for augmentation-charges        28695 (set IRDMAX)


--------------------------------------------------------------------------------------------------------


 First call to EWALD:  gamma=   0.439
 Maximum number of real-space cells 3x 3x 3
 Maximum number of reciprocal cells 3x 3x 3

    FEWALD:  cpu time    0.0053: real time    0.0064


--------------------------------------- Iteration      1(   1)  ---------------------------------------


    POTLOK:  cpu time    0.0478: real time    0.1202
    SETDIJ:  cpu time    0.0993: real time    0.0996
     EDDAV:  cpu time    1.4304: real time    1.4364
       DOS:  cpu time    0.0040: real time    0.0047
    --------------------------------------------
      LOOP:  cpu time    1.5819: real time    1.6638

 eigenvalue-minimisations  :  4032
 total energy-change (2. order) : 0.4536443E+03  (-0.2084854E+04)
 number of electron      37.0000000 magnetization
 augmentation part       37.0000000 magnetization

 Free energy of the ion-electron system (eV)
  ---------------------------------------------------
  alpha Z        PSCENC =       260.78987782
  Ewald energy   TEWEN  =     -3341.67257438
  -Hartree energ DENC   =      -669.35203108
  -exchange      EXHF   =         0.00000000
  -V(xc)+E(xc)   XCENC  =        70.68060834
  PAW double counting   =      3147.30828992    -3070.62761383
  entropy T*S    EENTRO =        -0.00013729
  eigenvalues    EBANDS =       381.84446920
  atomic energy  EATOM  =      3674.67342263
  Solvation  Ediel_sol  =         0.00000000
  ---------------------------------------------------
  free energy    TOTEN  =       453.64431133 eV

  energy without entropy =      453.64444862  energy(sigma->0) =      453.64437998


--------------------------------------------------------------------------------------------------------




--------------------------------------- Iteration      1(   2)  ---------------------------------------


     EDDAV:  cpu time    1.4226: real time    1.4685
       DOS:  cpu time    0.0031: real time    0.0035
    --------------------------------------------
      LOOP:  cpu time    1.4258: real time    1.4707

 eigenvalue-minimisations  :  4056
 total energy-change (2. order) :-0.4056969E+03  (-0.3963544E+03)
 number of electron      37.0000000 magnetization
 augmentation part       37.0000000 magnetization

 Free energy of the ion-electron system (eV)
  ---------------------------------------------------
  alpha Z        PSCENC =       260.78987782
  Ewald energy   TEWEN  =     -3341.67257438
  -Hartree energ DENC   =      -669.35203108
  -exchange      EXHF   =         0.00000000
  -V(xc)+E(xc)   XCENC  =        70.68060834
  PAW double counting   =      3147.30828992    -3070.62761383
  entropy T*S    EENTRO =        -0.00019279
  eigenvalues    EBANDS =       -23.85235199
  atomic energy  EATOM  =      3674.67342263
  Solvation  Ediel_sol  =         0.00000000
  ---------------------------------------------------
  free energy    TOTEN  =        47.94743465 eV

  energy without entropy =       47.94762744  energy(sigma->0) =       47.94753104


--------------------------------------------------------------------------------------------------------




--------------------------------------- Iteration      1(   3)  ---------------------------------------


     EDDAV:  cpu time    1.8089: real time    1.8400
       DOS:  cpu time    0.0031: real time    0.0041
    --------------------------------------------
      LOOP:  cpu time    1.8119: real time    1.8440

 eigenvalue-minimisations  :  5600
 total energy-change (2. order) :-0.6523348E+02  (-0.6438412E+02)
 number of electron      37.0000000 magnetization
 augmentation part       37.0000000 magnetization

 Free energy of the ion-electron system (eV)
  ---------------------------------------------------
  alpha Z        PSCENC =       260.78987782
  Ewald energy   TEWEN  =     -3341.67257438
  -Hartree energ DENC   =      -669.35203108
  -exchange      EXHF   =         0.00000000
  -V(xc)+E(xc)   XCENC  =        70.68060834
  PAW double counting   =      3147.30828992    -3070.62761383
  entropy T*S    EENTRO =        -0.00031953
  eigenvalues    EBANDS =       -89.08570542
  atomic energy  EATOM  =      3674.67342263
  Solvation  Ediel_sol  =         0.00000000
  ---------------------------------------------------
  free energy    TOTEN  =       -17.28604553 eV

  energy without entropy =      -17.28572600  energy(sigma->0) =      -17.28588576


--------------------------------------------------------------------------------------------------------




--------------------------------------- Iteration      1(   4)  ---------------------------------------


     EDDAV:  cpu time    2.2288: real time    2.2488
       DOS:  cpu time    0.0030: real time    0.0039
    --------------------------------------------
      LOOP:  cpu time    2.2318: real time    2.2518

 eigenvalue-minimisations  :  7184
 total energy-change (2. order) :-0.4137619E+01  (-0.4125574E+01)
 number of electron      37.0000000 magnetization
 augmentation part       37.0000000 magnetization

 Free energy of the ion-electron system (eV)
  ---------------------------------------------------
  alpha Z        PSCENC =       260.78987782
  Ewald energy   TEWEN  =     -3341.67257438
  -Hartree energ DENC   =      -669.35203108
  -exchange      EXHF   =         0.00000000
  -V(xc)+E(xc)   XCENC  =        70.68060834
  PAW double counting   =      3147.30828992    -3070.62761383
  entropy T*S    EENTRO =        -0.00039731
  eigenvalues    EBANDS =       -93.22324691
  atomic energy  EATOM  =      3674.67342263
  Solvation  Ediel_sol  =         0.00000000
  ---------------------------------------------------
  free energy    TOTEN  =       -21.42366479 eV

  energy without entropy =      -21.42326749  energy(sigma->0) =      -21.42346614


--------------------------------------------------------------------------------------------------------




--------------------------------------- Iteration      1(   5)  ---------------------------------------


     EDDAV:  cpu time    1.8041: real time    1.8261
       DOS:  cpu time    0.0031: real time    0.0034
    CHARGE:  cpu time    0.3161: real time    0.3164
    MIXING:  cpu time    0.0099: real time    0.0106
    --------------------------------------------
      LOOP:  cpu time    2.1332: real time    2.1575

 eigenvalue-minimisations  :  5672
 total energy-change (2. order) :-0.1150052E+00  (-0.1149265E+00)
 number of electron      37.0000000 magnetization
 augmentation part        5.9282977 magnetization

 Broyden mixing:
  rms(total) = 0.46426E+01    rms(broyden)= 0.46426E+01
  rms(prec ) = 0.48623E+01
  weight for this iteration     100.00

 Free energy of the ion-electron system (eV)
  ---------------------------------------------------
  alpha Z        PSCENC =       260.78987782
  Ewald energy   TEWEN  =     -3341.67257438
  -Hartree energ DENC   =      -669.35203108
  -exchange      EXHF   =         0.00000000
  -V(xc)+E(xc)   XCENC  =        70.68060834
  PAW double counting   =      3147.30828992    -3070.62761383
  entropy T*S    EENTRO =        -0.00042722
  eigenvalues    EBANDS =       -93.33822219
  atomic energy  EATOM  =      3674.67342263
  Solvation  Ediel_sol  =         0.00000000
  ---------------------------------------------------
  free energy    TOTEN  =       -21.53866998 eV

  energy without entropy =      -21.53824276  energy(sigma->0) =      -21.53845637


--------------------------------------------------------------------------------------------------------




--------------------------------------- Iteration      1(   6)  ---------------------------------------


    POTLOK:  cpu time    0.0365: real time    0.0622
    SETDIJ:  cpu time    0.0980: real time    0.0981
     EDDAV:  cpu time    1.6870: real time    1.6873
       DOS:  cpu time    0.0031: real time    0.0034
    CHARGE:  cpu time    0.2883: real time    0.2888
    MIXING:  cpu time    0.0080: real time    0.0081
    --------------------------------------------
      LOOP:  cpu time    2.1209: real time    2.1492

 eigenvalue-minimisations  :  5264
 total energy-change (2. order) : 0.7451661E+00  (-0.1320173E+00)
 number of electron      37.0000000 magnetization
 augmentation part        6.0032451 magnetization

 Broyden mixing:
  rms(total) = 0.27616E+01    rms(broyden)= 0.27616E+01
  rms(prec ) = 0.28401E+01
  weight for this iteration     100.00

 eigenvalues of (default mixing * dielectric matrix)
  average eigenvalue GAMMA=   2.4343
  2.4343

 Free energy of the ion-electron system (eV)
  ---------------------------------------------------
  alpha Z        PSCENC =       260.78987782
  Ewald energy   TEWEN  =     -3341.67257438
  -Hartree energ DENC   =      -653.11663825
  -exchange      EXHF   =         0.00000000
  -V(xc)+E(xc)   XCENC  =        70.22452951
  PAW double counting   =      3693.99892792    -3622.97310329
  entropy T*S    EENTRO =        -0.00018771
  eigenvalues    EBANDS =      -102.71775810
  atomic energy  EATOM  =      3674.67342263
  Solvation  Ediel_sol  =         0.00000000
  ---------------------------------------------------
  free energy    TOTEN  =       -20.79350384 eV

  energy without entropy =      -20.79331613  energy(sigma->0) =      -20.79340999


--------------------------------------------------------------------------------------------------------




--------------------------------------- Iteration      1(   7)  ---------------------------------------


    POTLOK:  cpu time    0.0352: real time    0.0575
    SETDIJ:  cpu time    0.0883: real time    0.0883
     EDDAV:  cpu time    1.8773: real time    1.8776
       DOS:  cpu time    0.0031: real time    0.0037
    CHARGE:  cpu time    0.2690: real time    0.2691
    MIXING:  cpu time    0.0047: real time    0.0048
    --------------------------------------------
      LOOP:  cpu time    2.2775: real time    2.3005

 eigenvalue-minimisations  :  5960
 total energy-change (2. order) : 0.1704863E+00  (-0.1474738E+00)
 number of electron      37.0000000 magnetization
 augmentation part        5.9548358 magnetization

 Broyden mixing:
  rms(total) = 0.53818E+00    rms(broyden)= 0.53818E+00
  rms(prec ) = 0.61586E+00
  weight for this iteration     100.00

 eigenvalues of (default mixing * dielectric matrix)
  average eigenvalue GAMMA=   2.0305
  1.1660  2.8951

 Free energy of the ion-electron system (eV)
  ---------------------------------------------------
  alpha Z        PSCENC =       260.78987782
  Ewald energy   TEWEN  =     -3341.67257438
  -Hartree energ DENC   =      -640.56898963
  -exchange      EXHF   =         0.00000000
  -V(xc)+E(xc)   XCENC  =        70.01016839
  PAW double counting   =      4494.14337499    -4429.87478629
  entropy T*S    EENTRO =        -0.00010856
  eigenvalues    EBANDS =      -108.12340249
  atomic energy  EATOM  =      3674.67342263
  Solvation  Ediel_sol  =         0.00000000
  ---------------------------------------------------
  free energy    TOTEN  =       -20.62301750 eV

  energy without entropy =      -20.62290895  energy(sigma->0) =      -20.62296323


--------------------------------------------------------------------------------------------------------




--------------------------------------- Iteration      1(   8)  ---------------------------------------


    POTLOK:  cpu time    0.0348: real time    0.0622
    SETDIJ:  cpu time    0.0896: real time    0.0898
     EDDAV:  cpu time    1.8468: real time    1.8471
       DOS:  cpu time    0.0031: real time    0.0035
    CHARGE:  cpu time    0.2703: real time    0.2705
    MIXING:  cpu time    0.0038: real time    0.0039
    --------------------------------------------
      LOOP:  cpu time    2.2484: real time    2.2770

 eigenvalue-minimisations  :  5736
 total energy-change (2. order) : 0.2396676E-01  (-0.2811059E-01)
 number of electron      37.0000000 magnetization
 augmentation part        5.9223017 magnetization

 Broyden mixing:
  rms(total) = 0.27426E+00    rms(broyden)= 0.27426E+00
  rms(prec ) = 0.31544E+00
  weight for this iteration     100.00

 eigenvalues of (default mixing * dielectric matrix)
  average eigenvalue GAMMA=   1.9393
  3.4128  1.6627  0.7424

 Free energy of the ion-electron system (eV)
  ---------------------------------------------------
  alpha Z        PSCENC =       260.78987782
  Ewald energy   TEWEN  =     -3341.67257438
  -Hartree energ DENC   =      -640.04434400
  -exchange      EXHF   =         0.00000000
  -V(xc)+E(xc)   XCENC  =        70.00617179
  PAW double counting   =      4570.91072860    -4507.04448050
  entropy T*S    EENTRO =        -0.00018175
  eigenvalues    EBANDS =      -108.21767096
  atomic energy  EATOM  =      3674.67342263
  Solvation  Ediel_sol  =         0.00000000
  ---------------------------------------------------
  free energy    TOTEN  =       -20.59905075 eV

  energy without entropy =      -20.59886900  energy(sigma->0) =      -20.59895987


--------------------------------------------------------------------------------------------------------




--------------------------------------- Iteration      1(   9)  ---------------------------------------


    POTLOK:  cpu time    0.0369: real time    0.0641
    SETDIJ:  cpu time    0.0890: real time    0.0892
     EDDAV:  cpu time    1.8251: real time    1.8254
       DOS:  cpu time    0.0030: real time    0.0033
    CHARGE:  cpu time    0.2683: real time    0.2684
    MIXING:  cpu time    0.0062: real time    0.0071
    --------------------------------------------
      LOOP:  cpu time    2.2284: real time    2.2576

 eigenvalue-minimisations  :  5824
 total energy-change (2. order) : 0.4827510E-02  (-0.8267439E-02)
 number of electron      37.0000000 magnetization
 augmentation part        5.9190649 magnetization

 Broyden mixing:
  rms(total) = 0.27078E+00    rms(broyden)= 0.27078E+00
  rms(prec ) = 0.27786E+00
  weight for this iteration     100.00

 eigenvalues of (default mixing * dielectric matrix)
  average eigenvalue GAMMA=   1.4698
  2.3708  1.3745  1.3745  0.7595

 Free energy of the ion-electron system (eV)
  ---------------------------------------------------
  alpha Z        PSCENC =       260.78987782
  Ewald energy   TEWEN  =     -3341.67257438
  -Hartree energ DENC   =      -642.03952818
  -exchange      EXHF   =         0.00000000
  -V(xc)+E(xc)   XCENC  =        70.02822693
  PAW double counting   =      4628.51328544    -4564.51331282
  entropy T*S    EENTRO =        -0.00018576
  eigenvalues    EBANDS =      -106.37343492
  atomic energy  EATOM  =      3674.67342263
  Solvation  Ediel_sol  =         0.00000000
  ---------------------------------------------------
  free energy    TOTEN  =       -20.59422324 eV

  energy without entropy =      -20.59403748  energy(sigma->0) =      -20.59413036


--------------------------------------------------------------------------------------------------------




--------------------------------------- Iteration      1(  10)  ---------------------------------------


    POTLOK:  cpu time    0.0319: real time    0.0593
    SETDIJ:  cpu time    0.0891: real time    0.0893
     EDDAV:  cpu time    1.8736: real time    1.8754
       DOS:  cpu time    0.0028: real time    0.0031
    CHARGE:  cpu time    0.2686: real time    0.2687
    MIXING:  cpu time    0.0047: real time    0.0055
    --------------------------------------------
      LOOP:  cpu time    2.2708: real time    2.3079

 eigenvalue-minimisations  :  5960
 total energy-change (2. order) : 0.2612295E-02  (-0.1505903E-02)
 number of electron      37.0000000 magnetization
 augmentation part        5.9219055 magnetization

 Broyden mixing:
  rms(total) = 0.70249E-01    rms(broyden)= 0.70249E-01
  rms(prec ) = 0.72146E-01
  weight for this iteration     100.00

 eigenvalues of (default mixing * dielectric matrix)
  average eigenvalue GAMMA=   1.4814
  2.1014  2.1014  1.6246  0.7897  0.7897

 Free energy of the ion-electron system (eV)
  ---------------------------------------------------
  alpha Z        PSCENC =       260.78987782
  Ewald energy   TEWEN  =     -3341.67257438
  -Hartree energ DENC   =      -642.18269010
  -exchange      EXHF   =         0.00000000
  -V(xc)+E(xc)   XCENC  =        70.01926197
  PAW double counting   =      4551.50080658    -4487.03283913
  entropy T*S    EENTRO =        -0.00018095
  eigenvalues    EBANDS =      -106.68669539
  atomic energy  EATOM  =      3674.67342263
  Solvation  Ediel_sol  =         0.00000000
  ---------------------------------------------------
  free energy    TOTEN  =       -20.59161094 eV

  energy without entropy =      -20.59142999  energy(sigma->0) =      -20.59152046


--------------------------------------------------------------------------------------------------------




--------------------------------------- Iteration      1(  11)  ---------------------------------------


    POTLOK:  cpu time    0.0362: real time    0.0682
    SETDIJ:  cpu time    0.0899: real time    0.0900
     EDDAV:  cpu time    1.7650: real time    1.7653
       DOS:  cpu time    0.0031: real time    0.0037
    CHARGE:  cpu time    0.2678: real time    0.2679
    MIXING:  cpu time    0.0064: real time    0.0067
    --------------------------------------------
      LOOP:  cpu time    2.1686: real time    2.1939

 eigenvalue-minimisations  :  5576
 total energy-change (2. order) :-0.3275451E-04  (-0.6298409E-04)
 number of electron      37.0000000 magnetization
 augmentation part        5.9226745 magnetization

 Broyden mixing:
  rms(total) = 0.45716E-01    rms(broyden)= 0.45716E-01
  rms(prec ) = 0.46965E-01
  weight for this iteration     100.00

 eigenvalues of (default mixing * dielectric matrix)
  average eigenvalue GAMMA=   1.4243
  2.5383  2.1107  1.3316  0.7414  0.9120  0.9120

 Free energy of the ion-electron system (eV)
  ---------------------------------------------------
  alpha Z        PSCENC =       260.78987782
  Ewald energy   TEWEN  =     -3341.67257438
  -Hartree energ DENC   =      -642.22971087
  -exchange      EXHF   =         0.00000000
  -V(xc)+E(xc)   XCENC  =        70.01235344
  PAW double counting   =      4562.12780757    -4497.62010102
  entropy T*S    EENTRO =        -0.00018177
  eigenvalues    EBANDS =      -106.67253713
  atomic energy  EATOM  =      3674.67342263
  Solvation  Ediel_sol  =         0.00000000
  ---------------------------------------------------
  free energy    TOTEN  =       -20.59164370 eV

  energy without entropy =      -20.59146193  energy(sigma->0) =      -20.59155281


--------------------------------------------------------------------------------------------------------




--------------------------------------- Iteration      1(  12)  ---------------------------------------


    POTLOK:  cpu time    0.0349: real time    0.0602
    SETDIJ:  cpu time    0.0899: real time    0.0900
     EDDAV:  cpu time    1.9560: real time    1.9563
       DOS:  cpu time    0.0029: real time    0.0038
    CHARGE:  cpu time    0.2685: real time    0.2687
    MIXING:  cpu time    0.0054: real time    0.0055
    --------------------------------------------
      LOOP:  cpu time    2.3575: real time    2.3866

 eigenvalue-minimisations  :  6264
 total energy-change (2. order) : 0.2837612E-04  (-0.2002184E-04)
 number of electron      37.0000000 magnetization
 augmentation part        5.9240207 magnetization

 Broyden mixing:
  rms(total) = 0.77401E-02    rms(broyden)= 0.77401E-02
  rms(prec ) = 0.80025E-02
  weight for this iteration     100.00

 eigenvalues of (default mixing * dielectric matrix)
  average eigenvalue GAMMA=   1.4427
  2.5784  2.0984  1.5188  1.1689  0.7494  0.9925  0.9925

 Free energy of the ion-electron system (eV)
  ---------------------------------------------------
  alpha Z        PSCENC =       260.78987782
  Ewald energy   TEWEN  =     -3341.67257438
  -Hartree energ DENC   =      -642.23043651
  -exchange      EXHF   =         0.00000000
  -V(xc)+E(xc)   XCENC  =        70.00984087
  PAW double counting   =      4569.72260290    -4505.20392744
  entropy T*S    EENTRO =        -0.00018328
  eigenvalues    EBANDS =      -106.68023793
  atomic energy  EATOM  =      3674.67342263
  Solvation  Ediel_sol  =         0.00000000
  ---------------------------------------------------
  free energy    TOTEN  =       -20.59161532 eV

  energy without entropy =      -20.59143204  energy(sigma->0) =      -20.59152368


--------------------------------------------------------------------------------------------------------




--------------------------------------- Iteration      1(  13)  ---------------------------------------


    POTLOK:  cpu time    0.0342: real time    0.0651
    SETDIJ:  cpu time    0.0901: real time    0.0902
     EDDAV:  cpu time    1.8757: real time    1.8762
       DOS:  cpu time    0.0030: real time    0.0041
    CHARGE:  cpu time    0.2683: real time    0.2683
    MIXING:  cpu time    0.0067: real time    0.0074
    --------------------------------------------
      LOOP:  cpu time    2.2781: real time    2.3114

 eigenvalue-minimisations  :  5960
 total energy-change (2. order) :-0.1876530E-05  (-0.2102546E-05)
 number of electron      37.0000000 magnetization
 augmentation part        5.9245737 magnetization

 Broyden mixing:
  rms(total) = 0.22466E-02    rms(broyden)= 0.22465E-02
  rms(prec ) = 0.23103E-02
  weight for this iteration     100.00

 eigenvalues of (default mixing * dielectric matrix)
  average eigenvalue GAMMA=   1.4638
  2.6063  1.9748  1.7211  1.7211  0.7569  0.9786  0.9757  0.9757

 Free energy of the ion-electron system (eV)
  ---------------------------------------------------
  alpha Z        PSCENC =       260.78987782
  Ewald energy   TEWEN  =     -3341.67257438
  -Hartree energ DENC   =      -642.21934426
  -exchange      EXHF   =         0.00000000
  -V(xc)+E(xc)   XCENC  =        70.00812311
  PAW double counting   =      4572.04215441    -4507.50549227
  entropy T*S    EENTRO =        -0.00018356
  eigenvalues    EBANDS =      -106.70760071
  atomic energy  EATOM  =      3674.67342263
  Solvation  Ediel_sol  =         0.00000000
  ---------------------------------------------------
  free energy    TOTEN  =       -20.59161720 eV

  energy without entropy =      -20.59143364  energy(sigma->0) =      -20.59152542


--------------------------------------------------------------------------------------------------------




--------------------------------------- Iteration      1(  14)  ---------------------------------------


    POTLOK:  cpu time    0.0308: real time    0.0596
    SETDIJ:  cpu time    0.0895: real time    0.0896
     EDDAV:  cpu time    1.8103: real time    1.8106
       DOS:  cpu time    0.0030: real time    0.0041
    CHARGE:  cpu time    0.2668: real time    0.2669
    MIXING:  cpu time    0.0070: real time    0.0072
    --------------------------------------------
      LOOP:  cpu time    2.2073: real time    2.2380

 eigenvalue-minimisations  :  5568
 total energy-change (2. order) : 0.1573508E-06  (-0.9145049E-07)
 number of electron      37.0000000 magnetization
 augmentation part        5.9246379 magnetization

 Broyden mixing:
  rms(total) = 0.14073E-02    rms(broyden)= 0.14072E-02
  rms(prec ) = 0.14661E-02
  weight for this iteration     100.00

 eigenvalues of (default mixing * dielectric matrix)
  average eigenvalue GAMMA=   1.4892
  2.5365  2.5365  2.1705  1.4613  0.9887  0.9887  1.1203  0.7624  0.8377

 Free energy of the ion-electron system (eV)
  ---------------------------------------------------
  alpha Z        PSCENC =       260.78987782
  Ewald energy   TEWEN  =     -3341.67257438
  -Hartree energ DENC   =      -642.22351815
  -exchange      EXHF   =         0.00000000
  -V(xc)+E(xc)   XCENC  =        70.00837298
  PAW double counting   =      4571.91786899    -4507.37832936
  entropy T*S    EENTRO =        -0.00018352
  eigenvalues    EBANDS =      -106.70655406
  atomic energy  EATOM  =      3674.67342263
  Solvation  Ediel_sol  =         0.00000000
  ---------------------------------------------------
  free energy    TOTEN  =       -20.59161704 eV

  energy without entropy =      -20.59143352  energy(sigma->0) =      -20.59152528


--------------------------------------------------------------------------------------------------------




--------------------------------------- Iteration      1(  15)  ---------------------------------------


    POTLOK:  cpu time    0.0335: real time    0.0660
    SETDIJ:  cpu time    0.0897: real time    0.0899
     EDDAV:  cpu time    1.8121: real time    1.8123
       DOS:  cpu time    0.0029: real time    0.0048
    CHARGE:  cpu time    0.2704: real time    0.2706
    MIXING:  cpu time    0.0059: real time    0.0060
    --------------------------------------------
      LOOP:  cpu time    2.2146: real time    2.2485

 eigenvalue-minimisations  :  5776
 total energy-change (2. order) : 0.2487882E-06  (-0.5725275E-07)
 number of electron      37.0000000 magnetization
 augmentation part        5.9245989 magnetization

 Broyden mixing:
  rms(total) = 0.44556E-04    rms(broyden)= 0.43837E-04
  rms(prec ) = 0.73421E-04
  weight for this iteration     100.00

 eigenvalues of (default mixing * dielectric matrix)
  average eigenvalue GAMMA=   1.4500
  2.4475  2.4475  2.1171  1.6697  0.9856  0.9856  0.7562  1.0192  1.0192  1.0518

 Free energy of the ion-electron system (eV)
  ---------------------------------------------------
  alpha Z        PSCENC =       260.78987782
  Ewald energy   TEWEN  =     -3341.67257438
  -Hartree energ DENC   =      -642.22461271
  -exchange      EXHF   =         0.00000000
  -V(xc)+E(xc)   XCENC  =        70.00853927
  PAW double counting   =      4571.83109173    -4507.29013077
  entropy T*S    EENTRO =        -0.00018345
  eigenvalues    EBANDS =      -106.70704693
  atomic energy  EATOM  =      3674.67342263
  Solvation  Ediel_sol  =         0.00000000
  ---------------------------------------------------
  free energy    TOTEN  =       -20.59161679 eV

  energy without entropy =      -20.59143334  energy(sigma->0) =      -20.59152507


--------------------------------------------------------------------------------------------------------




--------------------------------------- Iteration      1(  16)  ---------------------------------------


    POTLOK:  cpu time    0.0308: real time    0.0613
    SETDIJ:  cpu time    0.0884: real time    0.0885
     EDDAV:  cpu time    1.2675: real time    1.2677
       DOS:  cpu time    0.0030: real time    0.0043
    --------------------------------------------
      LOOP:  cpu time    1.3897: real time    1.4210

 eigenvalue-minimisations  :  3424
 total energy-change (2. order) : 0.5903985E-08  (-0.3539705E-08)
 number of electron      37.0000000 magnetization
 augmentation part        5.9245989 magnetization

 Free energy of the ion-electron system (eV)
  ---------------------------------------------------
  alpha Z        PSCENC =       260.78987782
  Ewald energy   TEWEN  =     -3341.67257438
  -Hartree energ DENC   =      -642.22514693
  -exchange      EXHF   =         0.00000000
  -V(xc)+E(xc)   XCENC  =        70.00855419
  PAW double counting   =      4571.81059961    -4507.26962691
  entropy T*S    EENTRO =        -0.00018346
  eigenvalues    EBANDS =      -106.70653936
  atomic energy  EATOM  =      3674.67342263
  Solvation  Ediel_sol  =         0.00000000
  ---------------------------------------------------
  free energy    TOTEN  =       -20.59161678 eV

  energy without entropy =      -20.59143333  energy(sigma->0) =      -20.59152506


--------------------------------------------------------------------------------------------------------




 average (electrostatic) potential at core
  the test charge radii are     1.1985  1.0856  1.2059
  (the norm of the test charge is              1.0000)
       1 -53.7388       2-100.0555       3 -63.8309



 E-fermi :  11.0836     XC(G=0): -12.0468     alpha+bet :-17.0762


 k-point     1 :       0.0000    0.0000    0.0000
  band No.  band energies     occupation
      1     -28.4297      2.00000
      2     -12.3077      2.00000
      3     -12.3077      2.00000
      4     -12.2569      2.00000
      5     -12.2569      2.00000
      6     -12.2569      2.00000
      7      -6.7824      2.00000
      8      -6.7824      2.00000
      9      -6.7824      2.00000
     10      -2.3184      2.00000
     11       5.9113      2.00000
     12       5.9113      2.00000
     13       5.9708      2.00000
     14       5.9708      2.00000
     15       5.9708      2.00000
     16       9.6676      2.00000
     17       9.6676      2.00000
     18       9.6676      2.00000
     19      10.0684      2.00000
     20      11.2453      0.00000
     21      11.2453      0.00000
     22      11.2453      0.00000
     23      12.3052      0.00000
     24      13.6231      0.00000

 k-point     2 :       0.0769   -0.0000    0.0000
  band No.  band energies     occupation
      1     -28.4286      2.00000
      2     -12.3097      2.00000
      3     -12.3097      2.00000
      4     -12.2574      2.00000
      5     -12.2566      2.00000
      6     -12.2566      2.00000
      7      -6.8302      2.00000
      8      -6.7753      2.00000
      9      -6.7753      2.00000
     10      -2.2019      2.00000
     11       5.6491      2.00000
     12       5.6491      2.00000
     13       5.8322      2.00000
     14       6.2163      2.00000
     15       6.2163      2.00000
     16       8.9224      2.00000
     17       9.5753      2.00000
     18       9.5753      2.00000
     19      10.5392      2.00000
     20      11.3629      0.00000
     21      11.3629      0.00000
     22      11.4448      0.00000
     23      12.6399      0.00000
     24      13.6279      0.00000

 k-point     3 :       0.1538   -0.0000   -0.0000
  band No.  band energies     occupation
      1     -28.4256      2.00000
      2     -12.3151      2.00000
      3     -12.3151      2.00000
      4     -12.2589      2.00000
      5     -12.2557      2.00000
      6     -12.2557      2.00000
      7      -6.9510      2.00000
      8      -6.7556      2.00000
      9      -6.7556      2.00000
     10      -1.8886      2.00000
     11       5.3942      2.00000
     12       5.3942      2.00000
     13       5.4665      2.00000
     14       6.4037      2.00000
     15       6.4037      2.00000
     16       8.1066      2.00000
     17       9.3976      2.00000
     18       9.3976      2.00000
     19      10.5630      2.00000
     20      11.6401      0.00000
     21      11.6401      0.00000
     22      12.2421      0.00000
     23      13.2825      0.00000
     24      13.6315      0.00000

 k-point     4 :       0.2308   -0.0000   -0.0000
  band No.  band energies     occupation
      1     -28.4213      2.00000
      2     -12.3227      2.00000
      3     -12.3227      2.00000
      4     -12.2613      2.00000
      5     -12.2543      2.00000
      6     -12.2543      2.00000
      7      -7.0975      2.00000
      8      -6.7280      2.00000
      9      -6.7280      2.00000
     10      -1.4658      2.00000
     11       4.9947      2.00000
     12       5.2058      2.00000
     13       5.2058      2.00000
     14       6.4441      2.00000
     15       6.4441      2.00000
     16       7.4707      2.00000
     17       9.2755      2.00000
     18       9.2755      2.00000
     19      10.5443      2.00000
     20      11.9761      0.00000
     21      11.9761      0.00000
     22      13.0498      0.00000
     23      13.6127      0.00000
     24      13.6197      0.00000

 k-point     5 :       0.3077   -0.0000   -0.0000
  band No.  band energies     occupation
      1     -28.4167      2.00000
      2     -12.3307      2.00000
      3     -12.3307      2.00000
      4     -12.2644      2.00000
      5     -12.2529      2.00000
      6     -12.2529      2.00000
      7      -7.2294      2.00000
      8      -6.6988      2.00000
      9      -6.6988      2.00000
     10      -1.0376      2.00000
     11       4.5499      2.00000
[...]
  212              fftbas_plan_mpi                       0.062660                     12   6
  213                dfftw_execute                         0.025447                   36   7
  214                map_backward                          0.004777                   12   7
  215                  map_gather                            0.000693                  6   8
  216                  m_alltoallv_z                         0.002667                  6   8
  217                  map_scatter                           0.001078                  6   8
  218                map_forward                           0.029254                   12   7
  219                  map_gather                            0.016734                  6   8
  220                  m_alltoallv_z                         0.005592                  6   8
  221                  map_scatter                           0.006620                  6   8
  222            M_sumb_d                              0.002503                        6   5
  223          M_sumb_d                              0.000027                          1   4
  224        setdij_                               1.458477                           20   3
  225          fft3d_mpi                             0.215304                         40   4
  226            fftbas_plan_mpi                       0.198466                       40   5
  227              dfftw_execute                         0.088162                    120   6
  228              map_backward                          0.012595                     40   6
  229                map_gather                            0.002590                   20   7
  230                m_alltoallv_z                         0.005376                   20   7
  231                map_scatter                           0.003646                   20   7
  232              map_forward                           0.087092                     40   6
  233                map_gather                            0.048378                   20   7
  234                m_alltoallv_z                         0.016931                   20   7
  235                map_scatter                           0.020735                   20   7
  236          M_sumb_d                              0.004410                         20   4
  237        set_dd_magatom                        0.000004                            1   3
  238        set_dd_paw                            0.009967                            1   3
  239          set_rsgf_all                          0.000004                          1   4
  240          M_sumb_d                              0.009816                          8   4
  241        strkin                                0.001005                            1   3
  242          M_sumb_d                              0.000443                          1   4
  243        strelo                                0.002549                            1   3
  244          M_sumb_d                              0.000456                          2   4
  245        strenl                                0.970009                            1   3
  246          spher                                 0.720057                         19   4
  247          phase                                 0.011549                        189   4
  248          proj1                                 0.214190                       1134   4
  249            crexp_mul_wave                        0.029967                     3402   5
  250            M_sumb_d                              0.058879                     1134   5
  251          M_sumb_d                              0.002566                          1   4
  252        M_sumb_d                              0.000271                            6   3
  253        fft3d_mpi                             0.014937                           11   3
  254          fftbas_plan_mpi                       0.013948                         11   4
  255            dfftw_execute                         0.004875                       33   5
  256            map_forward                           0.002773                       10   5
  257              map_gather                            0.000594                      5   6
  258              m_alltoallv_z                         0.001306                      5   6
  259              map_scatter                           0.000632                      5   6
  260            map_backward                          0.003730                       12   5
  261              map_gather                            0.000754                      6   6
  262              m_alltoallv_z                         0.001531                      6   6
  263              map_scatter                           0.001110                      6   6
  264        ggaall_grid                           0.001571                            1   3
  265        forhar                                0.005858                            2   3
  266          M_sumb_d                              0.000132                          2   4
  267        strehar                               0.002758                            1   3
  268          M_sumb_d                              0.000225                          1   4
  269        chggra                                0.005816                            1   3
  270          fft3d_mpi                             0.003988                          3   4
  271            fftbas_plan_mpi                       0.003688                        3   5
  272              dfftw_execute                         0.001338                      9   6
  273              map_backward                          0.000600                      2   6
  274                map_gather                            0.000123                    1   7
  275                m_alltoallv_z                         0.000240                    1   7
  276                map_scatter                           0.000184                    1   7
  277              map_forward                           0.001026                      4   6
  278                map_gather                            0.000235                    2   7
  279                m_alltoallv_z                         0.000452                    2   7
  280                map_scatter                           0.000242                    2   7
  281          M_sumb_d                              0.000143                          3   4
  282        brmix                                 0.010185                            1   3
  283          M_sumb_d                              0.000214                          6   4
  284          brpre                                 0.000051                          1   4
  285          setg0                                 0.001441                          1   4
  286          broyd                                 0.002601                          1   4
  287            M_sumb_d                              0.000629                       18   5
  288            brget                                 0.000364                       64   5
  289            brsav                                 0.000091                       16   5
  290          M_bcast_z                             0.004909                          1   4
  291          M_bcast_d                             0.000057                          1   4
  292        M_bcast_d                             0.000047                            2   3
  293      potlok                                0.026427                              1   2
  294        fft3d_mpi                             0.018161                           13   3
  295          fftbas_plan_mpi                       0.016976                         13   4
  296            dfftw_execute                         0.005723                       39   5
  297            map_forward                           0.004098                       14   5
  298              map_gather                            0.000765                      8   6
  299              m_alltoallv_z                         0.002011                      8   6
  300              map_scatter                           0.000959                      8   6
  301            map_backward                          0.003958                       12   5
  302              map_gather                            0.000809                      6   6
  303              m_alltoallv_z                         0.001696                      6   6
  304              map_scatter                           0.001134                      6   6
  305        ggaall_grid                           0.001535                            1   3
  306        M_sumb_d                              0.000250                            6   3
  307        M_bcast_d                             0.000106                            1   3
  308      potlok_metagga                        0.000004                              1   2
  309      set_dd_magatom                        0.000003                              1   2
  310      set_dd_paw                            0.000452                              1   2
  311        set_rsgf_all                          0.000005                            1   3
  312        M_sumb_d                              0.000257                            8   3
  313      densta                                0.002556                              1   2
  314        M_sumb_d                              0.000950                           41   3
  315      lprj_proall                           0.000007                              1   2

 Flat profile
 ============

             routine name                   CPU           calls
 ---------------------------------------------------------------
 total_time                             14.422535           1
 eddav                                   5.278325          16
 dfftw_execute                           4.774794       49560
 fftbas_plan_mpi                         3.335930       16522
 setdij_                                 2.618057          40
 M_sumb_d                                2.610710       46014
 set_charge                              2.032876          12
 m_alltoallv_z                           1.853559       16545
 pdssyex_zheevx                          1.484938         336
 elmin                                   1.327474           1
 M_alltoall_d                            1.146959       55048
 orth1                                   0.875091       11250
 proj1                                   0.857395        6730
 spher                                   0.834019          20
 gemm                                    0.766085       22458
 vhamil                                  0.755902        7486
 fftwav_mpi                              0.633675        8746
 map_forward                             0.622844       17770
 map_gather                              0.598776       16545
 map_scatter                             0.537302       16545
 vnlac0                                  0.495734        7486
 M_bcast_z                               0.470219        6294
 redis_pw                                0.465369       21156
 redis_proj                              0.409803       26647
 hamiltmu                                0.407726        3743
 crpa_reader                             0.355816           1
 w1_copy                                 0.313281       22458
 map_backward                            0.268233       15270
 fft3d_mpi                               0.264276       16520
 work_mul_crexp                          0.241962       22458
 fftext_mpi                              0.236557        7486
 crexp_mul_wave                          0.189606       20190
 eccp                                    0.180803        2016
 kinhamil                                0.149556        7486
 overl                                   0.149152       12977
 M_bcast_d                               0.121662        3775
 overl1                                  0.096406        7486
 potlok                                  0.085630          13
 apply_precond                           0.075317        5470
 pw_charge                               0.073994        1260
 setup_precond                           0.065705        2016
 w1_projall                              0.060025        2735
 force_and_stress                        0.058878           1
 lincom                                  0.054611         357
 fornl                                   0.043194           1
 phase                                   0.034923         568
 truncate_high_frequency_w1              0.032077        9502
 soft_charge                             0.030352          12
 densta                                  0.025665          17
 brmix                                   0.025223          12
 ggaall_grid                             0.021948          14
 strenl                                  0.021647           1
 setg0                                   0.014597          13
 broyd                                   0.008407          12
 forhar                                  0.005726           2
 depsum                                  0.005401          12
 forloc                                  0.003438           1
 set_dd_paw                              0.002642          14
 strehar                                 0.002533           1
 brgrid                                  0.002249           1
 strelo                                  0.002093           1
 orthch                                  0.002039           1
 brget                                   0.002010         432
 choleski                                0.001790          21
 chggra                                  0.001685           1
 proj                                    0.001579          21
 brsav                                   0.000942         128
 brpre                                   0.000800          12
 strkin                                  0.000562           1
 fordep                                  0.000125           1
 vectorpot                               0.000064          13
 set_rsgf_all                            0.000063          14
 set_dd_magatom                          0.000056          14
 potlok_metagga                          0.000054          13
 set_kineden                             0.000040          11
 rotate_active_occupied_orbital          0.000014           1
 lprj_proall                             0.000007           1
 redis_pw_over_bands                     0.000003           1
 ---------------------------------------------------------------
  summed up times    52.9515161514282

 Accumulative profile
 ====================

             routine name                   CPU           calls
 ---------------------------------------------------------------
 total_time                             52.951516           1
 elmin                                  34.112613           1
 eddav                                  28.256745          16
 fft3d_mpi                              12.227920       16520
 fftbas_plan_mpi                        11.991438       16522
 hamiltmu                                8.686299        3743
 fftwav_mpi                              6.913044        8746
 kinhamil                                5.454583        7486
 fftext_mpi                              5.305027        7486
 dfftw_execute                           4.774794       49560
 force_and_stress                        3.327627           1
 set_charge                              3.285209          12
 setdij_                                 3.093922          40
 M_sumb_d                                2.610710       46014
 map_forward                             2.267307       17770
 vnlac0                                  1.971681        7486
 m_alltoallv_z                           1.853559       16545
 map_backward                            1.613408       15270
 pdssyex_zheevx                          1.484938         336
 proj1                                   1.476542        6730
 w1_projall                              1.298195        2735
 M_alltoall_d                            1.146959       55048
 redis_pw                                1.111013       21156
 soft_charge                             1.063242          12
 strenl                                  0.970009           1
 redis_proj                              0.911118       26647
 orth1                                   0.875091       11250
 spher                                   0.834019          20
 gemm                                    0.766085       22458
 vhamil                                  0.755902        7486
 map_gather                              0.598776       16545
 map_scatter                             0.537302       16545
 M_bcast_z                               0.470219        6294
 fordep                                  0.456607           1
 crpa_reader                             0.355816           1
 potlok                                  0.340196          13
 w1_copy                                 0.313281       22458
 eccp                                    0.299315        2016
 work_mul_crexp                          0.241962       22458
 crexp_mul_wave                          0.189606       20190
 set_dd_paw                              0.153158          14
 overl                                   0.149152       12977
 M_bcast_d                               0.121662        3775
 setup_precond                           0.113334        2016
 overl1                                  0.096406        7486
 brmix                                   0.076593          12
 apply_precond                           0.075317        5470
 pw_charge                               0.073994        1260
 fornl                                   0.057857           1
 lincom                                  0.054611         357
 densta                                  0.038697          17
 phase                                   0.034923         568
 truncate_high_frequency_w1              0.032077        9502
 orthch                                  0.031070           1
 proj                                    0.025762          21
 ggaall_grid                             0.021948          14
 broyd                                   0.016095          12
 setg0                                   0.014597          13
 depsum                                  0.008578          12
 forhar                                  0.005858           2
 chggra                                  0.005816           1
 forloc                                  0.003572           1
 strehar                                 0.002758           1
 strelo                                  0.002549           1
 brgrid                                  0.002249           1
 brget                                   0.002010         432
 choleski                                0.001790          21
 strkin                                  0.001005           1
 brsav                                   0.000942         128
 brpre                                   0.000800          12
 vectorpot                               0.000064          13
 set_rsgf_all                            0.000063          14
 set_dd_magatom                          0.000056          14
 potlok_metagga                          0.000054          13
 set_kineden                             0.000040          11
 rotate_active_occupied_orbital          0.000014           1
 lprj_proall                             0.000007           1
 redis_pw_over_bands                     0.000003           1
 ---------------------------------------------------------------

Profiling took   1.306959  1.577983  0.006459  0.005023 seconds
Profiling took   1.260550 seconds
