 ----------------------------------------------------
    OOO  PPPP  EEEEE N   N M   M PPPP
   O   O P   P E     NN  N MM MM P   P
   O   O PPPP  EEEEE N N N M M M PPPP   -- VERSION
   O   O P     E     N  NN M   M P
    OOO  P     EEEEE N   N M   M P
 ----------------------------------------------------
 running   64 mpi-ranks, with    1 threads/rank
 distrk:  each k-point on   16 cores,    4 groups
 distr:  one band on    4 cores,    4 groups
 using from now: INCAR
 vasp.6.0.8 29Jun18 (build Jun 13 2019 12:54:44) complex

 POSCAR found type information on POSCAR  Th Bi Pt
 POSCAR found :  3 types and       3 ions
 scaLAPACK will be used
 WARNING: PSMAXN for non-local potential too small

 -----------------------------------------------------------------------------
|                                                                             |
|  ADVICE TO THIS USER RUNNING 'VASP/VAMP'   (HEAR YOUR MASTER'S VOICE ...):  |
|                                                                             |
|      You enforced a specific xc-type in the INCAR file,                     |
|      a different type was found on the POTCAR file                          |
|          I HOPE YOU KNOW, WHAT YOU ARE  DOING                               |
|                                                                             |
 -----------------------------------------------------------------------------

 LDA part: xc-table for Pade appr. of Perdew
 POSCAR, INCAR and KPOINTS ok, starting setup
 FFT: planning ...
 WAVECAR not read
 entering main loop
       N       E                     dE             d eps       ncg     rms          rms(c)
 ELPA: falling back to scaLAPACK
 ELPA: falling back to scaLAPACK
 ELPA: falling back to scaLAPACK
 ELPA: falling back to scaLAPACK
DAV:   1     0.453644311334E+03    0.45364E+03   -0.20849E+04  4032   0.211E+03
DAV:   2     0.479474346454E+02   -0.40570E+03   -0.39635E+03  4056   0.516E+02
DAV:   3    -0.172860455255E+02   -0.65233E+02   -0.64384E+02  5600   0.174E+02
DAV:   4    -0.214236647943E+02   -0.41376E+01   -0.41256E+01  7184   0.441E+01
DAV:   5    -0.215386699798E+02   -0.11501E+00   -0.11493E+00  5672   0.582E+00    0.464E+01
DAV:   6    -0.207935038438E+02    0.74517E+00   -0.13202E+00  5264   0.847E+00    0.276E+01
DAV:   7    -0.206230175044E+02    0.17049E+00   -0.14747E+00  5960   0.786E+00    0.538E+00
DAV:   8    -0.205990507467E+02    0.23967E-01   -0.28111E-01  5736   0.302E+00    0.274E+00
DAV:   9    -0.205942232371E+02    0.48275E-02   -0.82674E-02  5824   0.181E+00    0.271E+00
DAV:  10    -0.205916109418E+02    0.26123E-02   -0.15059E-02  5960   0.717E-01    0.702E-01
DAV:  11    -0.205916436963E+02   -0.32755E-04   -0.62984E-04  5576   0.158E-01    0.457E-01
DAV:  12    -0.205916153202E+02    0.28376E-04   -0.20022E-04  6264   0.822E-02    0.774E-02
DAV:  13    -0.205916171967E+02   -0.18765E-05   -0.21025E-05  5960   0.274E-02    0.225E-02
DAV:  14    -0.205916170393E+02    0.15735E-06   -0.91450E-07  5568   0.650E-03    0.141E-02
DAV:  15    -0.205916167906E+02    0.24879E-06   -0.57253E-07  5776   0.507E-03    0.446E-04
DAV:  16    -0.205916167847E+02    0.59040E-08   -0.35397E-08  3424   0.124E-03
   1 F= -.20591617E+02 E0= -.20591525E+02  d E =-.183456E-03
