<?xml version="1.0" encoding="ISO-8859-1"?>
<modeling>
 <generator>
  <i name="program" type="string">vasp </i>
  <i name="version" type="string">6.0.8  </i>
  <i name="subversion" type="string">29Jun18 (build Jun 13 2019 12:54:44) complex                          parallel </i>
  <i name="platform" type="string">IFC18_CrayMPICH </i>
  <i name="date" type="string">2021 12 05 </i>
  <i name="time" type="string">14:21:49 </i>
 </generator>
 <incar>
  <i type="int" name="KPAR">     4</i>
  <i type="int" name="NPAR">     4</i>
  <i type="int" name="ISTART">     0</i>
  <i type="string" name="PREC"> ACC</i>
  <i type="string" name="ALGO"> Normal</i>
  <i type="logical" name="ADDGRID"> T  </i>
  <i type="int" name="ISPIN">     1</i>
  <i type="int" name="NELMIN">     5</i>
  <i type="int" name="IBRION">    -1</i>
  <i name="EDIFF">      0.00000010</i>
  <i type="int" name="NSW">     0</i>
  <i type="int" name="ISIF">     3</i>
  <i name="ENCUT">    700.00000000</i>
  <i type="logical" name="LREAL"> F  </i>
  <i type="int" name="ISMEAR">     0</i>
  <i name="SIGMA">      0.01000000</i>
  <i type="logical" name="LWAVE"> F  </i>
  <i type="logical" name="LCHARG"> F  </i>
  <i type="logical" name="LVTOT"> F  </i>
  <i type="string" name="ALGO"> Normal</i>
  <i type="string" name="GGA"> PS</i>
  <i name="EDIFF">      0.00000010</i>
  <i type="int" name="ISPIN">     1</i>
 </incar>
 <structure name="primitive_cell" >
  <crystal>
   <varray name="basis" >
    <v>       0.00000000       3.20563433       3.20563433 </v>
    <v>       3.20563433       0.00000000       3.20563433 </v>
    <v>       3.20563433       3.20563433       0.00000000 </v>
   </varray>
   <i name="volume">     65.88278319 </i>
   <varray name="rec_basis" >
    <v>      -0.15597537       0.15597537       0.15597537 </v>
    <v>       0.15597537      -0.15597537       0.15597537 </v>
    <v>       0.15597537       0.15597537      -0.15597537 </v>
   </varray>
  </crystal>
  <varray name="positions" >
   <v>       0.25000000       0.25000000       0.25000000 </v>
   <v>       0.75000000       0.75000000       0.75000000 </v>
   <v>       0.00000000       0.00000000       0.00000000 </v>
  </varray>
 </structure>
 <varray name="primitive_index" >
  <v type="int" >        1 </v>
  <v type="int" >        2 </v>
  <v type="int" >        3 </v>
 </varray>
 <kpoints>
  <generation param="Gamma">
   <v type="int" name="divisions">      13       13       13 </v>
   <v name="usershift">      0.00000000       0.00000000       0.00000000 </v>
   <v name="genvec1">      0.07692308      -0.00000000       0.00000000 </v>
   <v name="genvec2">     -0.00000000       0.07692308      -0.00000000 </v>
   <v name="genvec3">      0.00000000       0.00000000       0.07692308 </v>
   <v name="shift">      0.00000000       0.00000000       0.00000000 </v>
  </generation>
  <varray name="kpointlist" >
   <v>       0.00000000       0.00000000       0.00000000 </v>
   <v>       0.07692308      -0.00000000       0.00000000 </v>
   <v>       0.15384615      -0.00000000      -0.00000000 </v>
   <v>       0.23076923      -0.00000000      -0.00000000 </v>
   <v>       0.30769231      -0.00000000      -0.00000000 </v>
   <v>       0.38461538       0.00000000      -0.00000000 </v>
   <v>       0.46153846      -0.00000000       0.00000000 </v>
   <v>       0.07692308       0.07692308       0.00000000 </v>
   <v>       0.15384615       0.07692308      -0.00000000 </v>
   <v>       0.23076923       0.07692308       0.00000000 </v>
   <v>       0.30769231       0.07692308      -0.00000000 </v>
   <v>       0.38461538       0.07692308       0.00000000 </v>
   <v>       0.46153846       0.07692308      -0.00000000 </v>
   <v>      -0.46153846       0.07692308       0.00000000 </v>
   <v>      -0.38461538       0.07692308       0.00000000 </v>
   <v>      -0.30769231       0.07692308       0.00000000 </v>
   <v>      -0.23076923       0.07692308       0.00000000 </v>
   <v>      -0.15384615       0.07692308      -0.00000000 </v>
   <v>      -0.07692308       0.07692308       0.00000000 </v>
   <v>       0.15384615       0.15384615       0.00000000 </v>
   <v>       0.23076923       0.15384615       0.00000000 </v>
   <v>       0.30769231       0.15384615      -0.00000000 </v>
   <v>       0.38461538       0.15384615      -0.00000000 </v>
   <v>       0.46153846       0.15384615      -0.00000000 </v>
   <v>      -0.46153846       0.15384615       0.00000000 </v>
   <v>      -0.38461538       0.15384615       0.00000000 </v>
   <v>      -0.30769231       0.15384615      -0.00000000 </v>
   <v>      -0.23076923       0.15384615       0.00000000 </v>
   <v>      -0.15384615       0.15384615      -0.00000000 </v>
   <v>       0.23076923       0.23076923       0.00000000 </v>
   <v>       0.30769231       0.23076923       0.00000000 </v>
   <v>       0.38461538       0.23076923       0.00000000 </v>
   <v>       0.46153846       0.23076923      -0.00000000 </v>
   <v>      -0.46153846       0.23076923      -0.00000000 </v>
   <v>      -0.38461538       0.23076923       0.00000000 </v>
   <v>      -0.30769231       0.23076923       0.00000000 </v>
   <v>      -0.23076923       0.23076923      -0.00000000 </v>
   <v>       0.30769231       0.30769231       0.00000000 </v>
   <v>       0.38461538       0.30769231       0.00000000 </v>
   <v>       0.46153846       0.30769231      -0.00000000 </v>
   <v>      -0.46153846       0.30769231       0.00000000 </v>
   <v>      -0.38461538       0.30769231      -0.00000000 </v>
   <v>      -0.30769231       0.30769231      -0.00000000 </v>
   <v>       0.38461538       0.38461538       0.00000000 </v>
   <v>       0.46153846       0.38461538       0.00000000 </v>
   <v>      -0.46153846       0.38461538       0.00000000 </v>
   <v>      -0.38461538       0.38461538       0.00000000 </v>
   <v>       0.46153846       0.46153846       0.00000000 </v>
   <v>      -0.46153846       0.46153846      -0.00000000 </v>
   <v>       0.23076923       0.15384615       0.07692308 </v>
   <v>       0.30769231       0.15384615       0.07692308 </v>
   <v>       0.38461538       0.15384615       0.07692308 </v>
   <v>       0.46153846       0.15384615       0.07692308 </v>
   <v>      -0.46153846       0.15384615       0.07692308 </v>
   <v>       0.30769231       0.23076923       0.07692308 </v>
   <v>       0.38461538       0.23076923       0.07692308 </v>
   <v>       0.46153846       0.23076923       0.07692308 </v>
   <v>      -0.46153846       0.23076923       0.07692308 </v>
   <v>      -0.38461538       0.23076923       0.07692308 </v>
   <v>      -0.30769231       0.23076923       0.07692308 </v>
   <v>      -0.23076923       0.23076923       0.07692308 </v>
   <v>      -0.15384615       0.23076923       0.07692308 </v>
   <v>       0.38461538       0.30769231       0.07692308 </v>
   <v>       0.46153846       0.30769231       0.07692308 </v>
   <v>      -0.46153846       0.30769231       0.07692308 </v>
   <v>      -0.38461538       0.30769231       0.07692308 </v>
   <v>      -0.30769231       0.30769231       0.07692308 </v>
   <v>      -0.23076923       0.30769231       0.07692308 </v>
   <v>       0.46153846       0.38461538       0.07692308 </v>
   <v>      -0.46153846       0.38461538       0.07692308 </v>
   <v>      -0.38461538       0.38461538       0.07692308 </v>
   <v>      -0.30769231       0.38461538       0.07692308 </v>
   <v>      -0.46153846       0.46153846       0.07692308 </v>
   <v>      -0.38461538       0.46153846       0.07692308 </v>
   <v>       0.46153846       0.30769231       0.15384615 </v>
   <v>      -0.46153846       0.30769231       0.15384615 </v>
   <v>      -0.38461538       0.30769231       0.15384615 </v>
   <v>      -0.46153846       0.38461538       0.15384615 </v>
   <v>      -0.38461538       0.38461538       0.15384615 </v>
   <v>      -0.30769231       0.38461538       0.15384615 </v>
   <v>      -0.23076923       0.38461538       0.15384615 </v>
   <v>      -0.38461538       0.46153846       0.15384615 </v>
   <v>      -0.30769231       0.46153846       0.15384615 </v>
   <v>      -0.30769231       0.46153846       0.23076923 </v>
  </varray>
  <varray name="weights" >
   <v>       0.00045517 </v>
   <v>       0.00364133 </v>
   <v>       0.00364133 </v>
   <v>       0.00364133 </v>
   <v>       0.00364133 </v>
   <v>       0.00364133 </v>
   <v>       0.00364133 </v>
   <v>       0.00273100 </v>
   <v>       0.01092399 </v>
   <v>       0.01092399 </v>
   <v>       0.01092399 </v>
   <v>       0.01092399 </v>
   <v>       0.01092399 </v>
   <v>       0.01092399 </v>
   <v>       0.01092399 </v>
   <v>       0.01092399 </v>
   <v>       0.01092399 </v>
   <v>       0.01092399 </v>
   <v>       0.00546199 </v>
   <v>       0.00273100 </v>
   <v>       0.01092399 </v>
   <v>       0.01092399 </v>
   <v>       0.01092399 </v>
   <v>       0.01092399 </v>
   <v>       0.01092399 </v>
   <v>       0.01092399 </v>
   <v>       0.01092399 </v>
   <v>       0.01092399 </v>
   <v>       0.00546199 </v>
   <v>       0.00273100 </v>
   <v>       0.01092399 </v>
   <v>       0.01092399 </v>
   <v>       0.01092399 </v>
   <v>       0.01092399 </v>
   <v>       0.01092399 </v>
   <v>       0.01092399 </v>
   <v>       0.00546199 </v>
   <v>       0.00273100 </v>
   <v>       0.01092399 </v>
   <v>       0.01092399 </v>
   <v>       0.01092399 </v>
   <v>       0.01092399 </v>
   <v>       0.00546199 </v>
   <v>       0.00273100 </v>
   <v>       0.01092399 </v>
   <v>       0.01092399 </v>
   <v>       0.00546199 </v>
   <v>       0.00273100 </v>
   <v>       0.00546199 </v>
   <v>       0.01092399 </v>
   <v>       0.02184797 </v>
   <v>       0.02184797 </v>
   <v>       0.02184797 </v>
   <v>       0.02184797 </v>
   <v>       0.01092399 </v>
   <v>       0.02184797 </v>
   <v>       0.02184797 </v>
   <v>       0.02184797 </v>
   <v>       0.02184797 </v>
   <v>       0.02184797 </v>
   <v>       0.02184797 </v>
   <v>       0.01092399 </v>
   <v>       0.01092399 </v>
   <v>       0.02184797 </v>
   <v>       0.02184797 </v>
   <v>       0.02184797 </v>
   <v>       0.02184797 </v>
   <v>       0.01092399 </v>
   <v>       0.01092399 </v>
   <v>       0.02184797 </v>
   <v>       0.02184797 </v>
   <v>       0.01092399 </v>
   <v>       0.01092399 </v>
   <v>       0.01092399 </v>
   <v>       0.01092399 </v>
   <v>       0.02184797 </v>
   <v>       0.02184797 </v>
   <v>       0.01092399 </v>
   <v>       0.02184797 </v>
   <v>       0.02184797 </v>
   <v>       0.01092399 </v>
   <v>       0.01092399 </v>
   <v>       0.01092399 </v>
   <v>       0.01092399 </v>
  </varray>
 </kpoints>
 <parameters>
  <separator name="general" >
   <i type="string" name="SYSTEM">unknown system</i>
   <i type="logical" name="LCOMPAT"> F  </i>
  </separator>
  <separator name="electronic" >
   <i type="string" name="PREC">acc</i>
   <i name="ENMAX">    700.00000000</i>
   <i name="ENAUG">    535.43100000</i>
   <i name="EDIFF">      0.00000010</i>
   <i type="int" name="IALGO">    38</i>
   <i type="int" name="IWAVPR">    10</i>
   <i type="int" name="NBANDS">    24</i>
   <i type="int" name="NBANDSLOW">    -1</i>
   <i type="int" name="NBANDSHIGH">    -1</i>
   <i name="NELECT">     37.00000000</i>
   <i type="int" name="TURBO">     0</i>
   <i type="int" name="IRESTART">     0</i>
   <i type="int" name="NREBOOT">     0</i>
   <i type="int" name="NMIN">     0</i>
   <i name="EREF">      0.00000000</i>
   <separator name="electronic smearing" >
    <i type="int" name="ISMEAR">     0</i>
    <i name="SIGMA">      0.01000000</i>
    <i name="KSPACING">      0.50000000</i>
    <i type="logical" name="KGAMMA"> T  </i>
    <i type="logical" name="KBLOWUP"> T  </i>
   </separator>
   <separator name="electronic projectors" >
    <i type="logical" name="LREAL"> F  </i>
    <v name="ROPT">      0.00000000      0.00000000      0.00000000</v>
    <i type="int" name="LMAXPAW">  -100</i>
    <i type="int" name="LMAXMIX">     2</i>
    <i type="logical" name="NLSPLINE"> F  </i>
   </separator>
   <separator name="electronic startup" >
    <i type="int" name="ISTART">     0</i>
    <i type="int" name="ICHARG">     2</i>
    <i type="int" name="INIWAV">     1</i>
   </separator>
   <separator name="electronic spin" >
    <i type="int" name="ISPIN">     1</i>
    <i type="logical" name="LNONCOLLINEAR"> F  </i>
    <v name="MAGMOM">      1.00000000      1.00000000      1.00000000</v>
    <i name="NUPDOWN">     -1.00000000</i>
    <i type="logical" name="LSORBIT"> F  </i>
    <v name="SAXIS">      0.00000000      0.00000000      1.00000000</v>
    <i type="logical" name="LSPIRAL"> F  </i>
    <v name="QSPIRAL">      0.00000000      0.00000000      0.00000000</v>
    <i type="logical" name="LZEROZ"> F  </i>
   </separator>
   <separator name="electronic exchange-correlation" >
    <i type="logical" name="LASPH"> F  </i>
    <i type="logical" name="LMETAGGA"> F  </i>
   </separator>
   <separator name="electronic convergence" >
    <i type="int" name="NELM">    60</i>
    <i type="int" name="NELMDL">    -5</i>
    <i type="int" name="NELMIN">     5</i>
    <i name="ENINI">    700.00000000</i>
    <separator name="electronic convergence detail" >
     <i type="logical" name="LDIAG"> T  </i>
     <i type="logical" name="LSUBROT"> F  </i>
     <i name="WEIMIN">      0.00000000</i>
     <i name="EBREAK">      0.00000000</i>
     <i name="DEPER">      0.30000000</i>
     <i type="int" name="NRMM">     4</i>
     <i name="TIME">      0.40000000</i>
    </separator>
   </separator>
   <separator name="electronic mixer" >
    <i name="AMIX">      0.40000000</i>
    <i name="BMIX">      1.00000000</i>
    <i name="AMIN">      0.10000000</i>
    <i name="AMIX_MAG">      1.60000000</i>
    <i name="BMIX_MAG">      1.00000000</i>
    <separator name="electronic mixer details" >
     <i type="int" name="IMIX">     4</i>
     <i type="logical" name="MIXFIRST"> F  </i>
     <i type="int" name="MAXMIX">   -45</i>
     <i name="WC">    100.00000000</i>
     <i type="int" name="INIMIX">     1</i>
     <i type="int" name="MIXPRE">     1</i>
     <i type="int" name="MREMOVE">     5</i>
    </separator>
   </separator>
   <separator name="electronic dipolcorrection" >
    <i type="logical" name="LDIPOL"> F  </i>
    <i type="logical" name="LMONO"> F  </i>
    <i type="int" name="IDIPOL">     0</i>
    <i name="EPSILON">      1.00000000</i>
    <v name="DIPOL">   -100.00000000   -100.00000000   -100.00000000</v>
    <i name="EFIELD">      0.00000000</i>
   </separator>
  </separator>
  <separator name="grids" >
   <i type="int" name="NGX">    40</i>
   <i type="int" name="NGY">    40</i>
   <i type="int" name="NGZ">    40</i>
   <i type="int" name="NGXF">    80</i>
   <i type="int" name="NGYF">    80</i>
   <i type="int" name="NGZF">    80</i>
   <i type="logical" name="ADDGRID"> T  </i>
  </separator>
  <separator name="ionic" >
   <i type="int" name="NSW">     0</i>
   <i type="int" name="IBRION">    -1</i>
   <i type="int" name="MDALGO">     0</i>
   <i type="int" name="ISIF">     3</i>
   <i name="PSTRESS">      0.00000000</i>
   <i name="EDIFFG">      0.00000100</i>
   <i type="int" name="NFREE">     0</i>
   <i name="POTIM">      0.50000000</i>
   <i name="SMASS">     -3.00000000</i>
   <i name="SCALEE">      1.00000000</i>
  </separator>
  <separator name="ionic md" >
   <i name="TEBEG">      0.00010000</i>
   <i name="TEEND">      0.00010000</i>
   <i type="int" name="NBLOCK">     1</i>
   <i type="int" name="KBLOCK">     1</i>
   <i type="int" name="NPACO">   256</i>
   <i name="APACO">     16.00000000</i>
  </separator>
  <separator name="symmetry" >
   <i type="int" name="ISYM">     2</i>
   <i name="SYMPREC">      0.00001000</i>
  </separator>
  <separator name="dos" >
   <i type="int" name="LORBIT">     0</i>
   <v name="RWIGS">     -1.00000000     -1.00000000     -1.00000000</v>
   <i type="int" name="NEDOS">   301</i>
   <i name="EMIN">     10.00000000</i>
   <i name="EMAX">    -10.00000000</i>
   <i name="EFERMI">      0.00000000</i>
  </separator>
  <separator name="writing" >
   <i type="int" name="NWRITE">     2</i>
   <i type="logical" name="LWAVE"> F  </i>
   <i type="logical" name="LDOWNSAMPLE"> F  </i>
   <i type="logical" name="LCHARG"> F  </i>
   <i type="logical" name="LPARD"> F  </i>
   <i type="logical" name="LVTOT"> F  </i>
   <i type="logical" name="LVHAR"> F  </i>
   <i type="logical" name="LELF"> F  </i>
   <i type="logical" name="LOPTICS"> F  </i>
   <v name="STM">      0.00000000      0.00000000      0.00000000      0.00000000      0.00000000      0.00000000      0.00000000</v>
  </separator>
  <separator name="performance" >
   <i type="int" name="NPAR">     4</i>
   <i type="int" name="NSIM">     4</i>
   <i type="int" name="NBLK">    -1</i>
   <i type="logical" name="LPLANE"> T  </i>
   <i type="logical" name="LSCALAPACK"> T  </i>
   <i type="logical" name="LSCAAWARE"> F  </i>
   <i type="logical" name="LSCALU"> F  </i>
   <i type="logical" name="LASYNC"> F  </i>
   <i type="logical" name="LORBITALREAL"> F  </i>
  </separator>
  <separator name="miscellaneous" >
   <i type="int" name="IDIOT">     3</i>
   <i type="int" name="PHON_NSTRUCT">    -1</i>
   <i type="logical" name="LMUSIC"> F  </i>
   <v name="POMASS">    232.03900000    208.98000000    195.08000000</v>
   <v name="DARWINR">      0.00000000      0.00000000      0.00000000</v>
   <v name="DARWINV">      1.00000000      1.00000000      1.00000000</v>
   <i type="logical" name="LCORR"> T  </i>
  </separator>
  <i type="logical" name="GGA_COMPAT"> T  </i>
  <i type="logical" name="LBERRY"> F  </i>
  <i type="int" name="ICORELEVEL">     0</i>
  <i type="logical" name="LDAU"> F  </i>
  <i type="int" name="I_CONSTRAINED_M">     0</i>
  <separator name="electronic exchange-correlation" >
   <i type="string" name="GGA">PS</i>
   <i type="int" name="VOSKOWN">     0</i>
   <i type="logical" name="LHFCALC"> F  </i>
   <i type="string" name="PRECFOCK"></i>
   <i type="logical" name="LSYMGRAD"> F  </i>
   <i type="logical" name="LHFONE"> F  </i>
   <i type="logical" name="LRHFCALC"> F  </i>
   <i type="logical" name="LTHOMAS"> F  </i>
   <i type="logical" name="LMODELHF"> F  </i>
   <i type="logical" name="LFOCKACE"> F  </i>
   <i name="ENCUT4O">     -1.00000000</i>
   <i type="int" name="EXXOEP">     0</i>
   <i type="int" name="FOURORBIT">     0</i>
   <i name="AEXX">      0.00000000</i>
   <i name="HFALPHA">      0.00000000</i>
   <i name="MCALPHA">      0.00000000</i>
   <i name="ALDAX">      1.00000000</i>
   <i name="AGGAX">      1.00000000</i>
   <i name="ALDAC">      1.00000000</i>
   <i name="AGGAC">      1.00000000</i>
   <i type="int" name="NKREDX">     1</i>
   <i type="int" name="NKREDY">     1</i>
   <i type="int" name="NKREDZ">     1</i>
   <i type="logical" name="SHIFTRED"> F  </i>
   <i type="logical" name="ODDONLY"> F  </i>
   <i type="logical" name="EVENONLY"> F  </i>
   <i type="int" name="LMAXFOCK">     0</i>
   <i type="int" name="NMAXFOCKAE">     0</i>
   <i type="logical" name="LFOCKAEDFT"> F  </i>
   <i name="HFSCREEN">      0.00000000</i>
   <i name="HFSCREENC">      0.00000000</i>
   <i type="int" name="NBANDSGWLOW">     0</i>
  </separator>
  <separator name="vdW DFT" >
   <i type="logical" name="LUSE_VDW"> F  </i>
   <i name="Zab_VDW">     -0.84910000</i>
   <i name="PARAM1">      0.12340000</i>
   <i name="PARAM2">      1.00000000</i>
   <i name="PARAM3">      0.00000000</i>
  </separator>
  <separator name="model GW" >
   <i type="int" name="MODEL_GW">     0</i>
   <i name="MODEL_EPS0">     13.17655664</i>
   <i name="MODEL_ALPHA">      1.00000000</i>
  </separator>
  <separator name="linear response parameters" >
   <i type="logical" name="LEPSILON"> F  </i>
   <i type="logical" name="LRPA"> F  </i>
   <i type="logical" name="LNABLA"> F  </i>
   <i type="logical" name="LVEL"> F  </i>
   <i type="int" name="KINTER">     0</i>
   <i name="CSHIFT">      0.10000000</i>
   <i name="OMEGAMAX">     -1.00000000</i>
   <i name="DEG_THRESHOLD">      0.00200000</i>
   <i name="RTIME">     -0.10000000</i>
   <i name="WPLASMAI">      0.00000000</i>
   <v name="DFIELD">      0.00000000      0.00000000      0.00000000</v>
   <v name="WPLASMA">      0.00000000      0.00000000      0.00000000      0.00000000      0.00000000      0.00000000      0.00000000      0.00000000      0.00000000</v>
  </separator>
  <separator name="orbital magnetization" >
   <i type="logical" name="NUCIND"> F  </i>
   <v name="MAGPOS">      0.00000000      0.00000000      0.00000000</v>
   <i type="logical" name="LNICSALL"> T  </i>
   <i type="logical" name="ORBITALMAG"> F  </i>
   <i type="logical" name="LMAGBLOCH"> F  </i>
   <i type="logical" name="LCHIMAG"> F  </i>
   <i type="logical" name="LGAUGE"> T  </i>
   <i type="int" name="MAGATOM">     0</i>
   <v name="MAGDIPOL">      0.00000000      0.00000000      0.00000000</v>
   <v name="AVECCONST">      0.00000000      0.00000000      0.00000000</v>
  </separator>
  <separator name="response functions" >
   <i type="logical" name="LFINITE_TEMPERATURE"> F  </i>
   <i type="logical" name="LADDER"> F  </i>
   <i type="logical" name="LRPAFORCE"> F  </i>
   <i type="logical" name="LFXC"> F  </i>
   <i type="logical" name="LHARTREE"> T  </i>
   <i type="int" name="IBSE">     0</i>
   <v type="int" name="KPOINT">    -1     0     0     0</v>
   <i type="logical" name="LTCTC"> F  </i>
   <i type="logical" name="LTCTE"> F  </i>
   <i type="logical" name="LTETE"> F  </i>
   <i type="logical" name="LTRIPLET"> F  </i>
   <i type="logical" name="LFXCEPS"> F  </i>
   <i type="logical" name="LFXHEG"> F  </i>
   <i type="int" name="NATURALO">     2</i>
   <i type="logical" name="L2ORDER"> F  </i>
   <i type="logical" name="LDMP1"> F  </i>
   <i type="logical" name="LMP2LT"> F  </i>
   <i type="logical" name="LSMP2LT"> F  </i>
   <i type="logical" name="LUSEW"> F  </i>
   <i name="ENCUTGW">     -2.00000000</i>
   <i name="ENCUTGWSOFT">     -2.00000000</i>
   <i name="ENCUTLF">     -1.00000000</i>
   <i type="int" name="LMAXMP2">    -1</i>
   <i name="SCISSOR">      0.00000000</i>
   <i type="int" name="NOMEGA">     0</i>
   <i type="int" name="NOMEGAR">     0</i>
   <i type="int" name="NBANDSGW">    -1</i>
   <i type="int" name="NBANDSO">    -1</i>
   <i type="int" name="NBANDSV">    -1</i>
   <i type="int" name="NELM">     1</i>
   <i type="int" name="NELMHF">     1</i>
   <i type="int" name="DIM">     3</i>
   <i type="int" name="IESPILON">     4</i>
   <i type="int" name="ANTIRES">     0</i>
   <i name="OMEGAMAX">    -30.00000000</i>
   <i name="OMEGAMIN">    -30.00000000</i>
   <i name="OMEGATL">   -200.00000000</i>
   <i type="int" name="OMEGAGRID">   145</i>
   <i name="CSHIFT">     -0.10000000</i>
   <i type="logical" name="LSELFENERGY"> F  </i>
   <i type="logical" name="LSPECTRAL"> F  </i>
   <i type="logical" name="LSPECTRALGW"> F  </i>
   <i type="logical" name="LSINGLES"> F  </i>
   <i type="logical" name="LFERMIGW"> F  </i>
   <i type="logical" name="ODDONLYGW"> F  </i>
   <i type="logical" name="EVENONLYGW"> F  </i>
   <i type="int" name="NKREDLFX">     1</i>
   <i type="int" name="NKREDLFY">     1</i>
   <i type="int" name="NKREDLFZ">     1</i>
   <i type="int" name="MAXMEM">  2800</i>
   <i type="int" name="TELESCOPE">     0</i>
   <i type="int" name="NTAUPAR">     1</i>
   <i type="int" name="NOMEGAPAR">    -1</i>
   <i name="LAMBDA">      1.00000000</i>
  </separator>
  <separator name="External order field" >
   <i name="OFIELD_KAPPA">      0.00000000</i>
   <v name="OFIELD_K">      0.00000000      0.00000000      0.00000000</v>
   <i name="OFIELD_Q6_NEAR">      0.00000000</i>
   <i name="OFIELD_Q6_FAR">      0.00000000</i>
   <i name="OFIELD_A">      0.00000000</i>
  </separator>
 </parameters>
 <atominfo>
  <atoms>       3 </atoms>
  <types>       3 </types>
  <array name="atoms" >
   <dimension dim="1">ion</dimension>
   <field type="string">element</field>
   <field type="int">atomtype</field>
   <set>
    <rc><c>Th</c><c>   1</c></rc>
    <rc><c>Bi</c><c>   2</c></rc>
    <rc><c>Pt</c><c>   3</c></rc>
   </set>
  </array>
  <array name="atomtypes" >
   <dimension dim="1">type</dimension>
   <field type="int">atomspertype</field>
   <field type="string">element</field>
   <field>mass</field>
   <field>valence</field>
   <field type="string">pseudopotential</field>
   <set>
    <rc><c>   1</c><c>Th</c><c>    232.03900000</c><c>     12.00000000</c><c>  PAW_PBE Th 07Sep2000                  </c></rc>
    <rc><c>   1</c><c>Bi</c><c>    208.98000000</c><c>     15.00000000</c><c>  PAW_PBE Bi_d 06Sep2000                </c></rc>
    <rc><c>   1</c><c>Pt</c><c>    195.08000000</c><c>     10.00000000</c><c>  PAW_PBE Pt 04Feb2005                  </c></rc>
   </set>
  </array>
 </atominfo>
 <structure name="initialpos" >
  <crystal>
   <varray name="basis" >
    <v>       0.00000000       3.20563433       3.20563433 </v>
    <v>       3.20563433       0.00000000       3.20563433 </v>
    <v>       3.20563433       3.20563433       0.00000000 </v>
   </varray>
   <i name="volume">     65.88278319 </i>
   <varray name="rec_basis" >
    <v>      -0.15597537       0.15597537       0.15597537 </v>
    <v>       0.15597537      -0.15597537       0.15597537 </v>
    <v>       0.15597537       0.15597537      -0.15597537 </v>
   </varray>
  </crystal>
  <varray name="positions" >
   <v>       0.25000000       0.25000000       0.25000000 </v>
   <v>       0.75000000       0.75000000       0.75000000 </v>
   <v>       0.00000000       0.00000000       0.00000000 </v>
  </varray>
 </structure>
 <calculation>
  <scstep>
   <time name="dav">    1.43    1.44</time>
   <time name="total">    1.58    1.66</time>
   <energy>
    <i name="alphaZ">    260.78987782 </i>
    <i name="ewald">  -3341.67257438 </i>
    <i name="hartreedc">   -669.35203108 </i>
    <i name="XCdc">     70.68060834 </i>
    <i name="pawpsdc">   3147.30828992 </i>
    <i name="pawaedc">  -3070.62761383 </i>
    <i name="eentropy">     -0.00013729 </i>
    <i name="bandstr">    381.84446920 </i>
    <i name="atom">   3674.67342263 </i>
    <i name="e_fr_energy">    453.64431133 </i>
    <i name="e_wo_entrp">    453.64444862 </i>
    <i name="e_0_energy">    453.64437998 </i>
   </energy>
  </scstep>
  <scstep>
   <time name="dav">    1.42    1.47</time>
   <time name="total">    1.43    1.47</time>
   <energy>
    <i name="e_fr_energy">     47.94743465 </i>
    <i name="e_wo_entrp">     47.94762744 </i>
    <i name="e_0_energy">     47.94753104 </i>
   </energy>
  </scstep>
  <scstep>
   <time name="dav">    1.81    1.84</time>
   <time name="total">    1.81    1.84</time>
   <energy>
    <i name="e_fr_energy">    -17.28604553 </i>
    <i name="e_wo_entrp">    -17.28572600 </i>
    <i name="e_0_energy">    -17.28588576 </i>
   </energy>
  </scstep>
  <scstep>
   <time name="dav">    2.23    2.25</time>
   <time name="total">    2.23    2.25</time>
   <energy>
    <i name="e_fr_energy">    -21.42366479 </i>
    <i name="e_wo_entrp">    -21.42326749 </i>
    <i name="e_0_energy">    -21.42346614 </i>
   </energy>
  </scstep>
  <scstep>
   <time name="dav">    1.80    1.83</time>
   <time name="total">    2.13    2.16</time>
   <energy>
    <i name="e_fr_energy">    -21.53866998 </i>
    <i name="e_wo_entrp">    -21.53824276 </i>
    <i name="e_0_energy">    -21.53845637 </i>
   </energy>
  </scstep>
  <scstep>
   <time name="dav">    1.69    1.69</time>
   <time name="total">    2.12    2.15</time>
   <energy>
    <i name="e_fr_energy">    -20.79350384 </i>
    <i name="e_wo_entrp">    -20.79331613 </i>
    <i name="e_0_energy">    -20.79340999 </i>
   </energy>
  </scstep>
  <scstep>
   <time name="dav">    1.88    1.88</time>
   <time name="total">    2.28    2.30</time>
   <energy>
    <i name="e_fr_energy">    -20.62301750 </i>
    <i name="e_wo_entrp">    -20.62290895 </i>
    <i name="e_0_energy">    -20.62296323 </i>
   </energy>
  </scstep>
  <scstep>
   <time name="dav">    1.85    1.85</time>
   <time name="total">    2.25    2.28</time>
   <energy>
    <i name="e_fr_energy">    -20.59905075 </i>
    <i name="e_wo_entrp">    -20.59886900 </i>
    <i name="e_0_energy">    -20.59895987 </i>
   </energy>
  </scstep>
  <scstep>
   <time name="dav">    1.83    1.83</time>
   <time name="total">    2.23    2.26</time>
   <energy>
    <i name="e_fr_energy">    -20.59422324 </i>
    <i name="e_wo_entrp">    -20.59403748 </i>
    <i name="e_0_energy">    -20.59413036 </i>
   </energy>
  </scstep>
  <scstep>
   <time name="dav">    1.87    1.88</time>
   <time name="total">    2.27    2.31</time>
   <energy>
    <i name="e_fr_energy">    -20.59161094 </i>
    <i name="e_wo_entrp">    -20.59142999 </i>
    <i name="e_0_energy">    -20.59152046 </i>
   </energy>
  </scstep>
  <scstep>
   <time name="dav">    1.77    1.77</time>
   <time name="total">    2.17    2.19</time>
   <energy>
    <i name="e_fr_energy">    -20.59164370 </i>
    <i name="e_wo_entrp">    -20.59146193 </i>
    <i name="e_0_energy">    -20.59155281 </i>
   </energy>
  </scstep>
  <scstep>
   <time name="dav">    1.96    1.96</time>
   <time name="total">    2.36    2.39</time>
   <energy>
    <i name="e_fr_energy">    -20.59161532 </i>
    <i name="e_wo_entrp">    -20.59143204 </i>
    <i name="e_0_energy">    -20.59152368 </i>
   </energy>
  </scstep>
  <scstep>
   <time name="dav">    1.88    1.88</time>
   <time name="total">    2.28    2.31</time>
   <energy>
    <i name="e_fr_energy">    -20.59161720 </i>
    <i name="e_wo_entrp">    -20.59143364 </i>
    <i name="e_0_energy">    -20.59152542 </i>
   </energy>
  </scstep>
  <scstep>
   <time name="dav">    1.81    1.81</time>
   <time name="total">    2.21    2.24</time>
   <energy>
    <i name="e_fr_energy">    -20.59161704 </i>
    <i name="e_wo_entrp">    -20.59143352 </i>
    <i name="e_0_energy">    -20.59152528 </i>
   </energy>
  </scstep>
  <scstep>
   <time name="dav">    1.81    1.81</time>
   <time name="total">    2.21    2.25</time>
   <energy>
    <i name="e_fr_energy">    -20.59161679 </i>
    <i name="e_wo_entrp">    -20.59143334 </i>
    <i name="e_0_energy">    -20.59152507 </i>
   </energy>
  </scstep>
  <scstep>
   <time name="dav">    1.27    1.27</time>
   <time name="total">    1.39    1.42</time>
   <energy>
    <i name="alphaZ">    260.78987782 </i>
    <i name="ewald">  -3341.67257438 </i>
    <i name="hartreedc">   -642.22514693 </i>
    <i name="XCdc">     70.00855419 </i>
    <i name="pawpsdc">   4571.81059961 </i>
    <i name="pawaedc">  -4507.26962691 </i>
    <i name="eentropy">     -0.00018346 </i>
    <i name="bandstr">   -106.70653936 </i>
    <i name="atom">   3674.67342263 </i>
    <i name="e_fr_energy">    -20.59161678 </i>
    <i name="e_wo_entrp">    -20.59143333 </i>
    <i name="e_0_energy">    -20.59152506 </i>
   </energy>
  </scstep>
  <structure>
   <crystal>
    <varray name="basis" >
     <v>       0.00000000       3.20563433       3.20563433 </v>
     <v>       3.20563433       0.00000000       3.20563433 </v>
     <v>       3.20563433       3.20563433       0.00000000 </v>
    </varray>
    <i name="volume">     65.88278319 </i>
    <varray name="rec_basis" >
     <v>      -0.15597537       0.15597537       0.15597537 </v>
     <v>       0.15597537      -0.15597537       0.15597537 </v>
     <v>       0.15597537       0.15597537      -0.15597537 </v>
    </varray>
   </crystal>
   <varray name="positions" >
    <v>       0.25000000       0.25000000       0.25000000 </v>
    <v>       0.75000000       0.75000000       0.75000000 </v>
    <v>       0.00000000       0.00000000       0.00000000 </v>
   </varray>
  </structure>
  <varray name="forces" >
   <v>       0.00000000       0.00000000       0.00000000 </v>
   <v>       0.00000000       0.00000000       0.00000000 </v>
   <v>      -0.00000000      -0.00000000      -0.00000000 </v>
  </varray>
  <varray name="stress" >
   <v>     335.54721246      -0.00000000       0.00000000 </v>
   <v>       0.00000000     335.54721246      -0.00000000 </v>
   <v>      -0.00000000      -0.00000000     335.54721246 </v>
  </varray>
  <energy>
   <i name="e_fr_energy">    -20.59161678 </i>
   <i name="e_wo_entrp">    -20.59152506 </i>
   <i name="e_0_energy">     -0.00018346 </i>
  </energy>
  <time name="totalsc">   36.52   37.75</time>
  <eigenvalues>
   <array>
    <dimension dim="1">band</dimension>
    <dimension dim="2">kpoint</dimension>
    <dimension dim="3">spin</dimension>
    <field>eigene</field>
    <field>occ</field>
    <set>
     <set comment="spin 1">
      <set comment="kpoint 1">
       <r>  -28.4297    1.0000 </r>
       <r>  -12.3077    1.0000 </r>
       <r>  -12.3077    1.0000 </r>
       <r>  -12.2569    1.0000 </r>
       <r>  -12.2569    1.0000 </r>
       <r>  -12.2569    1.0000 </r>
       <r>   -6.7824    1.0000 </r>
       <r>   -6.7824    1.0000 </r>
       <r>   -6.7824    1.0000 </r>
       <r>   -2.3184    1.0000 </r>
       <r>    5.9113    1.0000 </r>
       <r>    5.9113    1.0000 </r>
       <r>    5.9708    1.0000 </r>
       <r>    5.9708    1.0000 </r>
       <r>    5.9708    1.0000 </r>
       <r>    9.6676    1.0000 </r>
       <r>    9.6676    1.0000 </r>
       <r>    9.6676    1.0000 </r>
       <r>   10.0684    1.0000 </r>
       <r>   11.2453    0.0000 </r>
       <r>   11.2453    0.0000 </r>
       <r>   11.2453    0.0000 </r>
       <r>   12.3052    0.0000 </r>
       <r>   13.6231    0.0000 </r>
      </set>
      <set comment="kpoint 2">
       <r>  -28.4286    1.0000 </r>
       <r>  -12.3097    1.0000 </r>
       <r>  -12.3097    1.0000 </r>
       <r>  -12.2574    1.0000 </r>
       <r>  -12.2566    1.0000 </r>
       <r>  -12.2566    1.0000 </r>
       <r>   -6.8302    1.0000 </r>
       <r>   -6.7753    1.0000 </r>
       <r>   -6.7753    1.0000 </r>
       <r>   -2.2019    1.0000 </r>
       <r>    5.6491    1.0000 </r>
       <r>    5.6491    1.0000 </r>
       <r>    5.8322    1.0000 </r>
       <r>    6.2163    1.0000 </r>
       <r>    6.2163    1.0000 </r>
       <r>    8.9224    1.0000 </r>
       <r>    9.5753    1.0000 </r>
       <r>    9.5753    1.0000 </r>
       <r>   10.5392    1.0000 </r>
       <r>   11.3629    0.0000 </r>
       <r>   11.3629    0.0000 </r>
       <r>   11.4448    0.0000 </r>
       <r>   12.6399    0.0000 </r>
       <r>   13.6279    0.0000 </r>
      </set>
      <set comment="kpoint 3">
       <r>  -28.4256    1.0000 </r>
       <r>  -12.3151    1.0000 </r>
       <r>  -12.3151    1.0000 </r>
       <r>  -12.2589    1.0000 </r>
       <r>  -12.2557    1.0000 </r>
       <r>  -12.2557    1.0000 </r>
       <r>   -6.9510    1.0000 </r>
       <r>   -6.7556    1.0000 </r>
       <r>   -6.7556    1.0000 </r>
       <r>   -1.8886    1.0000 </r>
       <r>    5.3942    1.0000 </r>
       <r>    5.3942    1.0000 </r>
       <r>    5.4665    1.0000 </r>
       <r>    6.4037    1.0000 </r>
       <r>    6.4037    1.0000 </r>
       <r>    8.1066    1.0000 </r>
       <r>    9.3976    1.0000 </r>
       <r>    9.3976    1.0000 </r>
       <r>   10.5630    1.0000 </r>
       <r>   11.6401    0.0000 </r>
       <r>   11.6401    0.0000 </r>
       <r>   12.2421    0.0000 </r>
       <r>   13.2825    0.0000 </r>
       <r>   13.6315    0.0000 </r>
      </set>
      <set comment="kpoint 4">
       <r>  -28.4213    1.0000 </r>
       <r>  -12.3227    1.0000 </r>
       <r>  -12.3227    1.0000 </r>
       <r>  -12.2613    1.0000 </r>
       <r>  -12.2543    1.0000 </r>
       <r>  -12.2543    1.0000 </r>
       <r>   -7.0975    1.0000 </r>
       <r>   -6.7280    1.0000 </r>
       <r>   -6.7280    1.0000 </r>
       <r>   -1.4658    1.0000 </r>
       <r>    4.9947    1.0000 </r>
       <r>    5.2058    1.0000 </r>
       <r>    5.2058    1.0000 </r>
       <r>    6.4441    1.0000 </r>
       <r>    6.4441    1.0000 </r>
       <r>    7.4707    1.0000 </r>
       <r>    9.2755    1.0000 </r>
       <r>    9.2755    1.0000 </r>
       <r>   10.5443    1.0000 </r>
       <r>   11.9761    0.0000 </r>
       <r>   11.9761    0.0000 </r>
       <r>   13.0498    0.0000 </r>
       <r>   13.6127    0.0000 </r>
       <r>   13.6197    0.0000 </r>
      </set>
      <set comment="kpoint 5">
       <r>  -28.4167    1.0000 </r>
       <r>  -12.3307    1.0000 </r>
       <r>  -12.3307    1.0000 </r>
       <r>  -12.2644    1.0000 </r>
       <r>  -12.2529    1.0000 </r>
       <r>  -12.2529    1.0000 </r>
       <r>   -7.2294    1.0000 </r>
       <r>   -6.6988    1.0000 </r>
       <r>   -6.6988    1.0000 </r>
       <r>   -1.0376    1.0000 </r>
       <r>    4.5499    1.0000 </r>
       <r>    5.0985    1.0000 </r>
       <r>    5.0985    1.0000 </r>
       <r>    6.3372    1.0000 </r>
       <r>    6.3372    1.0000 </r>
       <r>    7.0307    1.0000 </r>
       <r>    9.2530    1.0000 </r>
       <r>    9.2530    1.0000 </r>
       <r>   10.6236    1.0000 </r>
       <r>   12.3110    0.0000 </r>
       <r>   12.3110    0.0000 </r>
       <r>   13.5526    0.0000 </r>
       <r>   13.5790    0.0000 </r>
       <r>   13.5790    0.0000 </r>
      </set>
      <set comment="kpoint 6">
       <r>  -28.4129    1.0000 </r>
       <r>  -12.3374    1.0000 </r>
       <r>  -12.3374    1.0000 </r>
       <r>  -12.2673    1.0000 </r>
       <r>  -12.2517    1.0000 </r>
       <r>  -12.2517    1.0000 </r>
       <r>   -7.3241    1.0000 </r>
       <r>   -6.6748    1.0000 </r>
       <r>   -6.6748    1.0000 </r>
       <r>   -0.6997    1.0000 </r>
       <r>    4.2275    1.0000 </r>
       <r>    5.0658    1.0000 </r>
       <r>    5.0658    1.0000 </r>
       <r>    6.1622    1.0000 </r>
       <r>    6.1622    1.0000 </r>
       <r>    6.7657    1.0000 </r>
       <r>    9.2871    1.0000 </r>
       <r>    9.2871    1.0000 </r>
       <r>   10.8013    1.0000 </r>
       <r>   12.5888    0.0000 </r>
       <r>   12.5888    0.0000 </r>
       <r>   13.5455    0.0000 </r>
       <r>   13.5455    0.0000 </r>
       <r>   13.6669    0.0000 </r>
      </set>
      <set comment="kpoint 7">
       <r>  -28.4108    1.0000 </r>
       <r>  -12.3411    1.0000 </r>
       <r>  -12.3411    1.0000 </r>
       <r>  -12.2692    1.0000 </r>
       <r>  -12.2509    1.0000 </r>
       <r>  -12.2509    1.0000 </r>
       <r>   -7.3725    1.0000 </r>
       <r>   -6.6613    1.0000 </r>
       <r>   -6.6613    1.0000 </r>
       <r>   -0.5173    1.0000 </r>
       <r>    4.0659    1.0000 </r>
       <r>    5.0736    1.0000 </r>
       <r>    5.0736    1.0000 </r>
       <r>    6.0297    1.0000 </r>
       <r>    6.0297    1.0000 </r>
       <r>    6.6453    1.0000 </r>
       <r>    9.3196    1.0000 </r>
       <r>    9.3196    1.0000 </r>
       <r>   10.9933    1.0000 </r>
       <r>   12.7486    0.0000 </r>
       <r>   12.7486    0.0000 </r>
       <r>   13.3998    0.0000 </r>
       <r>   13.5224    0.0000 </r>
       <r>   13.5224    0.0000 </r>
      </set>
      <set comment="kpoint 8">
       <r>  -28.4282    1.0000 </r>
       <r>  -12.3133    1.0000 </r>
       <r>  -12.3070    1.0000 </r>
       <r>  -12.2578    1.0000 </r>
       <r>  -12.2564    1.0000 </r>
       <r>  -12.2564    1.0000 </r>
       <r>   -6.8219    1.0000 </r>
       <r>   -6.7850    1.0000 </r>
       <r>   -6.7850    1.0000 </r>
       <r>   -2.1662    1.0000 </r>
       <r>    5.3492    1.0000 </r>
       <r>    5.9285    1.0000 </r>
       <r>    5.9795    1.0000 </r>
       <r>    5.9795    1.0000 </r>
       <r>    6.2737    1.0000 </r>
       <r>    8.9394    1.0000 </r>
       <r>    9.4287    1.0000 </r>
       <r>    9.4287    1.0000 </r>
       <r>   10.8406    1.0000 </r>
       <r>   11.0387    1.0000 </r>
       <r>   11.5683    0.0000 </r>
       <r>   11.5683    0.0000 </r>
       <r>   12.7001    0.0000 </r>
       <r>   13.5792    0.0000 </r>
      </set>
      <set comment="kpoint 9">
       <r>  -28.4259    1.0000 </r>
       <r>  -12.3193    1.0000 </r>
       <r>  -12.3084    1.0000 </r>
       <r>  -12.2589    1.0000 </r>
       <r>  -12.2557    1.0000 </r>
       <r>  -12.2555    1.0000 </r>
       <r>   -6.9114    1.0000 </r>
       <r>   -6.7802    1.0000 </r>
       <r>   -6.7655    1.0000 </r>
       <r>   -1.9282    1.0000 </r>
       <r>    5.0166    1.0000 </r>
       <r>    5.7080    1.0000 </r>
       <r>    5.7924    1.0000 </r>
       <r>    6.1892    1.0000 </r>
       <r>    6.4299    1.0000 </r>
       <r>    8.3581    1.0000 </r>
       <r>    9.2491    1.0000 </r>
       <r>    9.2657    1.0000 </r>
       <r>   10.9338    1.0000 </r>
       <r>   11.1881    0.0000 </r>
       <r>   11.8628    0.0000 </r>
       <r>   12.1249    0.0000 </r>
       <r>   13.1606    0.0000 </r>
       <r>   13.5388    0.0000 </r>
      </set>
      <set comment="kpoint 10">
       <r>  -28.4220    1.0000 </r>
       <r>  -12.3265    1.0000 </r>
       <r>  -12.3135    1.0000 </r>
       <r>  -12.2608    1.0000 </r>
       <r>  -12.2548    1.0000 </r>
       <r>  -12.2542    1.0000 </r>
       <r>   -7.0468    1.0000 </r>
       <r>   -6.7623    1.0000 </r>
       <r>   -6.7349    1.0000 </r>
       <r>   -1.5597    1.0000 </r>
       <r>    4.7243    1.0000 </r>
       <r>    5.4412    1.0000 </r>
       <r>    5.5096    1.0000 </r>
       <r>    6.2803    1.0000 </r>
       <r>    6.5409    1.0000 </r>
       <r>    7.7361    1.0000 </r>
       <r>    9.1133    1.0000 </r>
       <r>    9.1522    1.0000 </r>
       <r>   10.8335    1.0000 </r>
       <r>   11.5946    0.0000 </r>
       <r>   12.1644    0.0000 </r>
       <r>   12.8529    0.0000 </r>
       <r>   13.5072    0.0000 </r>
       <r>   13.6327    0.0000 </r>
      </set>
      <set comment="kpoint 11">
       <r>  -28.4176    1.0000 </r>
       <r>  -12.3331    1.0000 </r>
       <r>  -12.3211    1.0000 </r>
       <r>  -12.2634    1.0000 </r>
       <r>  -12.2537    1.0000 </r>
       <r>  -12.2527    1.0000 </r>
       <r>   -7.1799    1.0000 </r>
       <r>   -6.7353    1.0000 </r>
       <r>   -6.7068    1.0000 </r>
       <r>   -1.1599    1.0000 </r>
       <r>    4.4776    1.0000 </r>
       <r>    5.1392    1.0000 </r>
       <r>    5.3685    1.0000 </r>
       <r>    6.2180    1.0000 </r>
       <r>    6.5183    1.0000 </r>
       <r>    7.2394    1.0000 </r>
       <r>    9.0551    1.0000 </r>
       <r>    9.1640    1.0000 </r>
       <r>   10.7793    1.0000 </r>
       <r>   12.0521    0.0000 </r>
       <r>   12.4426    0.0000 </r>
       <r>   13.3757    0.0000 </r>
       <r>   13.4892    0.0000 </r>
       <r>   13.6547    0.0000 </r>
      </set>
      <set comment="kpoint 12">
       <r>  -28.4136    1.0000 </r>
       <r>  -12.3377    1.0000 </r>
       <r>  -12.3293    1.0000 </r>
       <r>  -12.2661    1.0000 </r>
       <r>  -12.2526    1.0000 </r>
       <r>  -12.2514    1.0000 </r>
       <r>   -7.2831    1.0000 </r>
       <r>   -6.7054    1.0000 </r>
       <r>   -6.6875    1.0000 </r>
       <r>   -0.8238    1.0000 </r>
       <r>    4.2824    1.0000 </r>
       <r>    4.9939    1.0000 </r>
       <r>    5.2691    1.0000 </r>
       <r>    6.0883    1.0000 </r>
       <r>    6.3814    1.0000 </r>
       <r>    6.8994    1.0000 </r>
       <r>    9.0834    1.0000 </r>
       <r>    9.2258    1.0000 </r>
       <r>   10.8421    1.0000 </r>
       <r>   12.4328    0.0000 </r>
       <r>   12.6702    0.0000 </r>
       <r>   13.4754    0.0000 </r>
       <r>   13.4831    0.0000 </r>
       <r>   13.7393    0.0000 </r>
      </set>
      <set comment="kpoint 13">
       <r>  -28.4109    1.0000 </r>
       <r>  -12.3392    1.0000 </r>
       <r>  -12.3364    1.0000 </r>
       <r>  -12.2681    1.0000 </r>
       <r>  -12.2518    1.0000 </r>
       <r>  -12.2507    1.0000 </r>
       <r>   -7.3439    1.0000 </r>
       <r>   -6.6813    1.0000 </r>
       <r>   -6.6794    1.0000 </r>
       <r>   -0.6158    1.0000 </r>
       <r>    4.1644    1.0000 </r>
       <r>    5.0015    1.0000 </r>
       <r>    5.1661    1.0000 </r>
       <r>    6.0213    1.0000 </r>
       <r>    6.2019    1.0000 </r>
       <r>    6.7160    1.0000 </r>
       <r>    9.1364    1.0000 </r>
       <r>    9.2714    1.0000 </r>
       <r>   10.9974    1.0000 </r>
       <r>   12.6230    0.0000 </r>
       <r>   12.8041    0.0000 </r>
       <r>   13.4145    0.0000 </r>
       <r>   13.4806    0.0000 </r>
       <r>   13.6683    0.0000 </r>
      </set>
      <set comment="kpoint 14">
       <r>  -28.4102    1.0000 </r>
       <r>  -12.3406    1.0000 </r>
       <r>  -12.3375    1.0000 </r>
       <r>  -12.2686    1.0000 </r>
       <r>  -12.2514    1.0000 </r>
       <r>  -12.2506    1.0000 </r>
       <r>   -7.3590    1.0000 </r>
       <r>   -6.6892    1.0000 </r>
       <r>   -6.6631    1.0000 </r>
       <r>   -0.5601    1.0000 </r>
       <r>    4.1337    1.0000 </r>
       <r>    5.0389    1.0000 </r>
       <r>    5.1018    1.0000 </r>
       <r>    6.0658    1.0000 </r>
       <r>    6.0898    1.0000 </r>
       <r>    6.6740    1.0000 </r>
       <r>    9.1548    1.0000 </r>
       <r>    9.2751    1.0000 </r>
       <r>   11.0825    0.5661 </r>
       <r>   12.6440    0.0000 </r>
       <r>   12.7969    0.0000 </r>
       <r>   13.4121    0.0000 </r>
       <r>   13.4852    0.0000 </r>
       <r>   13.5936    0.0000 </r>
      </set>
      <set comment="kpoint 15">
       <r>  -28.4116    1.0000 </r>
       <r>  -12.3412    1.0000 </r>
       <r>  -12.3328    1.0000 </r>
       <r>  -12.2674    1.0000 </r>
       <r>  -12.2517    1.0000 </r>
       <r>  -12.2513    1.0000 </r>
       <r>   -7.3280    1.0000 </r>
       <r>   -6.7090    1.0000 </r>
       <r>   -6.6602    1.0000 </r>
       <r>   -0.6609    1.0000 </r>
       <r>    4.1971    1.0000 </r>
       <r>    4.9318    1.0000 </r>
       <r>    5.2299    1.0000 </r>
       <r>    6.0403    1.0000 </r>
       <r>    6.2614    1.0000 </r>
       <r>    6.7650    1.0000 </r>
       <r>    9.1063    1.0000 </r>
       <r>    9.2497    1.0000 </r>
       <r>   10.9756    1.0000 </r>
       <r>   12.6256    0.0000 </r>
       <r>   12.6976    0.0000 </r>
       <r>   13.4356    0.0000 </r>
       <r>   13.5051    0.0000 </r>
       <r>   13.7091    0.0000 </r>
      </set>
      <set comment="kpoint 16">
       <r>  -28.4148    1.0000 </r>
       <r>  -12.3379    1.0000 </r>
       <r>  -12.3261    1.0000 </r>
       <r>  -12.2650    1.0000 </r>
       <r>  -12.2525    1.0000 </r>
       <r>  -12.2525    1.0000 </r>
       <r>   -7.2526    1.0000 </r>
       <r>   -6.7359    1.0000 </r>
       <r>   -6.6715    1.0000 </r>
       <r>   -0.9135    1.0000 </r>
       <r>    4.3789    1.0000 </r>
       <r>    4.8945    1.0000 </r>
       <r>    5.3608    1.0000 </r>
       <r>    6.1254    1.0000 </r>
       <r>    6.4572    1.0000 </r>
       <r>    6.9969    1.0000 </r>
       <r>    8.9984    1.0000 </r>
       <r>    9.2344    1.0000 </r>
       <r>   10.8524    1.0000 </r>
       <r>   12.3211    0.0000 </r>
       <r>   12.5808    0.0000 </r>
       <r>   13.4393    0.0000 </r>
       <r>   13.5328    0.0000 </r>
       <r>   13.7181    0.0000 </r>
      </set>
      <set comment="kpoint 17">
       <r>  -28.4191    1.0000 </r>
       <r>  -12.3316    1.0000 </r>
       <r>  -12.3189    1.0000 </r>
       <r>  -12.2622    1.0000 </r>
       <r>  -12.2539    1.0000 </r>
       <r>  -12.2536    1.0000 </r>
       <r>   -7.1391    1.0000 </r>
       <r>   -6.7633    1.0000 </r>
       <r>   -6.6945    1.0000 </r>
       <r>   -1.2812    1.0000 </r>
       <r>    4.6820    1.0000 </r>
       <r>    4.9520    1.0000 </r>
       <r>    5.5299    1.0000 </r>
       <r>    6.2233    1.0000 </r>
       <r>    6.5880    1.0000 </r>
       <r>    7.3857    1.0000 </r>
       <r>    8.8914    1.0000 </r>
       <r>    9.2819    1.0000 </r>
       <r>   10.8234    1.0000 </r>
       <r>   11.9536    0.0000 </r>
       <r>   12.2779    0.0000 </r>
       <r>   13.2502    0.0000 </r>
       <r>   13.5602    0.0000 </r>
       <r>   13.5980    0.0000 </r>
      </set>
      <set comment="kpoint 18">
       <r>  -28.4234    1.0000 </r>
       <r>  -12.3236    1.0000 </r>
       <r>  -12.3129    1.0000 </r>
       <r>  -12.2598    1.0000 </r>
       <r>  -12.2553    1.0000 </r>
       <r>  -12.2549    1.0000 </r>
       <r>   -7.0055    1.0000 </r>
       <r>   -6.7837    1.0000 </r>
       <r>   -6.7240    1.0000 </r>
       <r>   -1.6850    1.0000 </r>
       <r>    5.0544    1.0000 </r>
       <r>    5.1085    1.0000 </r>
       <r>    5.7661    1.0000 </r>
       <r>    6.2122    1.0000 </r>
       <r>    6.5857    1.0000 </r>
       <r>    7.9250    1.0000 </r>
       <r>    8.8956    1.0000 </r>
       <r>    9.4152    1.0000 </r>
       <r>   10.8833    1.0000 </r>
       <r>   11.6047    0.0000 </r>
       <r>   11.8182    0.0000 </r>
       <r>   12.7086    0.0000 </r>
       <r>   13.5119    0.0000 </r>
       <r>   13.5846    0.0000 </r>
      </set>
      <set comment="kpoint 19">
       <r>  -28.4269    1.0000 </r>
       <r>  -12.3157    1.0000 </r>
       <r>  -12.3095    1.0000 </r>
       <r>  -12.2582    1.0000 </r>
       <r>  -12.2562    1.0000 </r>
       <r>  -12.2559    1.0000 </r>
       <r>   -6.8883    1.0000 </r>
       <r>   -6.7884    1.0000 </r>
       <r>   -6.7532    1.0000 </r>
       <r>   -2.0233    1.0000 </r>
       <r>    5.3511    1.0000 </r>
       <r>    5.4230    1.0000 </r>
       <r>    5.9872    1.0000 </r>
       <r>    6.0818    1.0000 </r>
       <r>    6.4455    1.0000 </r>
       <r>    8.5085    1.0000 </r>
       <r>    9.1501    1.0000 </r>
       <r>    9.5616    1.0000 </r>
       <r>   10.8727    1.0000 </r>
       <r>   11.3605    0.0000 </r>
       <r>   11.3717    0.0000 </r>
       <r>   12.0598    0.0000 </r>
       <r>   13.0092    0.0000 </r>
       <r>   13.6103    0.0000 </r>
      </set>
      <set comment="kpoint 20">
       <r>  -28.4243    1.0000 </r>
       <r>  -12.3244    1.0000 </r>
       <r>  -12.3051    1.0000 </r>
       <r>  -12.2603    1.0000 </r>
       <r>  -12.2548    1.0000 </r>
       <r>  -12.2548    1.0000 </r>
       <r>   -6.9162    1.0000 </r>
       <r>   -6.7924    1.0000 </r>
       <r>   -6.7924    1.0000 </r>
       <r>   -1.7952    1.0000 </r>
       <r>    4.6567    1.0000 </r>
       <r>    5.9771    1.0000 </r>
       <r>    5.9787    1.0000 </r>
       <r>    5.9787    1.0000 </r>
       <r>    6.3256    1.0000 </r>
       <r>    8.3488    1.0000 </r>
       <r>    9.0863    1.0000 </r>
       <r>    9.0863    1.0000 </r>
       <r>   10.6644    1.0000 </r>
       <r>   11.7057    0.0000 </r>
       <r>   12.1447    0.0000 </r>
       <r>   12.1447    0.0000 </r>
       <r>   13.3081    0.0000 </r>
       <r>   13.4505    0.0000 </r>
      </set>
      <set comment="kpoint 21">
       <r>  -28.4212    1.0000 </r>
       <r>  -12.3290    1.0000 </r>
       <r>  -12.3061    1.0000 </r>
       <r>  -12.2621    1.0000 </r>
       <r>  -12.2539    1.0000 </r>
       <r>  -12.2535    1.0000 </r>
       <r>   -7.0076    1.0000 </r>
       <r>   -6.7894    1.0000 </r>
       <r>   -6.7757    1.0000 </r>
       <r>   -1.5396    1.0000 </r>
       <r>    4.3935    1.0000 </r>
       <r>    5.7479    1.0000 </r>
       <r>    5.7936    1.0000 </r>
       <r>    6.1231    1.0000 </r>
       <r>    6.4076    1.0000 </r>
       <r>    8.0285    1.0000 </r>
       <r>    8.9079    1.0000 </r>
       <r>    9.0131    1.0000 </r>
       <r>   10.7750    1.0000 </r>
       <r>   11.7640    0.0000 </r>
       <r>   12.4047    0.0000 </r>
       <r>   12.6908    0.0000 </r>
       <r>   13.3802    0.0000 </r>
       <r>   13.5992    0.0000 </r>
      </set>
      <set comment="kpoint 22">
       <r>  -28.4172    1.0000 </r>
       <r>  -12.3323    1.0000 </r>
       <r>  -12.3111    1.0000 </r>
       <r>  -12.2638    1.0000 </r>
       <r>  -12.2532    1.0000 </r>
       <r>  -12.2520    1.0000 </r>
       <r>   -7.1231    1.0000 </r>
       <r>   -6.7722    1.0000 </r>
       <r>   -6.7504    1.0000 </r>
       <r>   -1.2445    1.0000 </r>
       <r>    4.2646    1.0000 </r>
       <r>    5.3983    1.0000 </r>
       <r>    5.6395    1.0000 </r>
       <r>    6.1215    1.0000 </r>
       <r>    6.4948    1.0000 </r>
       <r>    7.6075    1.0000 </r>
       <r>    8.7592    1.0000 </r>
       <r>    9.0515    1.0000 </r>
       <r>   10.9221    1.0000 </r>
       <r>   11.9703    0.0000 </r>
       <r>   12.6238    0.0000 </r>
       <r>   13.2023    0.0000 </r>
       <r>   13.3501    0.0000 </r>
       <r>   13.7006    0.0000 </r>
      </set>
      <set comment="kpoint 23">
       <r>  -28.4134    1.0000 </r>
       <r>  -12.3334    1.0000 </r>
       <r>  -12.3189    1.0000 </r>
       <r>  -12.2655    1.0000 </r>
       <r>  -12.2530    1.0000 </r>
       <r>  -12.2506    1.0000 </r>
       <r>   -7.2204    1.0000 </r>
       <r>   -6.7447    1.0000 </r>
       <r>   -6.7369    1.0000 </r>
       <r>   -0.9889    1.0000 </r>
       <r>    4.2720    1.0000 </r>
       <r>    5.1316    1.0000 </r>
       <r>    5.4842    1.0000 </r>
       <r>    6.0618    1.0000 </r>
       <r>    6.4835    1.0000 </r>
       <r>    7.2104    1.0000 </r>
       <r>    8.7274    1.0000 </r>
       <r>    9.1333    1.0000 </r>
       <r>   10.9435    1.0000 </r>
       <r>   12.3531    0.0000 </r>
       <r>   12.8005    0.0000 </r>
       <r>   13.3665    0.0000 </r>
       <r>   13.3897    0.0000 </r>
       <r>   13.7685    0.0000 </r>
      </set>
      <set comment="kpoint 24">
       <r>  -28.4105    1.0000 </r>
       <r>  -12.3322    1.0000 </r>
       <r>  -12.3275    1.0000 </r>
       <r>  -12.2667    1.0000 </r>
       <r>  -12.2529    1.0000 </r>
       <r>  -12.2498    1.0000 </r>
       <r>   -7.2829    1.0000 </r>
       <r>   -6.7398    1.0000 </r>
       <r>   -6.7131    1.0000 </r>
       <r>   -0.8168    1.0000 </r>
       <r>    4.3519    1.0000 </r>
       <r>    5.0156    1.0000 </r>
       <r>    5.2864    1.0000 </r>
       <r>    6.0697    1.0000 </r>
       <r>    6.3814    1.0000 </r>
       <r>    6.9310    1.0000 </r>
       <r>    8.7591    1.0000 </r>
       <r>    9.1814    1.0000 </r>
       <r>   11.0245    1.0000 </r>
       <r>   12.5284    0.0000 </r>
       <r>   12.9152    0.0000 </r>
       <r>   13.3937    0.0000 </r>
       <r>   13.4014    0.0000 </r>
       <r>   13.7847    0.0000 </r>
      </set>
      <set comment="kpoint 25">
       <r>  -28.4093    1.0000 </r>
       <r>  -12.3351    1.0000 </r>
       <r>  -12.3291    1.0000 </r>
       <r>  -12.2669    1.0000 </r>
       <r>  -12.2530    1.0000 </r>
       <r>  -12.2498    1.0000 </r>
       <r>   -7.3059    1.0000 </r>
       <r>   -6.7575    1.0000 </r>
       <r>   -6.6844    1.0000 </r>
       <r>   -0.7338    1.0000 </r>
       <r>    4.3923    1.0000 </r>
       <r>    5.0670    1.0000 </r>
       <r>    5.0693    1.0000 </r>
       <r>    6.1818    1.0000 </r>
       <r>    6.2368    1.0000 </r>
       <r>    6.8245    1.0000 </r>
       <r>    8.7750    1.0000 </r>
       <r>    9.1735    1.0000 </r>
       <r>   11.1691    0.0000 </r>
       <r>   12.4254    0.0000 </r>
       <r>   12.9247    0.0000 </r>
       <r>   13.4256    0.0000 </r>
       <r>   13.4780    0.0000 </r>
       <r>   13.7116    0.0000 </r>
      </set>
      <set comment="kpoint 26">
       <r>  -28.4099    1.0000 </r>
       <r>  -12.3399    1.0000 </r>
       <r>  -12.3248    1.0000 </r>
       <r>  -12.2659    1.0000 </r>
       <r>  -12.2531    1.0000 </r>
       <r>  -12.2505    1.0000 </r>
       <r>   -7.2908    1.0000 </r>
       <r>   -6.7835    1.0000 </r>
       <r>   -6.6651    1.0000 </r>
       <r>   -0.7390    1.0000 </r>
       <r>    4.3631    1.0000 </r>
       <r>    4.8892    1.0000 </r>
       <r>    5.2315    1.0000 </r>
       <r>    6.1203    1.0000 </r>
       <r>    6.3626    1.0000 </r>
       <r>    6.8975    1.0000 </r>
       <r>    8.7124    1.0000 </r>
       <r>    9.1357    1.0000 </r>
       <r>   11.2184    0.0000 </r>
       <r>   12.4753    0.0000 </r>
       <r>   12.7802    0.0000 </r>
       <r>   13.4460    0.0000 </r>
       <r>   13.4951    0.0000 </r>
       <r>   13.7322    0.0000 </r>
      </set>
      <set comment="kpoint 27">
       <r>  -28.4123    1.0000 </r>
       <r>  -12.3410    1.0000 </r>
       <r>  -12.3201    1.0000 </r>
       <r>  -12.2642    1.0000 </r>
       <r>  -12.2534    1.0000 </r>
       <r>  -12.2517    1.0000 </r>
       <r>   -7.2412    1.0000 </r>
       <r>   -6.8086    1.0000 </r>
       <r>   -6.6598    1.0000 </r>
       <r>   -0.8492    1.0000 </r>
       <r>    4.3459    1.0000 </r>
       <r>    4.7879    1.0000 </r>
       <r>    5.4462    1.0000 </r>
       <r>    6.0723    1.0000 </r>
       <r>    6.5524    1.0000 </r>
       <r>    7.1225    1.0000 </r>
       <r>    8.5593    1.0000 </r>
       <r>    9.1179    1.0000 </r>
       <r>   11.1950    0.0000 </r>
       <r>   12.4912    0.0000 </r>
       <r>   12.5832    0.0000 </r>
       <r>   13.4403    0.0000 </r>
       <r>   13.4734    0.0000 </r>
       <r>   13.7957    0.0000 </r>
      </set>
      <set comment="kpoint 28">
       <r>  -28.4159    1.0000 </r>
       <r>  -12.3381    1.0000 </r>
       <r>  -12.3158    1.0000 </r>
       <r>  -12.2625    1.0000 </r>
       <r>  -12.2537    1.0000 </r>
       <r>  -12.2530    1.0000 </r>
       <r>   -7.1652    1.0000 </r>
       <r>   -6.8224    1.0000 </r>
       <r>   -6.6698    1.0000 </r>
       <r>   -1.0756    1.0000 </r>
       <r>    4.4439    1.0000 </r>
       <r>    4.7885    1.0000 </r>
       <r>    5.6806    1.0000 </r>
       <r>    6.0672    1.0000 </r>
       <r>    6.6796    1.0000 </r>
       <r>    7.4649    1.0000 </r>
       <r>    8.3799    1.0000 </r>
       <r>    9.1706    1.0000 </r>
       <r>   11.2011    0.0000 </r>
       <r>   12.1317    0.0000 </r>
       <r>   12.4475    0.0000 </r>
       <r>   13.3643    0.0000 </r>
       <r>   13.5052    0.0000 </r>
       <r>   13.7367    0.0000 </r>
      </set>
      <set comment="kpoint 29">
       <r>  -28.4199    1.0000 </r>
       <r>  -12.3319    1.0000 </r>
       <r>  -12.3132    1.0000 </r>
       <r>  -12.2610    1.0000 </r>
       <r>  -12.2543    1.0000 </r>
       <r>  -12.2542    1.0000 </r>
       <r>   -7.0793    1.0000 </r>
       <r>   -6.8146    1.0000 </r>
       <r>   -6.6930    1.0000 </r>
       <r>   -1.3823    1.0000 </r>
       <r>    4.6952    1.0000 </r>
       <r>    4.8981    1.0000 </r>
       <r>    5.9031    1.0000 </r>
       <r>    6.0327    1.0000 </r>
       <r>    6.6907    1.0000 </r>
       <r>    7.7963    1.0000 </r>
       <r>    8.4025    1.0000 </r>
       <r>    9.2989    1.0000 </r>
       <r>   11.1722    0.0000 </r>
       <r>   11.7987    0.0000 </r>
       <r>   12.0915    0.0000 </r>
       <r>   13.1460    0.0000 </r>
       <r>   13.5414    0.0000 </r>
       <r>   13.5778    0.0000 </r>
      </set>
      <set comment="kpoint 30">
       <r>  -28.4189    1.0000 </r>
       <r>  -12.3297    1.0000 </r>
       <r>  -12.3023    1.0000 </r>
       <r>  -12.2641    1.0000 </r>
       <r>  -12.2524    1.0000 </r>
       <r>  -12.2524    1.0000 </r>
       <r>   -7.0210    1.0000 </r>
       <r>   -6.8033    1.0000 </r>
       <r>   -6.8033    1.0000 </r>
       <r>   -1.4320    1.0000 </r>
       <r>    4.2009    1.0000 </r>
       <r>    5.9147    1.0000 </r>
       <r>    5.9147    1.0000 </r>
       <r>    6.0481    1.0000 </r>
       <r>    6.1506    1.0000 </r>
       <r>    8.0365    1.0000 </r>
       <r>    8.9595    1.0000 </r>
       <r>    8.9595    1.0000 </r>
       <r>   10.5102    1.0000 </r>
       <r>   12.2334    0.0000 </r>
       <r>   12.6165    0.0000 </r>
       <r>   12.6165    0.0000 </r>
       <r>   13.2606    0.0000 </r>
       <r>   13.6758    0.0000 </r>
      </set>
      <set comment="kpoint 31">
       <r>  -28.4157    1.0000 </r>
       <r>  -12.3284    1.0000 </r>
       <r>  -12.3032    1.0000 </r>
       <r>  -12.2660    1.0000 </r>
       <r>  -12.2514    1.0000 </r>
       <r>  -12.2509    1.0000 </r>
       <r>   -7.0908    1.0000 </r>
       <r>   -6.8010    1.0000 </r>
       <r>   -6.7973    1.0000 </r>
       <r>   -1.2906    1.0000 </r>
       <r>    4.1882    1.0000 </r>
       <r>    5.6285    1.0000 </r>
       <r>    5.7984    1.0000 </r>
       <r>    6.0890    1.0000 </r>
       <r>    6.2297    1.0000 </r>
       <r>    7.8514    1.0000 </r>
       <r>    8.8272    1.0000 </r>
       <r>    9.0172    1.0000 </r>
       <r>   10.6818    1.0000 </r>
       <r>   12.2559    0.0000 </r>
       <r>   12.7821    0.0000 </r>
       <r>   13.0025    0.0000 </r>
       <r>   13.1913    0.0000 </r>
       <r>   13.7493    0.0000 </r>
      </set>
      <set comment="kpoint 32">
       <r>  -28.4124    1.0000 </r>
       <r>  -12.3253    1.0000 </r>
       <r>  -12.3084    1.0000 </r>
       <r>  -12.2671    1.0000 </r>
       <r>  -12.2513    1.0000 </r>
       <r>  -12.2495    1.0000 </r>
       <r>   -7.1646    1.0000 </r>
       <r>   -6.7937    1.0000 </r>
       <r>   -6.7833    1.0000 </r>
       <r>   -1.1621    1.0000 </r>
       <r>    4.3463    1.0000 </r>
       <r>    5.3143    1.0000 </r>
       <r>    5.6256    1.0000 </r>
       <r>    6.0995    1.0000 </r>
       <r>    6.3410    1.0000 </r>
       <r>    7.5587    1.0000 </r>
       <r>    8.6273    1.0000 </r>
       <r>    9.1110    1.0000 </r>
       <r>   10.8956    1.0000 </r>
       <r>   12.3924    0.0000 </r>
       <r>   12.9121    0.0000 </r>
       <r>   13.2144    0.0000 </r>
       <r>   13.2881    0.0000 </r>
       <r>   13.7954    0.0000 </r>
      </set>
      <set comment="kpoint 33">
       <r>  -28.4097    1.0000 </r>
       <r>  -12.3213    1.0000 </r>
       <r>  -12.3166    1.0000 </r>
       <r>  -12.2672    1.0000 </r>
       <r>  -12.2521    1.0000 </r>
       <r>  -12.2486    1.0000 </r>
       <r>   -7.2129    1.0000 </r>
       <r>   -6.8097    1.0000 </r>
       <r>   -6.7541    1.0000 </r>
       <r>   -1.0620    1.0000 </r>
       <r>    4.5929    1.0000 </r>
       <r>    5.1247    1.0000 </r>
       <r>    5.3986    1.0000 </r>
       <r>    6.1520    1.0000 </r>
       <r>    6.3795    1.0000 </r>
       <r>    7.2469    1.0000 </r>
       <r>    8.5062    1.0000 </r>
       <r>    9.1484    1.0000 </r>
       <r>   10.9975    1.0000 </r>
       <r>   12.5195    0.0000 </r>
       <r>   13.0099    0.0000 </r>
       <r>   13.3057    0.0000 </r>
       <r>   13.3513    0.0000 </r>
       <r>   13.8073    0.0000 </r>
      </set>
      <set comment="kpoint 34">
       <r>  -28.4082    1.0000 </r>
       <r>  -12.3258    1.0000 </r>
       <r>  -12.3176    1.0000 </r>
       <r>  -12.2660    1.0000 </r>
       <r>  -12.2537    1.0000 </r>
       <r>  -12.2486    1.0000 </r>
       <r>   -7.2291    1.0000 </r>
       <r>   -6.8429    1.0000 </r>
       <r>   -6.7199    1.0000 </r>
       <r>   -0.9814    1.0000 </r>
       <r>    4.7644    1.0000 </r>
       <r>    5.0845    1.0000 </r>
       <r>    5.1525    1.0000 </r>
       <r>    6.2708    1.0000 </r>
       <r>    6.3271    1.0000 </r>
       <r>    7.0654    1.0000 </r>
       <r>    8.4252    1.0000 </r>
       <r>    9.1088    1.0000 </r>
       <r>   11.1439    0.0000 </r>
       <r>   12.3721    0.0000 </r>
       <r>   13.0517    0.0000 </r>
       <r>   13.3808    0.0000 </r>
       <r>   13.4388    0.0000 </r>
       <r>   13.7733    0.0000 </r>
      </set>
      <set comment="kpoint 35">
       <r>  -28.4082    1.0000 </r>
       <r>  -12.3340    1.0000 </r>
       <r>  -12.3151    1.0000 </r>
       <r>  -12.2638    1.0000 </r>
       <r>  -12.2553    1.0000 </r>
       <r>  -12.2492    1.0000 </r>
       <r>   -7.2192    1.0000 </r>
       <r>   -6.8793    1.0000 </r>
       <r>   -6.6883    1.0000 </r>
       <r>   -0.9149    1.0000 </r>
       <r>    4.7310    1.0000 </r>
       <r>    4.9357    1.0000 </r>
       <r>    5.1607    1.0000 </r>
       <r>    6.2255    1.0000 </r>
       <r>    6.4330    1.0000 </r>
       <r>    7.1134    1.0000 </r>
       <r>    8.3214    1.0000 </r>
       <r>    9.0371    1.0000 </r>
       <r>   11.3421    0.0000 </r>
       <r>   12.2454    0.0000 </r>
       <r>   12.9789    0.0000 </r>
       <r>   13.4056    0.0000 </r>
       <r>   13.5138    0.0000 </r>
       <r>   13.7438    0.0000 </r>
      </set>
      <set comment="kpoint 36">
       <r>  -28.4098    1.0000 </r>
       <r>  -12.3395    1.0000 </r>
       <r>  -12.3139    1.0000 </r>
       <r>  -12.2621    1.0000 </r>
       <r>  -12.2558    1.0000 </r>
       <r>  -12.2504    1.0000 </r>
       <r>   -7.1982    1.0000 </r>
       <r>   -6.8967    1.0000 </r>
       <r>   -6.6665    1.0000 </r>
       <r>   -0.8836    1.0000 </r>
       <r>    4.5468    1.0000 </r>
       <r>    4.7871    1.0000 </r>
       <r>    5.3191    1.0000 </r>
       <r>    6.1460    1.0000 </r>
       <r>    6.5904    1.0000 </r>
       <r>    7.3314    1.0000 </r>
       <r>    8.1649    1.0000 </r>
       <r>    8.9991    1.0000 </r>
       <r>   11.4531    0.0000 </r>
       <r>   12.3107    0.0000 </r>
       <r>   12.7511    0.0000 </r>
       <r>   13.4269    0.0000 </r>
       <r>   13.5476    0.0000 </r>
       <r>   13.7565    0.0000 </r>
      </set>
      <set comment="kpoint 37">
       <r>  -28.4126    1.0000 </r>
       <r>  -12.3409    1.0000 </r>
       <r>  -12.3142    1.0000 </r>
       <r>  -12.2621    1.0000 </r>
       <r>  -12.2548    1.0000 </r>
       <r>  -12.2518    1.0000 </r>
       <r>   -7.1808    1.0000 </r>
       <r>   -6.8759    1.0000 </r>
       <r>   -6.6597    1.0000 </r>
       <r>   -0.9300    1.0000 </r>
       <r>    4.4031    1.0000 </r>
       <r>    4.7333    1.0000 </r>
       <r>    5.5278    1.0000 </r>
       <r>    6.0907    1.0000 </r>
       <r>    6.6842    1.0000 </r>
       <r>    7.5365    1.0000 </r>
       <r>    8.0763    1.0000 </r>
       <r>    9.0462    1.0000 </r>
       <r>   11.4176    0.0000 </r>
       <r>   12.4124    0.0000 </r>
       <r>   12.4337    0.0000 </r>
       <r>   13.4612    0.0000 </r>
       <r>   13.4911    0.0000 </r>
       <r>   13.8211    0.0000 </r>
      </set>
      <set comment="kpoint 38">
       <r>  -28.4134    1.0000 </r>
       <r>  -12.3222    1.0000 </r>
       <r>  -12.2994    1.0000 </r>
       <r>  -12.2682    1.0000 </r>
       <r>  -12.2495    1.0000 </r>
       <r>  -12.2495    1.0000 </r>
       <r>   -7.1080    1.0000 </r>
       <r>   -6.8155    1.0000 </r>
       <r>   -6.8155    1.0000 </r>
       <r>   -1.3126    1.0000 </r>
       <r>    4.3002    1.0000 </r>
       <r>    5.7799    1.0000 </r>
       <r>    5.7799    1.0000 </r>
       <r>    5.8886    1.0000 </r>
       <r>    6.1270    1.0000 </r>
       <r>    7.7995    1.0000 </r>
       <r>    9.0980    1.0000 </r>
       <r>    9.0980    1.0000 </r>
       <r>   10.5082    1.0000 </r>
       <r>   12.5590    0.0000 </r>
       <r>   12.9022    0.0000 </r>
       <r>   12.9022    0.0000 </r>
       <r>   13.0524    0.0000 </r>
       <r>   13.7983    0.0000 </r>
      </set>
      <set comment="kpoint 39">
       <r>  -28.4108    1.0000 </r>
       <r>  -12.3151    1.0000 </r>
       <r>  -12.3005    1.0000 </r>
       <r>  -12.2697    1.0000 </r>
       <r>  -12.2487    1.0000 </r>
       <r>  -12.2482    1.0000 </r>
       <r>   -7.1485    1.0000 </r>
       <r>   -6.8225    1.0000 </r>
       <r>   -6.8126    1.0000 </r>
       <r>   -1.3169    1.0000 </r>
       <r>    4.5760    1.0000 </r>
       <r>    5.4818    1.0000 </r>
       <r>    5.6656    1.0000 </r>
       <r>    6.0120    1.0000 </r>
       <r>    6.1604    1.0000 </r>
       <r>    7.6078    1.0000 </r>
       <r>    9.0108    1.0000 </r>
       <r>    9.2159    1.0000 </r>
       <r>   10.6980    1.0000 </r>
       <r>   12.5883    0.0000 </r>
       <r>   12.9777    0.0000 </r>
       <r>   13.0393    0.0000 </r>
       <r>   13.1354    0.0000 </r>
       <r>   13.8283    0.0000 </r>
      </set>
      <set comment="kpoint 40">
       <r>  -28.4086    1.0000 </r>
       <r>  -12.3089    1.0000 </r>
       <r>  -12.3061    1.0000 </r>
       <r>  -12.2698    1.0000 </r>
       <r>  -12.2494    1.0000 </r>
       <r>  -12.2473    1.0000 </r>
       <r>   -7.1729    1.0000 </r>
       <r>   -6.8495    1.0000 </r>
       <r>   -6.7930    1.0000 </r>
       <r>   -1.2951    1.0000 </r>
       <r>    4.8977    1.0000 </r>
       <r>    5.2808    1.0000 </r>
       <r>    5.4850    1.0000 </r>
       <r>    6.1674    1.0000 </r>
       <r>    6.2158    1.0000 </r>
       <r>    7.3419    1.0000 </r>
       <r>    8.7315    1.0000 </r>
       <r>    9.2488    1.0000 </r>
       <r>   10.8893    1.0000 </r>
       <r>   12.6220    0.0000 </r>
       <r>   13.0402    0.0000 </r>
       <r>   13.1763    0.0000 </r>
       <r>   13.2706    0.0000 </r>
       <r>   13.8027    0.0000 </r>
      </set>
      <set comment="kpoint 41">
       <r>  -28.4072    1.0000 </r>
       <r>  -12.3149    1.0000 </r>
       <r>  -12.3053    1.0000 </r>
       <r>  -12.2680    1.0000 </r>
       <r>  -12.2516    1.0000 </r>
       <r>  -12.2472    1.0000 </r>
       <r>   -7.1661    1.0000 </r>
       <r>   -6.9032    1.0000 </r>
       <r>   -6.7612    1.0000 </r>
       <r>   -1.2333    1.0000 </r>
       <r>    4.9872    1.0000 </r>
       <r>    5.2669    1.0000 </r>
       <r>    5.3628    1.0000 </r>
       <r>    6.2702    1.0000 </r>
       <r>    6.3158    1.0000 </r>
       <r>    7.1188    1.0000 </r>
       <r>    8.4399    1.0000 </r>
       <r>    9.1671    1.0000 </r>
       <r>   11.0207    1.0000 </r>
       <r>   12.4987    0.0000 </r>
       <r>   13.0997    0.0000 </r>
       <r>   13.3355    0.0000 </r>
       <r>   13.3427    0.0000 </r>
       <r>   13.7744    0.0000 </r>
      </set>
      <set comment="kpoint 42">
       <r>  -28.4069    1.0000 </r>
       <r>  -12.3248    1.0000 </r>
       <r>  -12.3054    1.0000 </r>
       <r>  -12.2645    1.0000 </r>
       <r>  -12.2548    1.0000 </r>
       <r>  -12.2479    1.0000 </r>
       <r>   -7.1381    1.0000 </r>
       <r>   -6.9644    1.0000 </r>
       <r>   -6.7240    1.0000 </r>
       <r>   -1.1271    1.0000 </r>
       <r>    4.9890    1.0000 </r>
       <r>    5.0532    1.0000 </r>
       <r>    5.3433    1.0000 </r>
       <r>    6.2620    1.0000 </r>
       <r>    6.4413    1.0000 </r>
       <r>    7.1516    1.0000 </r>
       <r>    8.1871    1.0000 </r>
       <r>    9.0428    1.0000 </r>
       <r>   11.2213    0.0000 </r>
       <r>   12.3053    0.0000 </r>
       <r>   13.1095    0.0000 </r>
       <r>   13.3966    0.0000 </r>
       <r>   13.4080    0.0000 </r>
       <r>   13.7886    0.0000 </r>
      </set>
      <set comment="kpoint 43">
       <r>  -28.4079    1.0000 </r>
       <r>  -12.3336    1.0000 </r>
       <r>  -12.3087    1.0000 </r>
       <r>  -12.2607    1.0000 </r>
       <r>  -12.2578    1.0000 </r>
       <r>  -12.2490    1.0000 </r>
       <r>   -7.1445    1.0000 </r>
       <r>   -6.9684    1.0000 </r>
       <r>   -6.6898    1.0000 </r>
       <r>   -0.9951    1.0000 </r>
       <r>    4.8812    1.0000 </r>
       <r>    4.8828    1.0000 </r>
       <r>    5.2101    1.0000 </r>
       <r>    6.2101    1.0000 </r>
       <r>    6.5483    1.0000 </r>
       <r>    7.3547    1.0000 </r>
       <r>    8.0257    1.0000 </r>
       <r>    8.9682    1.0000 </r>
       <r>   11.4495    0.0000 </r>
       <r>   12.1933    0.0000 </r>
       <r>   12.9944    0.0000 </r>
       <r>   13.4034    0.0000 </r>
       <r>   13.4861    0.0000 </r>
       <r>   13.7514    0.0000 </r>
      </set>
      <set comment="kpoint 44">
       <r>  -28.4091    1.0000 </r>
       <r>  -12.3052    1.0000 </r>
       <r>  -12.2969    1.0000 </r>
       <r>  -12.2717    1.0000 </r>
       <r>  -12.2469    1.0000 </r>
       <r>  -12.2469    1.0000 </r>
       <r>   -7.1671    1.0000 </r>
       <r>   -6.8261    1.0000 </r>
       <r>   -6.8261    1.0000 </r>
       <r>   -1.4276    1.0000 </r>
       <r>    4.9379    1.0000 </r>
       <r>    5.6347    1.0000 </r>
       <r>    5.6347    1.0000 </r>
       <r>    5.6716    1.0000 </r>
       <r>    6.1955    1.0000 </r>
       <r>    7.4345    1.0000 </r>
       <r>    9.3853    1.0000 </r>
       <r>    9.3853    1.0000 </r>
       <r>   10.6077    1.0000 </r>
       <r>   12.7885    0.0000 </r>
       <r>   12.8762    0.0000 </r>
       <r>   13.0542    0.0000 </r>
       <r>   13.0542    0.0000 </r>
       <r>   13.8019    0.0000 </r>
      </set>
      <set comment="kpoint 45">
       <r>  -28.4075    1.0000 </r>
       <r>  -12.2985    1.0000 </r>
       <r>  -12.2979    1.0000 </r>
       <r>  -12.2724    1.0000 </r>
       <r>  -12.2467    1.0000 </r>
       <r>  -12.2461    1.0000 </r>
       <r>   -7.1804    1.0000 </r>
       <r>   -6.8429    1.0000 </r>
       <r>   -6.8211    1.0000 </r>
       <r>   -1.4715    1.0000 </r>
       <r>    5.2296    1.0000 </r>
       <r>    5.5058    1.0000 </r>
       <r>    5.5389    1.0000 </r>
       <r>    5.8450    1.0000 </r>
       <r>    6.2334    1.0000 </r>
       <r>    7.1582    1.0000 </r>
       <r>    9.2840    1.0000 </r>
       <r>    9.4587    1.0000 </r>
       <r>   10.7519    1.0000 </r>
       <r>   12.8093    0.0000 </r>
       <r>   12.9063    0.0000 </r>
       <r>   13.1166    0.0000 </r>
       <r>   13.1742    0.0000 </r>
       <r>   13.7168    0.0000 </r>
      </set>
      <set comment="kpoint 46">
       <r>  -28.4065    1.0000 </r>
       <r>  -12.3048    1.0000 </r>
       <r>  -12.2952    1.0000 </r>
       <r>  -12.2711    1.0000 </r>
       <r>  -12.2484    1.0000 </r>
       <r>  -12.2460    1.0000 </r>
       <r>   -7.1645    1.0000 </r>
       <r>   -6.8925    1.0000 </r>
       <r>   -6.7987    1.0000 </r>
       <r>   -1.4341    1.0000 </r>
       <r>    5.1037    1.0000 </r>
       <r>    5.3884    1.0000 </r>
       <r>    5.7840    1.0000 </r>
       <r>    6.0738    1.0000 </r>
       <r>    6.3026    1.0000 </r>
       <r>    6.8856    1.0000 </r>
       <r>    8.8935    1.0000 </r>
       <r>    9.3568    1.0000 </r>
       <r>   10.8767    1.0000 </r>
       <r>   12.7102    0.0000 </r>
       <r>   13.0510    0.0000 </r>
       <r>   13.2398    0.0000 </r>
       <r>   13.2433    0.0000 </r>
       <r>   13.7254    0.0000 </r>
      </set>
      <set comment="kpoint 47">
       <r>  -28.4063    1.0000 </r>
       <r>  -12.3142    1.0000 </r>
       <r>  -12.2981    1.0000 </r>
       <r>  -12.2680    1.0000 </r>
       <r>  -12.2515    1.0000 </r>
       <r>  -12.2467    1.0000 </r>
       <r>   -7.1253    1.0000 </r>
       <r>   -6.9612    1.0000 </r>
       <r>   -6.7638    1.0000 </r>
       <r>   -1.3137    1.0000 </r>
       <r>    5.0181    1.0000 </r>
       <r>    5.2148    1.0000 </r>
       <r>    5.7399    1.0000 </r>
       <r>    6.2282    1.0000 </r>
       <r>    6.3860    1.0000 </r>
       <r>    6.9144    1.0000 </r>
       <r>    8.4545    1.0000 </r>
       <r>    9.1733    1.0000 </r>
       <r>   11.0216    1.0000 </r>
       <r>   12.5095    0.0000 </r>
       <r>   13.1182    0.0000 </r>
       <r>   13.2967    0.0000 </r>
       <r>   13.3910    0.0000 </r>
       <r>   13.7525    0.0000 </r>
      </set>
      <set comment="kpoint 48">
       <r>  -28.4067    1.0000 </r>
       <r>  -12.2956    1.0000 </r>
       <r>  -12.2911    1.0000 </r>
       <r>  -12.2737    1.0000 </r>
       <r>  -12.2454    1.0000 </r>
       <r>  -12.2454    1.0000 </r>
       <r>   -7.1967    1.0000 </r>
       <r>   -6.8323    1.0000 </r>
       <r>   -6.8323    1.0000 </r>
       <r>   -1.5611    1.0000 </r>
       <r>    5.4847    1.0000 </r>
       <r>    5.5452    1.0000 </r>
       <r>    5.5452    1.0000 </r>
       <r>    5.8613    1.0000 </r>
       <r>    6.2355    1.0000 </r>
       <r>    6.8584    1.0000 </r>
       <r>    9.6203    1.0000 </r>
       <r>    9.6203    1.0000 </r>
       <r>   10.7128    1.0000 </r>
       <r>   12.7755    0.0000 </r>
       <r>   12.9570    0.0000 </r>
       <r>   13.1243    0.0000 </r>
       <r>   13.1243    0.0000 </r>
       <r>   13.5090    0.0000 </r>
      </set>
      <set comment="kpoint 49">
       <r>  -28.4063    1.0000 </r>
       <r>  -12.2978    1.0000 </r>
       <r>  -12.2900    1.0000 </r>
       <r>  -12.2733    1.0000 </r>
       <r>  -12.2460    1.0000 </r>
       <r>  -12.2454    1.0000 </r>
       <r>   -7.1903    1.0000 </r>
       <r>   -6.8509    1.0000 </r>
       <r>   -6.8242    1.0000 </r>
       <r>   -1.5487    1.0000 </r>
       <r>    5.2712    1.0000 </r>
       <r>    5.4906    1.0000 </r>
       <r>    5.7828    1.0000 </r>
       <r>    6.0835    1.0000 </r>
       <r>    6.2614    1.0000 </r>
       <r>    6.6622    1.0000 </r>
       <r>    9.4171    1.0000 </r>
       <r>    9.5685    1.0000 </r>
       <r>   10.7745    1.0000 </r>
       <r>   12.8743    0.0000 </r>
       <r>   12.9022    0.0000 </r>
       <r>   13.1554    0.0000 </r>
       <r>   13.1725    0.0000 </r>
       <r>   13.5897    0.0000 </r>
      </set>
      <set comment="kpoint 50">
       <r>  -28.4231    1.0000 </r>
       <r>  -12.3258    1.0000 </r>
       <r>  -12.3089    1.0000 </r>
       <r>  -12.2604    1.0000 </r>
       <r>  -12.2548    1.0000 </r>
       <r>  -12.2546    1.0000 </r>
       <r>   -6.9849    1.0000 </r>
       <r>   -6.7982    1.0000 </r>
       <r>   -6.7415    1.0000 </r>
       <r>   -1.6746    1.0000 </r>
       <r>    4.6938    1.0000 </r>
       <r>    5.4573    1.0000 </r>
       <r>    5.9791    1.0000 </r>
       <r>    6.0469    1.0000 </r>
       <r>    6.5391    1.0000 </r>
       <r>    8.0936    1.0000 </r>
       <r>    8.7777    1.0000 </r>
       <r>    9.2819    1.0000 </r>
       <r>   11.0324    1.0000 </r>
       <r>   11.4150    0.0000 </r>
       <r>   12.0457    0.0000 </r>
       <r>   12.6600    0.0000 </r>
       <r>   13.4589    0.0000 </r>
       <r>   13.5140    0.0000 </r>
      </set>
      <set comment="kpoint 51">
       <r>  -28.4192    1.0000 </r>
       <r>  -12.3321    1.0000 </r>
       <r>  -12.3125    1.0000 </r>
       <r>  -12.2621    1.0000 </r>
       <r>  -12.2540    1.0000 </r>
       <r>  -12.2534    1.0000 </r>
       <r>   -7.0937    1.0000 </r>
       <r>   -6.7984    1.0000 </r>
       <r>   -6.7111    1.0000 </r>
       <r>   -1.3426    1.0000 </r>
       <r>    4.4557    1.0000 </r>
       <r>    5.1825    1.0000 </r>
       <r>    5.7664    1.0000 </r>
       <r>    6.1143    1.0000 </r>
       <r>    6.6075    1.0000 </r>
       <r>    7.6881    1.0000 </r>
       <r>    8.6065    1.0000 </r>
       <r>    9.2040    1.0000 </r>
       <r>   11.0495    1.0000 </r>
       <r>   11.7734    0.0000 </r>
       <r>   12.3633    0.0000 </r>
       <r>   13.1387    0.0000 </r>
       <r>   13.4527    0.0000 </r>
       <r>   13.6542    0.0000 </r>
      </set>
      <set comment="kpoint 52">
       <r>  -28.4151    1.0000 </r>
       <r>  -12.3366    1.0000 </r>
       <r>  -12.3184    1.0000 </r>
       <r>  -12.2640    1.0000 </r>
       <r>  -12.2534    1.0000 </r>
       <r>  -12.2520    1.0000 </r>
       <r>   -7.1996    1.0000 </r>
       <r>   -6.7815    1.0000 </r>
       <r>   -6.6884    1.0000 </r>
       <r>   -1.0268    1.0000 </r>
       <r>    4.3253    1.0000 </r>
       <r>    4.9849    1.0000 </r>
       <r>    5.5570    1.0000 </r>
       <r>    6.0845    1.0000 </r>
       <r>    6.5656    1.0000 </r>
       <r>    7.2639    1.0000 </r>
       <r>    8.6711    1.0000 </r>
       <r>    9.1659    1.0000 </r>
       <r>   11.0134    1.0000 </r>
       <r>   12.1929    0.0000 </r>
       <r>   12.6392    0.0000 </r>
       <r>   13.3524    0.0000 </r>
       <r>   13.4776    0.0000 </r>
       <r>   13.7358    0.0000 </r>
      </set>
      <set comment="kpoint 53">
       <r>  -28.4117    1.0000 </r>
       <r>  -12.3385    1.0000 </r>
[...]
       <r>   11.5337    0.0000 </r>
       <r>   11.9748    0.0000 </r>
       <r>   13.0639    0.0000 </r>
       <r>   13.2990    0.0000 </r>
       <r>   13.4910    0.0000 </r>
       <r>   13.7039    0.0000 </r>
      </set>
      <set comment="kpoint 81">
       <r>  -28.4073    1.0000 </r>
       <r>  -12.3282    1.0000 </r>
       <r>  -12.3026    1.0000 </r>
       <r>  -12.2629    1.0000 </r>
       <r>  -12.2576    1.0000 </r>
       <r>  -12.2469    1.0000 </r>
       <r>   -7.1290    1.0000 </r>
       <r>   -6.9476    1.0000 </r>
       <r>   -6.7464    1.0000 </r>
       <r>   -1.1186    1.0000 </r>
       <r>    4.8047    1.0000 </r>
       <r>    5.1955    1.0000 </r>
       <r>    5.4073    1.0000 </r>
       <r>    6.1896    1.0000 </r>
       <r>    6.5034    1.0000 </r>
       <r>    7.3371    1.0000 </r>
       <r>    7.7018    1.0000 </r>
       <r>    9.3701    1.0000 </r>
       <r>   11.5995    0.0000 </r>
       <r>   11.9347    0.0000 </r>
       <r>   13.0531    0.0000 </r>
       <r>   13.2956    0.0000 </r>
       <r>   13.5053    0.0000 </r>
       <r>   13.6982    0.0000 </r>
      </set>
      <set comment="kpoint 82">
       <r>  -28.4063    1.0000 </r>
       <r>  -12.3145    1.0000 </r>
       <r>  -12.2925    1.0000 </r>
       <r>  -12.2690    1.0000 </r>
       <r>  -12.2525    1.0000 </r>
       <r>  -12.2452    1.0000 </r>
       <r>   -7.1321    1.0000 </r>
       <r>   -6.8987    1.0000 </r>
       <r>   -6.8250    1.0000 </r>
       <r>   -1.3608    1.0000 </r>
       <r>    4.9063    1.0000 </r>
       <r>    5.5234    1.0000 </r>
       <r>    5.7975    1.0000 </r>
       <r>    6.0614    1.0000 </r>
       <r>    6.4467    1.0000 </r>
       <r>    6.9250    1.0000 </r>
       <r>    8.0769    1.0000 </r>
       <r>    9.6857    1.0000 </r>
       <r>   11.1698    0.0000 </r>
       <r>   12.4368    0.0000 </r>
       <r>   12.9561    0.0000 </r>
       <r>   13.1651    0.0000 </r>
       <r>   13.3570    0.0000 </r>
       <r>   13.7380    0.0000 </r>
      </set>
      <set comment="kpoint 83">
       <r>  -28.4060    1.0000 </r>
       <r>  -12.3203    1.0000 </r>
       <r>  -12.2925    1.0000 </r>
       <r>  -12.2662    1.0000 </r>
       <r>  -12.2559    1.0000 </r>
       <r>  -12.2451    1.0000 </r>
       <r>   -7.0951    1.0000 </r>
       <r>   -6.9476    1.0000 </r>
       <r>   -6.8134    1.0000 </r>
       <r>   -1.3013    1.0000 </r>
       <r>    4.8350    1.0000 </r>
       <r>    5.4693    1.0000 </r>
       <r>    5.8433    1.0000 </r>
       <r>    6.1261    1.0000 </r>
       <r>    6.5346    1.0000 </r>
       <r>    6.9485    1.0000 </r>
       <r>    7.7046    1.0000 </r>
       <r>    9.6605    1.0000 </r>
       <r>   11.3653    0.0000 </r>
       <r>   12.2213    0.0000 </r>
       <r>   12.9959    0.0000 </r>
       <r>   13.1973    0.0000 </r>
       <r>   13.4342    0.0000 </r>
       <r>   13.7579    0.0000 </r>
      </set>
      <set comment="kpoint 84">
       <r>  -28.4060    1.0000 </r>
       <r>  -12.3235    1.0000 </r>
       <r>  -12.2926    1.0000 </r>
       <r>  -12.2638    1.0000 </r>
       <r>  -12.2588    1.0000 </r>
       <r>  -12.2451    1.0000 </r>
       <r>   -7.0797    1.0000 </r>
       <r>   -6.9557    1.0000 </r>
       <r>   -6.8184    1.0000 </r>
       <r>   -1.2648    1.0000 </r>
       <r>    4.7934    1.0000 </r>
       <r>    5.4934    1.0000 </r>
       <r>    5.7878    1.0000 </r>
       <r>    6.1180    1.0000 </r>
       <r>    6.5825    1.0000 </r>
       <r>    7.1265    1.0000 </r>
       <r>    7.3931    1.0000 </r>
       <r>    9.6908    1.0000 </r>
       <r>   11.6619    0.0000 </r>
       <r>   11.9251    0.0000 </r>
       <r>   12.9769    0.0000 </r>
       <r>   13.1901    0.0000 </r>
       <r>   13.4972    0.0000 </r>
       <r>   13.6894    0.0000 </r>
      </set>
     </set>
    </set>
   </array>
  </eigenvalues>
  <separator name="orbital magnetization" >
   <v name="MAGDIPOLOUT">      0.00000000      0.00000000      0.00000000</v>
  </separator>
  <dos>
   <i name="efermi">     11.08363503 </i>
   <total>
    <array>
     <dimension dim="1">gridpoints</dimension>
     <dimension dim="2">spin</dimension>
     <field>energy</field>
     <field>total</field>
     <field>integrated</field>
     <set>
      <set comment="spin 1">
       <r>   -30.5431     0.0000     0.0000 </r>
       <r>   -30.3881     0.0000     0.0000 </r>
       <r>   -30.2331     0.0000     0.0000 </r>
       <r>   -30.0781     0.0000     0.0000 </r>
       <r>   -29.9231     0.0000     0.0000 </r>
       <r>   -29.7682     0.0000     0.0000 </r>
       <r>   -29.6132     0.0000     0.0000 </r>
       <r>   -29.4582     0.0000     0.0000 </r>
       <r>   -29.3032     0.0000     0.0000 </r>
       <r>   -29.1482     0.0000     0.0000 </r>
       <r>   -28.9933     0.0000     0.0000 </r>
       <r>   -28.8383     0.0000     0.0000 </r>
       <r>   -28.6833     0.0000     0.0000 </r>
       <r>   -28.5283     0.0000     0.0000 </r>
       <r>   -28.3733    12.9049     2.0000 </r>
       <r>   -28.2184     0.0000     2.0000 </r>
       <r>   -28.0634     0.0000     2.0000 </r>
       <r>   -27.9084     0.0000     2.0000 </r>
       <r>   -27.7534     0.0000     2.0000 </r>
       <r>   -27.5984     0.0000     2.0000 </r>
       <r>   -27.4435     0.0000     2.0000 </r>
       <r>   -27.2885     0.0000     2.0000 </r>
       <r>   -27.1335     0.0000     2.0000 </r>
       <r>   -26.9785     0.0000     2.0000 </r>
       <r>   -26.8235     0.0000     2.0000 </r>
       <r>   -26.6686     0.0000     2.0000 </r>
       <r>   -26.5136     0.0000     2.0000 </r>
       <r>   -26.3586     0.0000     2.0000 </r>
       <r>   -26.2036     0.0000     2.0000 </r>
       <r>   -26.0486     0.0000     2.0000 </r>
       <r>   -25.8937     0.0000     2.0000 </r>
       <r>   -25.7387     0.0000     2.0000 </r>
       <r>   -25.5837     0.0000     2.0000 </r>
       <r>   -25.4287     0.0000     2.0000 </r>
       <r>   -25.2737     0.0000     2.0000 </r>
       <r>   -25.1188     0.0000     2.0000 </r>
       <r>   -24.9638     0.0000     2.0000 </r>
       <r>   -24.8088     0.0000     2.0000 </r>
       <r>   -24.6538     0.0000     2.0000 </r>
       <r>   -24.4988     0.0000     2.0000 </r>
       <r>   -24.3439     0.0000     2.0000 </r>
       <r>   -24.1889     0.0000     2.0000 </r>
       <r>   -24.0339     0.0000     2.0000 </r>
       <r>   -23.8789     0.0000     2.0000 </r>
       <r>   -23.7239     0.0000     2.0000 </r>
       <r>   -23.5690     0.0000     2.0000 </r>
       <r>   -23.4140     0.0000     2.0000 </r>
       <r>   -23.2590     0.0000     2.0000 </r>
       <r>   -23.1040     0.0000     2.0000 </r>
       <r>   -22.9490     0.0000     2.0000 </r>
       <r>   -22.7941     0.0000     2.0000 </r>
       <r>   -22.6391     0.0000     2.0000 </r>
       <r>   -22.4841     0.0000     2.0000 </r>
       <r>   -22.3291     0.0000     2.0000 </r>
       <r>   -22.1741     0.0000     2.0000 </r>
       <r>   -22.0192     0.0000     2.0000 </r>
       <r>   -21.8642     0.0000     2.0000 </r>
       <r>   -21.7092     0.0000     2.0000 </r>
       <r>   -21.5542     0.0000     2.0000 </r>
       <r>   -21.3992     0.0000     2.0000 </r>
       <r>   -21.2443     0.0000     2.0000 </r>
       <r>   -21.0893     0.0000     2.0000 </r>
       <r>   -20.9343     0.0000     2.0000 </r>
       <r>   -20.7793     0.0000     2.0000 </r>
       <r>   -20.6243     0.0000     2.0000 </r>
       <r>   -20.4694     0.0000     2.0000 </r>
       <r>   -20.3144     0.0000     2.0000 </r>
       <r>   -20.1594     0.0000     2.0000 </r>
       <r>   -20.0044     0.0000     2.0000 </r>
       <r>   -19.8494     0.0000     2.0000 </r>
       <r>   -19.6945     0.0000     2.0000 </r>
       <r>   -19.5395     0.0000     2.0000 </r>
       <r>   -19.3845     0.0000     2.0000 </r>
       <r>   -19.2295     0.0000     2.0000 </r>
       <r>   -19.0745     0.0000     2.0000 </r>
       <r>   -18.9196     0.0000     2.0000 </r>
       <r>   -18.7646     0.0000     2.0000 </r>
       <r>   -18.6096     0.0000     2.0000 </r>
       <r>   -18.4546     0.0000     2.0000 </r>
       <r>   -18.2996     0.0000     2.0000 </r>
       <r>   -18.1447     0.0000     2.0000 </r>
       <r>   -17.9897     0.0000     2.0000 </r>
       <r>   -17.8347     0.0000     2.0000 </r>
       <r>   -17.6797     0.0000     2.0000 </r>
       <r>   -17.5247     0.0000     2.0000 </r>
       <r>   -17.3698     0.0000     2.0000 </r>
       <r>   -17.2148     0.0000     2.0000 </r>
       <r>   -17.0598     0.0000     2.0000 </r>
       <r>   -16.9048     0.0000     2.0000 </r>
       <r>   -16.7498     0.0000     2.0000 </r>
       <r>   -16.5949     0.0000     2.0000 </r>
       <r>   -16.4399     0.0000     2.0000 </r>
       <r>   -16.2849     0.0000     2.0000 </r>
       <r>   -16.1299     0.0000     2.0000 </r>
       <r>   -15.9749     0.0000     2.0000 </r>
       <r>   -15.8200     0.0000     2.0000 </r>
       <r>   -15.6650     0.0000     2.0000 </r>
       <r>   -15.5100     0.0000     2.0000 </r>
       <r>   -15.3550     0.0000     2.0000 </r>
       <r>   -15.2000     0.0000     2.0000 </r>
       <r>   -15.0451     0.0000     2.0000 </r>
       <r>   -14.8901     0.0000     2.0000 </r>
       <r>   -14.7351     0.0000     2.0000 </r>
       <r>   -14.5801     0.0000     2.0000 </r>
       <r>   -14.4251     0.0000     2.0000 </r>
       <r>   -14.2702     0.0000     2.0000 </r>
       <r>   -14.1152     0.0000     2.0000 </r>
       <r>   -13.9602     0.0000     2.0000 </r>
       <r>   -13.8052     0.0000     2.0000 </r>
       <r>   -13.6502     0.0000     2.0000 </r>
       <r>   -13.4953     0.0000     2.0000 </r>
       <r>   -13.3403     0.0000     2.0000 </r>
       <r>   -13.1853     0.0000     2.0000 </r>
       <r>   -13.0303     0.0000     2.0000 </r>
       <r>   -12.8753     0.0000     2.0000 </r>
       <r>   -12.7204     0.0000     2.0000 </r>
       <r>   -12.5654     0.0000     2.0000 </r>
       <r>   -12.4104     0.0000     2.0000 </r>
       <r>   -12.2554    41.8232     9.0243 </r>
       <r>   -12.1004     0.0000    12.0000 </r>
       <r>   -11.9455     0.0000    12.0000 </r>
       <r>   -11.7905     0.0000    12.0000 </r>
       <r>   -11.6355     0.0000    12.0000 </r>
       <r>   -11.4805     0.0000    12.0000 </r>
       <r>   -11.3256     0.0000    12.0000 </r>
       <r>   -11.1706     0.0000    12.0000 </r>
       <r>   -11.0156     0.0000    12.0000 </r>
       <r>   -10.8606     0.0000    12.0000 </r>
       <r>   -10.7056     0.0000    12.0000 </r>
       <r>   -10.5507     0.0000    12.0000 </r>
       <r>   -10.3957     0.0000    12.0000 </r>
       <r>   -10.2407     0.0000    12.0000 </r>
       <r>   -10.0857     0.0000    12.0000 </r>
       <r>    -9.9307     0.0000    12.0000 </r>
       <r>    -9.7758     0.0000    12.0000 </r>
       <r>    -9.6208     0.0000    12.0000 </r>
       <r>    -9.4658     0.0000    12.0000 </r>
       <r>    -9.3108     0.0000    12.0000 </r>
       <r>    -9.1558     0.0000    12.0000 </r>
       <r>    -9.0009     0.0000    12.0000 </r>
       <r>    -8.8459     0.0000    12.0000 </r>
       <r>    -8.6909     0.0000    12.0000 </r>
       <r>    -8.5359     0.0000    12.0000 </r>
       <r>    -8.3809     0.0000    12.0000 </r>
       <r>    -8.2260     0.0000    12.0000 </r>
       <r>    -8.0710     0.0000    12.0000 </r>
       <r>    -7.9160     0.0000    12.0000 </r>
       <r>    -7.7610     0.0000    12.0000 </r>
       <r>    -7.6060     0.0000    12.0000 </r>
       <r>    -7.4511     0.0000    12.0000 </r>
       <r>    -7.2961     0.9704    12.1504 </r>
       <r>    -7.1411     6.0973    13.4038 </r>
       <r>    -6.9861     0.6288    13.9454 </r>
       <r>    -6.8311     4.7195    15.0346 </r>
       <r>    -6.6762     8.3280    17.7322 </r>
       <r>    -6.5212     0.0000    18.0000 </r>
       <r>    -6.3662     0.0000    18.0000 </r>
       <r>    -6.2112     0.0000    18.0000 </r>
       <r>    -6.0562     0.0000    18.0000 </r>
       <r>    -5.9013     0.0000    18.0000 </r>
       <r>    -5.7463     0.0000    18.0000 </r>
       <r>    -5.5913     0.0000    18.0000 </r>
       <r>    -5.4363     0.0000    18.0000 </r>
       <r>    -5.2813     0.0000    18.0000 </r>
       <r>    -5.1264     0.0000    18.0000 </r>
       <r>    -4.9714     0.0000    18.0000 </r>
       <r>    -4.8164     0.0000    18.0000 </r>
       <r>    -4.6614     0.0000    18.0000 </r>
       <r>    -4.5064     0.0000    18.0000 </r>
       <r>    -4.3515     0.0000    18.0000 </r>
       <r>    -4.1965     0.0000    18.0000 </r>
       <r>    -4.0415     0.0000    18.0000 </r>
       <r>    -3.8865     0.0000    18.0000 </r>
       <r>    -3.7315     0.0000    18.0000 </r>
       <r>    -3.5766     0.0000    18.0000 </r>
       <r>    -3.4216     0.0000    18.0000 </r>
       <r>    -3.2666     0.0000    18.0000 </r>
       <r>    -3.1116     0.0000    18.0000 </r>
       <r>    -2.9566     0.0000    18.0000 </r>
       <r>    -2.8017     0.0000    18.0000 </r>
       <r>    -2.6467     0.0000    18.0000 </r>
       <r>    -2.4917     0.0000    18.0000 </r>
       <r>    -2.3367     0.0000    18.0000 </r>
       <r>    -2.1817     0.0474    18.0083 </r>
       <r>    -2.0268     0.0221    18.0171 </r>
       <r>    -1.8718     0.1876    18.0536 </r>
       <r>    -1.7168     0.0352    18.0592 </r>
       <r>    -1.5618     0.0728    18.1142 </r>
       <r>    -1.4068     0.5403    18.2685 </r>
       <r>    -1.2519     1.2531    18.6266 </r>
       <r>    -1.0969     1.4158    19.0615 </r>
       <r>    -0.9419     1.2223    19.4976 </r>
       <r>    -0.7869     0.9778    19.8311 </r>
       <r>    -0.6319     0.4715    19.9493 </r>
       <r>    -0.4770     0.0470    20.0000 </r>
       <r>    -0.3220     0.0000    20.0000 </r>
       <r>    -0.1670     0.0000    20.0000 </r>
       <r>    -0.0120     0.0000    20.0000 </r>
       <r>     0.1430     0.0000    20.0000 </r>
       <r>     0.2979     0.0000    20.0000 </r>
       <r>     0.4529     0.0000    20.0000 </r>
       <r>     0.6079     0.0000    20.0000 </r>
       <r>     0.7629     0.0000    20.0000 </r>
       <r>     0.9179     0.0000    20.0000 </r>
       <r>     1.0728     0.0000    20.0000 </r>
       <r>     1.2278     0.0000    20.0000 </r>
       <r>     1.3828     0.0000    20.0000 </r>
       <r>     1.5378     0.0000    20.0000 </r>
       <r>     1.6928     0.0000    20.0000 </r>
       <r>     1.8477     0.0000    20.0000 </r>
       <r>     2.0027     0.0000    20.0000 </r>
       <r>     2.1577     0.0000    20.0000 </r>
       <r>     2.3127     0.0000    20.0000 </r>
       <r>     2.4677     0.0000    20.0000 </r>
       <r>     2.6226     0.0000    20.0000 </r>
       <r>     2.7776     0.0000    20.0000 </r>
       <r>     2.9326     0.0000    20.0000 </r>
       <r>     3.0876     0.0000    20.0000 </r>
       <r>     3.2426     0.0000    20.0000 </r>
       <r>     3.3975     0.0000    20.0000 </r>
       <r>     3.5525     0.0000    20.0000 </r>
       <r>     3.7075     0.0000    20.0000 </r>
       <r>     3.8625     0.0000    20.0000 </r>
       <r>     4.0175     0.0000    20.0000 </r>
       <r>     4.1724     0.2656    20.0485 </r>
       <r>     4.3274     1.6065    20.3782 </r>
       <r>     4.4824     1.0220    20.7738 </r>
       <r>     4.6374     1.2411    21.0444 </r>
       <r>     4.7924     0.8742    21.2880 </r>
       <r>     4.9473     2.2658    22.0608 </r>
       <r>     5.1023     1.9655    22.8790 </r>
       <r>     5.2573     2.1885    23.5690 </r>
       <r>     5.4123     2.7532    24.3812 </r>
       <r>     5.5673     3.1510    25.1966 </r>
       <r>     5.7222     1.0950    25.5334 </r>
       <r>     5.8772     0.8970    25.9269 </r>
       <r>     6.0322     0.9520    26.1576 </r>
       <r>     6.1872     4.3915    27.5381 </r>
       <r>     6.3422     1.8960    28.5242 </r>
       <r>     6.4971     4.0901    29.4614 </r>
       <r>     6.6521     1.4140    29.9570 </r>
       <r>     6.8071     0.6097    30.1564 </r>
       <r>     6.9621     1.1793    30.3885 </r>
       <r>     7.1171     0.4220    30.6171 </r>
       <r>     7.2720     1.1749    31.1707 </r>
       <r>     7.4270     1.0623    31.4810 </r>
       <r>     7.5820     0.3498    31.6345 </r>
       <r>     7.7370     0.9225    31.9090 </r>
       <r>     7.8920     0.2274    32.0143 </r>
       <r>     8.0469     1.1523    32.2450 </r>
       <r>     8.2019     0.7023    32.4939 </r>
       <r>     8.3569     0.2911    32.6487 </r>
       <r>     8.5119     1.8152    33.0323 </r>
       <r>     8.6669     0.6477    33.2228 </r>
       <r>     8.8218     0.8777    33.4769 </r>
       <r>     8.9768     0.3561    33.6801 </r>
       <r>     9.1318     2.6552    34.3004 </r>
       <r>     9.2868     3.4607    35.4084 </r>
       <r>     9.4418     1.0884    35.6780 </r>
       <r>     9.5967     0.5857    35.8878 </r>
       <r>     9.7517     0.2819    36.0000 </r>
       <r>     9.9067     0.0000    36.0000 </r>
       <r>    10.0617     0.0010    36.0002 </r>
       <r>    10.2167     0.0000    36.0009 </r>
       <r>    10.3716     0.0000    36.0009 </r>
       <r>    10.5266     0.0720    36.0121 </r>
       <r>    10.6816     0.1878    36.0628 </r>
       <r>    10.8366     1.0319    36.2828 </r>
       <r>    10.9916     1.1953    36.6486 </r>
       <r>    11.1465     1.2491    37.1613 </r>
       <r>    11.3015     0.9124    37.5570 </r>
       <r>    11.4565     0.6996    37.9345 </r>
       <r>    11.6115     0.7442    38.1235 </r>
       <r>    11.7665     0.1714    38.1913 </r>
       <r>    11.9214     0.1877    38.2976 </r>
       <r>    12.0764     0.7728    38.5777 </r>
       <r>    12.2314     2.2550    39.0368 </r>
       <r>    12.3864     1.8313    39.4982 </r>
       <r>    12.5414     1.3541    40.0506 </r>
       <r>    12.6963     1.9568    40.5245 </r>
       <r>    12.8513     1.7324    40.9212 </r>
       <r>    13.0063     2.2546    41.6193 </r>
       <r>    13.1613     2.2330    42.4753 </r>
       <r>    13.3163     3.5033    43.3823 </r>
       <r>    13.4712     6.6464    45.2203 </r>
       <r>    13.6262     1.3759    46.2096 </r>
       <r>    13.7812     6.9354    47.5673 </r>
       <r>    13.9362     0.0000    48.0000 </r>
       <r>    14.0912     0.0000    48.0000 </r>
       <r>    14.2461     0.0000    48.0000 </r>
       <r>    14.4011     0.0000    48.0000 </r>
       <r>    14.5561     0.0000    48.0000 </r>
       <r>    14.7111     0.0000    48.0000 </r>
       <r>    14.8661     0.0000    48.0000 </r>
       <r>    15.0210     0.0000    48.0000 </r>
       <r>    15.1760     0.0000    48.0000 </r>
       <r>    15.3310     0.0000    48.0000 </r>
       <r>    15.4860     0.0000    48.0000 </r>
       <r>    15.6410     0.0000    48.0000 </r>
       <r>    15.7959     0.0000    48.0000 </r>
       <r>    15.9509     0.0000    48.0000 </r>
      </set>
     </set>
    </array>
   </total>
  </dos>
 </calculation>
 <structure name="finalpos" >
  <crystal>
   <varray name="basis" >
    <v>       0.00000000       3.20563433       3.20563433 </v>
    <v>       3.20563433       0.00000000       3.20563433 </v>
    <v>       3.20563433       3.20563433       0.00000000 </v>
   </varray>
   <i name="volume">     65.88278319 </i>
   <varray name="rec_basis" >
    <v>      -0.15597537       0.15597537       0.15597537 </v>
    <v>       0.15597537      -0.15597537       0.15597537 </v>
    <v>       0.15597537       0.15597537      -0.15597537 </v>
   </varray>
  </crystal>
  <varray name="positions" >
   <v>       0.25000000       0.25000000       0.25000000 </v>
   <v>       0.75000000       0.75000000       0.75000000 </v>
   <v>       0.00000000       0.00000000       0.00000000 </v>
  </varray>
 </structure>
</modeling>
