   2   2   0   0
  0.1285880E+02  0.3313206E-09  0.3313206E-09  0.3313206E-09  0.0000000E+00
  1.000000000000000E-004
  CAR 
 unknown system                          
     20.15558146    -10.48946351  301      6.88244636      1.00000000
    -10.489  0.0000E+00  0.0000E+00
    -10.387  0.0000E+00  0.0000E+00
    -10.285  0.0000E+00  0.0000E+00
    -10.183  0.0000E+00  0.0000E+00
    -10.081  0.0000E+00  0.0000E+00
     -9.979  0.0000E+00  0.0000E+00
     -9.877  0.0000E+00  0.0000E+00
     -9.774  0.0000E+00  0.0000E+00
     -9.672  0.0000E+00  0.0000E+00
     -9.570  0.0000E+00  0.0000E+00
     -9.468  0.0000E+00  0.0000E+00
     -9.366  0.0000E+00  0.0000E+00
     -9.264  0.0000E+00  0.0000E+00
     -9.162  0.0000E+00  0.0000E+00
     -9.059  0.3668E-01  0.7073E-03
     -8.957  0.8006E-01  0.6996E-02
     -8.855  0.1086E+00  0.1684E-01
     -8.753  0.1331E+00  0.2921E-01
     -8.651  0.1510E+00  0.4367E-01
     -8.549  0.1694E+00  0.6012E-01
     -8.446  0.1852E+00  0.7820E-01
     -8.344  0.2012E+00  0.9798E-01
     -8.242  0.2149E+00  0.1192E+00
     -8.140  0.2302E+00  0.1420E+00
     -8.038  0.2430E+00  0.1661E+00
     -7.936  0.2563E+00  0.1916E+00
     -7.834  0.2705E+00  0.2185E+00
     -7.731  0.2826E+00  0.2468E+00
     -7.629  0.2956E+00  0.2763E+00
     -7.527  0.3093E+00  0.3072E+00
     -7.425  0.3220E+00  0.3394E+00
     -7.323  0.3352E+00  0.3730E+00
     -7.221  0.3493E+00  0.4080E+00
     -7.119  0.3635E+00  0.4444E+00
     -7.016  0.3780E+00  0.4822E+00
     -6.914  0.3935E+00  0.5216E+00
     -6.812  0.4100E+00  0.5627E+00
     -6.710  0.4277E+00  0.6054E+00
     -6.608  0.4471E+00  0.6501E+00
     -6.506  0.4687E+00  0.6969E+00
     -6.403  0.4930E+00  0.7460E+00
     -6.301  0.5229E+00  0.7978E+00
     -6.199  0.5604E+00  0.8530E+00
     -6.097  0.6145E+00  0.9128E+00
     -5.995  0.7595E+00  0.9814E+00
     -5.893  0.7424E+00  0.1056E+01
     -5.791  0.7102E+00  0.1130E+01
     -5.688  0.6885E+00  0.1201E+01
     -5.586  0.6833E+00  0.1271E+01
     -5.484  0.6678E+00  0.1340E+01
     -5.382  0.6495E+00  0.1407E+01
     -5.280  0.6439E+00  0.1473E+01
     -5.178  0.6318E+00  0.1539E+01
     -5.076  0.6237E+00  0.1603E+01
     -4.973  0.6220E+00  0.1666E+01
     -4.871  0.6241E+00  0.1730E+01
     -4.769  0.6392E+00  0.1794E+01
     -4.667  0.6905E+00  0.1862E+01
     -4.565  0.8937E+00  0.1941E+01
     -4.463  0.2682E+00  0.1992E+01
     -4.360  0.0000E+00  0.2000E+01
     -4.258  0.0000E+00  0.2000E+01
     -4.156  0.0000E+00  0.2000E+01
     -4.054  0.0000E+00  0.2000E+01
     -3.952  0.0000E+00  0.2000E+01
     -3.850  0.0000E+00  0.2000E+01
     -3.748  0.0000E+00  0.2000E+01
     -3.645  0.0000E+00  0.2000E+01
     -3.543  0.0000E+00  0.2000E+01
     -3.441  0.0000E+00  0.2000E+01
     -3.339  0.0000E+00  0.2000E+01
     -3.237  0.0000E+00  0.2000E+01
     -3.135  0.0000E+00  0.2000E+01
     -3.033  0.0000E+00  0.2000E+01
     -2.930  0.0000E+00  0.2000E+01
     -2.828  0.0000E+00  0.2000E+01
     -2.726  0.0000E+00  0.2000E+01
     -2.624  0.0000E+00  0.2000E+01
     -2.522  0.0000E+00  0.2000E+01
     -2.420  0.0000E+00  0.2000E+01
     -2.317  0.1067E+00  0.2003E+01
     -2.215  0.1873E+00  0.2017E+01
     -2.113  0.2240E+00  0.2038E+01
     -2.011  0.3000E+00  0.2065E+01
     -1.909  0.4655E+00  0.2103E+01
     -1.807  0.6086E+00  0.2158E+01
     -1.705  0.7799E+00  0.2230E+01
     -1.602  0.1091E+01  0.2324E+01
     -1.500  0.1819E+01  0.2474E+01
     -1.398  0.1274E+01  0.2646E+01
     -1.296  0.8897E+00  0.2753E+01
     -1.194  0.7583E+00  0.2837E+01
     -1.092  0.6382E+00  0.2908E+01
     -0.989  0.5832E+00  0.2971E+01
     -0.887  0.5311E+00  0.3027E+01
     -0.785  0.4772E+00  0.3078E+01
     -0.683  0.4500E+00  0.3126E+01
     -0.581  0.4201E+00  0.3170E+01
     -0.479  0.3848E+00  0.3211E+01
     -0.377  0.3663E+00  0.3250E+01
     -0.274  0.3492E+00  0.3286E+01
     -0.172  0.3306E+00  0.3321E+01
     -0.070  0.3065E+00  0.3354E+01
      0.032  0.2934E+00  0.3384E+01
      0.134  0.2824E+00  0.3414E+01
      0.236  0.2704E+00  0.3442E+01
      0.338  0.2558E+00  0.3469E+01
      0.441  0.3956E+00  0.3500E+01
      0.543  0.4965E+00  0.3547E+01
      0.645  0.6057E+00  0.3604E+01
      0.747  0.7566E+00  0.3673E+01
      0.849  0.8427E+00  0.3759E+01
      0.951  0.8002E+00  0.3843E+01
      1.054  0.7642E+00  0.3923E+01
      1.156  0.7378E+00  0.4000E+01
      1.258  0.7262E+00  0.4075E+01
      1.360  0.7250E+00  0.4149E+01
      1.462  0.7286E+00  0.4223E+01
      1.564  0.7394E+00  0.4298E+01
      1.666  0.7701E+00  0.4375E+01
      1.769  0.7832E+00  0.4454E+01
      1.871  0.7937E+00  0.4534E+01
      1.973  0.8075E+00  0.4616E+01
      2.075  0.8302E+00  0.4700E+01
      2.177  0.8823E+00  0.4788E+01
      2.279  0.8964E+00  0.4879E+01
      2.381  0.9438E+00  0.4973E+01
      2.484  0.1077E+01  0.5077E+01
      2.586  0.1123E+01  0.5192E+01
      2.688  0.1100E+01  0.5306E+01
      2.790  0.1086E+01  0.5418E+01
      2.892  0.1074E+01  0.5528E+01
      2.994  0.1062E+01  0.5637E+01
      3.097  0.1051E+01  0.5745E+01
      3.199  0.1034E+01  0.5852E+01
      3.301  0.1020E+01  0.5957E+01
      3.403  0.9980E+00  0.6060E+01
      3.505  0.9887E+00  0.6161E+01
      3.607  0.9804E+00  0.6262E+01
      3.709  0.9637E+00  0.6361E+01
      3.812  0.9491E+00  0.6459E+01
      3.914  0.9384E+00  0.6555E+01
      4.016  0.9310E+00  0.6651E+01
      4.118  0.9138E+00  0.6745E+01
      4.220  0.9006E+00  0.6838E+01
      4.322  0.8898E+00  0.6929E+01
      4.424  0.8778E+00  0.7019E+01
      4.527  0.8705E+00  0.7109E+01
      4.629  0.8560E+00  0.7197E+01
      4.731  0.8454E+00  0.7284E+01
      4.833  0.8347E+00  0.7370E+01
      4.935  0.6980E+00  0.7450E+01
      5.037  0.6073E+00  0.7517E+01
      5.140  0.5382E+00  0.7575E+01
      5.242  0.4868E+00  0.7627E+01
      5.344  0.4425E+00  0.7674E+01
      5.446  0.3992E+00  0.7717E+01
      5.548  0.3620E+00  0.7756E+01
      5.650  0.3323E+00  0.7792E+01
      5.752  0.2998E+00  0.7824E+01
      5.855  0.2721E+00  0.7853E+01
      5.957  0.2462E+00  0.7880E+01
      6.059  0.2203E+00  0.7903E+01
      6.161  0.1977E+00  0.7925E+01
      6.263  0.1722E+00  0.7944E+01
      6.365  0.1452E+00  0.7960E+01
      6.467  0.1283E+00  0.7974E+01
      6.570  0.9805E-01  0.7985E+01
      6.672  0.7329E-01  0.7994E+01
      6.774  0.3421E-01  0.8000E+01
      6.876  0.0000E+00  0.8000E+01
      6.978  0.0000E+00  0.8000E+01
      7.080  0.0000E+00  0.8000E+01
      7.183  0.0000E+00  0.8000E+01
      7.285  0.0000E+00  0.8000E+01
      7.387  0.0000E+00  0.8000E+01
      7.489  0.0000E+00  0.8000E+01
      7.591  0.0000E+00  0.8000E+01
      7.693  0.0000E+00  0.8000E+01
      7.795  0.0000E+00  0.8000E+01
      7.898  0.0000E+00  0.8000E+01
      8.000  0.2281E-01  0.8000E+01
      8.102  0.9788E-01  0.8007E+01
      8.204  0.1527E+00  0.8020E+01
      8.306  0.2017E+00  0.8038E+01
      8.408  0.2601E+00  0.8061E+01
      8.510  0.2952E+00  0.8090E+01
      8.613  0.3291E+00  0.8122E+01
      8.715  0.3638E+00  0.8157E+01
      8.817  0.4009E+00  0.8196E+01
      8.919  0.4397E+00  0.8239E+01
      9.021  0.4715E+00  0.8286E+01
      9.123  0.4992E+00  0.8335E+01
      9.226  0.5311E+00  0.8388E+01
      9.328  0.5628E+00  0.8444E+01
      9.430  0.5960E+00  0.8503E+01
      9.532  0.6313E+00  0.8565E+01
      9.634  0.6714E+00  0.8632E+01
      9.736  0.7134E+00  0.8703E+01
      9.838  0.7574E+00  0.8778E+01
      9.941  0.8287E+00  0.8858E+01
     10.043  0.9781E+00  0.8950E+01
     10.145  0.1122E+01  0.9057E+01
     10.247  0.1355E+01  0.9182E+01
     10.349  0.1752E+01  0.9342E+01
     10.451  0.1470E+01  0.9511E+01
     10.553  0.1334E+01  0.9651E+01
     10.656  0.1348E+01  0.9788E+01
     10.758  0.1164E+01  0.9913E+01
     10.860  0.1175E+01  0.1003E+02
     10.962  0.9675E+00  0.1014E+02
     11.064  0.6602E+00  0.1022E+02
     11.166  0.5618E+00  0.1029E+02
     11.269  0.5936E+00  0.1035E+02
     11.371  0.5982E+00  0.1041E+02
     11.473  0.6728E+00  0.1047E+02
     11.575  0.1935E+01  0.1058E+02
     11.677  0.1375E+01  0.1074E+02
     11.779  0.1323E+01  0.1087E+02
     11.881  0.1229E+01  0.1100E+02
     11.984  0.1317E+01  0.1113E+02
     12.086  0.1290E+01  0.1126E+02
     12.188  0.1411E+01  0.1140E+02
     12.290  0.1586E+01  0.1155E+02
     12.392  0.1232E+01  0.1170E+02
     12.494  0.1015E+01  0.1182E+02
     12.596  0.9403E+00  0.1192E+02
     12.699  0.9053E+00  0.1201E+02
     12.801  0.9298E+00  0.1210E+02
     12.903  0.8751E+00  0.1219E+02
     13.005  0.9665E+00  0.1229E+02
     13.107  0.1060E+01  0.1239E+02
     13.209  0.1054E+01  0.1250E+02
     13.312  0.1007E+01  0.1261E+02
     13.414  0.1097E+01  0.1271E+02
     13.516  0.1032E+01  0.1282E+02
     13.618  0.1017E+01  0.1293E+02
     13.720  0.1000E+01  0.1303E+02
     13.822  0.1016E+01  0.1313E+02
     13.924  0.1008E+01  0.1324E+02
     14.027  0.1076E+01  0.1334E+02
     14.129  0.1057E+01  0.1345E+02
     14.231  0.9875E+00  0.1356E+02
     14.333  0.9652E+00  0.1366E+02
     14.435  0.9334E+00  0.1375E+02
     14.537  0.9467E+00  0.1385E+02
     14.639  0.9539E+00  0.1395E+02
     14.742  0.7999E+00  0.1404E+02
     14.844  0.6764E+00  0.1411E+02
     14.946  0.6655E+00  0.1418E+02
     15.048  0.6605E+00  0.1425E+02
     15.150  0.6644E+00  0.1432E+02
     15.252  0.6809E+00  0.1438E+02
     15.355  0.6974E+00  0.1446E+02
     15.457  0.7110E+00  0.1453E+02
     15.559  0.7405E+00  0.1460E+02
     15.661  0.7648E+00  0.1468E+02
     15.763  0.8821E+00  0.1476E+02
     15.865  0.1019E+01  0.1485E+02
     15.967  0.1038E+01  0.1496E+02
     16.070  0.1126E+01  0.1507E+02
     16.172  0.1207E+01  0.1519E+02
     16.274  0.1109E+01  0.1531E+02
     16.376  0.6390E+00  0.1540E+02
     16.478  0.5604E+00  0.1546E+02
     16.580  0.5040E+00  0.1551E+02
     16.682  0.4236E+00  0.1556E+02
     16.785  0.3983E+00  0.1560E+02
     16.887  0.3816E+00  0.1564E+02
     16.989  0.3499E+00  0.1568E+02
     17.091  0.3232E+00  0.1571E+02
     17.193  0.2982E+00  0.1575E+02
     17.295  0.2853E+00  0.1578E+02
     17.398  0.2657E+00  0.1580E+02
     17.500  0.2497E+00  0.1583E+02
     17.602  0.2353E+00  0.1585E+02
     17.704  0.2093E+00  0.1588E+02
     17.806  0.1875E+00  0.1590E+02
     17.908  0.1699E+00  0.1592E+02
     18.010  0.1539E+00  0.1593E+02
     18.113  0.1426E+00  0.1595E+02
     18.215  0.1319E+00  0.1596E+02
     18.317  0.1075E+00  0.1597E+02
     18.419  0.8374E-01  0.1598E+02
     18.521  0.6693E-01  0.1599E+02
     18.623  0.5728E-01  0.1600E+02
     18.725  0.4478E-02  0.1600E+02
     18.828  0.0000E+00  0.1600E+02
     18.930  0.0000E+00  0.1600E+02
     19.032  0.0000E+00  0.1600E+02
     19.134  0.0000E+00  0.1600E+02
     19.236  0.0000E+00  0.1600E+02
     19.338  0.0000E+00  0.1600E+02
     19.441  0.0000E+00  0.1600E+02
     19.543  0.0000E+00  0.1600E+02
     19.645  0.0000E+00  0.1600E+02
     19.747  0.0000E+00  0.1600E+02
     19.849  0.0000E+00  0.1600E+02
     19.951  0.0000E+00  0.1600E+02
     20.053  0.0000E+00  0.1600E+02
     20.156  0.0000E+00  0.1600E+02
