    2    2    1    1
  0.1285880E+02  0.3313206E-09  0.3313206E-09  0.3313206E-09  0.0000000E+00
  1.000000000000000E-004
  CAR 
 unknown system                          
      8    413      8
 
  0.0000000E+00  0.0000000E+00  0.0000000E+00  0.7233796E-04
    1       -9.096507   1.000000
    2        6.837375   1.000000
    3        6.837375   1.000000
    4        6.837375   1.000000
    5       10.181668   0.000000
    6       10.181668   0.000000
    7       10.181668   0.000000
    8       12.297817   0.000000
 
  0.4166667E-01  0.0000000E+00  0.0000000E+00  0.5787037E-03
    1       -9.066367   1.000000
    2        6.527497   1.000000
    3        6.773491   1.000000
    4        6.773491   1.000000
    5       10.264872   0.000000
    6       10.264872   0.000000
    7       10.280700   0.000000
    8       12.432721   0.000000
 
  0.8333333E-01  0.0000000E+00  0.0000000E+00  0.5787037E-03
    1       -8.976088   1.000000
    2        5.772424   1.000000
    3        6.602839   1.000000
    4        6.602839   1.000000
    5       10.418879   0.000000
    6       10.488680   0.000000
    7       10.488680   0.000000
    8       12.827023   0.000000
 
  0.1250000E+00  0.0000000E+00  0.0000000E+00  0.5787037E-03
    1       -8.826358   1.000000
    2        4.813836   1.000000
    3        6.368995   1.000000
    4        6.368995   1.000000
    5       10.455013   0.000000
    6       10.794539   0.000000
    7       10.794539   0.000000
    8       13.396721   0.000000
 
  0.1666667E+00  0.0000000E+00  0.0000000E+00  0.5787037E-03
    1       -8.618323   1.000000
    2        3.780495   1.000000
    3        6.111112   1.000000
    4        6.111112   1.000000
    5       10.406994   0.000000
    6       11.118673   0.000000
    7       11.118673   0.000000
    8       14.021433   0.000000
 
  0.2083333E+00  0.0000000E+00  0.0000000E+00  0.5787037E-03
    1       -8.354034   1.000000
    2        2.734115   1.000000
    3        5.855520   1.000000
    4        5.855520   1.000000
    5       10.319168   0.000000
    6       11.404661   0.000000
    7       11.404661   0.000000
    8       14.620771   0.000000
 
  0.2500000E+00  0.0000000E+00  0.0000000E+00  0.5787037E-03
    1       -8.036781   1.000000
    2        1.708683   1.000000
    3        5.618332   1.000000
    4        5.618332   1.000000
    5       10.220015   0.000000
    6       11.611964   0.000000
    7       11.611964   0.000000
    8       15.141335   0.000000
 
  0.2916667E+00  0.0000000E+00  0.0000000E+00  0.5787037E-03
    1       -7.672174   1.000000
    2        0.727301   1.000000
    3        5.409048   1.000000
    4        5.409048   1.000000
    5       10.125031   0.000000
    6       11.726255   0.000000
    7       11.726255   0.000000
    8       15.530152   0.000000
 
  0.3333333E+00  0.0000000E+00  0.0000000E+00  0.5787037E-03
    1       -7.270103   1.000000
    2       -0.189543   1.000000
    3        5.233291   1.000000
    4        5.233291   1.000000
    5       10.042270   0.000000
    6       11.761325   0.000000
    7       11.761325   0.000000
    8       15.751402   0.000000
 
  0.3750000E+00  0.0000000E+00  0.0000000E+00  0.5787037E-03
    1       -6.848980   1.000000
    2       -1.016574   1.000000
    3        5.094348   1.000000
    4        5.094348   1.000000
    5        9.975906   0.000000
    6       11.746912   0.000000
    7       11.746912   0.000000
    8       15.828906   0.000000
 
  0.4166667E+00  0.0000000E+00  0.0000000E+00  0.5787037E-03
    1       -6.444968   1.000000
    2       -1.713278   1.000000
    3        4.994114   1.000000
    4        4.994114   1.000000
    5        9.927823   0.000000
    6       11.713652   0.000000
    7       11.713652   0.000000
    8       15.828815   0.000000
 
  0.4583333E+00  0.0000000E+00  0.0000000E+00  0.5787037E-03
    1       -6.127580   1.000000
    2       -2.207265   1.000000
    3        4.933593   1.000000
    4        4.933593   1.000000
    5        9.898806   0.000000
    6       11.684622   0.000000
    7       11.684622   0.000000
    8       15.808231   0.000000
 
  0.5000000E+00  0.0000000E+00  0.0000000E+00  0.2893519E-03
    1       -6.001248   1.000000
    2       -2.392657   1.000000
    3        4.913383   1.000000
    4        4.913383   1.000000
    5        9.889124   0.000000
    6       11.673484   0.000000
    7       11.673484   0.000000
    8       15.798259   0.000000
 
  0.4166667E-01  0.4166667E-01  0.0000000E+00  0.4340278E-03
    1       -9.056311   1.000000
    2        6.638667   1.000000
    3        6.638667   1.000000
    4        6.652156   1.000000
    5       10.065748   0.000000
    6       10.423937   0.000000
    7       10.423937   0.000000
    8       12.461643   0.000000
 
  0.8333333E-01  0.4166667E-01  0.0000000E+00  0.1736111E-02
    1       -8.986049   1.000000
    2        6.022136   1.000000
    3        6.418390   1.000000
    4        6.620776   1.000000
    5       10.056082   0.000000
    6       10.654165   0.000000
    7       10.704281   0.000000
    8       12.736693   0.000000
 
  0.1250000E+00  0.4166667E-01  0.0000000E+00  0.1736111E-02
    1       -8.856111   1.000000
    2        5.129356   1.000000
    3        6.156479   1.000000
    4        6.476525   1.000000
    5       10.192631   0.000000
    6       10.801679   0.000000
    7       11.048510   0.000000
    8       13.219582   0.000000
 
  0.1666667E+00  0.4166667E-01  0.0000000E+00  0.1736111E-02
    1       -8.667430   1.000000
    2        4.124114   1.000000
    3        5.886529   1.000000
    4        6.257548   1.000000
    5       10.349144   0.000000
    6       10.911230   0.000000
    7       11.399702   0.000000
    8       13.785707   0.000000
 
  0.2083333E+00  0.4166667E-01  0.0000000E+00  0.1736111E-02
    1       -8.421759   1.000000
    2        3.085623   1.000000
    3        5.630100   1.000000
    4        6.005672   1.000000
    5       10.398223   0.000000
    6       11.088770   0.000000
    7       11.705798   0.000000
    8       14.330507   0.000000
 
  0.2500000E+00  0.4166667E-01  0.0000000E+00  0.1736111E-02
    1       -8.121866   1.000000
    2        2.056016   1.000000
    3        5.400345   1.000000
    4        5.749336   1.000000
    5       10.354208   0.000000
    6       11.295373   0.000000
    7       11.925838   0.000000
    8       14.809604   0.000000
 
  0.2916667E+00  0.4166667E-01  0.0000000E+00  0.1736111E-02
    1       -7.772479   1.000000
    2        1.061744   1.000000
    3        5.205104   1.000000
    4        5.505869   1.000000
    5       10.278737   0.000000
    6       11.452514   0.000000
    7       12.041466   0.000000
    8       15.215763   0.000000
 
  0.3333333E+00  0.4166667E-01  0.0000000E+00  0.1736111E-02
    1       -7.381714   1.000000
    2        0.123999   1.000000
    3        5.048910   1.000000
    4        5.285654   1.000000
    5       10.201185   0.000000
    6       11.538304   0.000000
    7       12.062725   0.000000
    8       15.538414   0.000000
 
  0.3750000E+00  0.4166667E-01  0.0000000E+00  0.1736111E-02
    1       -6.964478   1.000000
    2       -0.734127   1.000000
    3        4.934291   1.000000
    4        5.095124   1.000000
    5       10.133824   0.000000
    6       11.570108   0.000000
    7       12.019091   0.000000
    8       15.751015   0.000000
 
  0.4166667E+00  0.4166667E-01  0.0000000E+00  0.1736111E-02
    1       -6.549528   1.000000
    2       -1.478564   1.000000
    3        4.862384   1.000000
    4        4.938442   1.000000
    5       10.082040   0.000000
    6       11.577636   0.000000
    7       11.943760   0.000000
    8       15.854559   0.000000
 
  0.4583333E+00  0.4166667E-01  0.0000000E+00  0.1736111E-02
    1       -6.193367   1.000000
    2       -2.049428   1.000000
    3        4.818500   1.000000
    4        4.833375   1.000000
    5       10.048206   0.000000
    6       11.586576   0.000000
    7       11.863466   0.000000
    8       15.890039   0.000000
 
  0.5000000E+00  0.4166667E-01  0.0000000E+00  0.1736111E-02
    1       -5.992044   1.000000
    2       -2.348703   1.000000
    3        4.737382   1.000000
    4        4.846852   1.000000
    5       10.033282   0.000000
    6       11.613409   0.000000
    7       11.795453   0.000000
    8       15.899691   0.000000
 
 -0.4583333E+00  0.4166667E-01  0.0000000E+00  0.1736111E-02
    1       -6.035082   1.000000
    2       -2.285975   1.000000
    3        4.696808   1.000000
    4        4.901894   1.000000
    5       10.037565   0.000000
    6       11.665228   0.000000
    7       11.747726   0.000000
    8       15.904533   0.000000
 
 -0.4166667E+00  0.4166667E-01  0.0000000E+00  0.1736111E-02
    1       -6.300529   1.000000
    2       -1.883420   1.000000
    3        4.697956   1.000000
    4        4.997138   1.000000
    5       10.060955   0.000000
    6       11.719338   0.000000
    7       11.740262   0.000000
    8       15.901792   0.000000
 
 -0.3750000E+00  0.4166667E-01  0.0000000E+00  0.1736111E-02
    1       -6.685018   1.000000
    2       -1.245554   1.000000
    3        4.741663   1.000000
    4        5.130727   1.000000
    5       10.103086   0.000000
    6       11.700337   0.000000
    7       11.827712   0.000000
    8       15.865101   0.000000
 
 -0.3333333E+00  0.4166667E-01  0.0000000E+00  0.1736111E-02
    1       -7.105281   1.000000
    2       -0.458157   1.000000
    3        4.828301   1.000000
    4        5.300225   1.000000
    5       10.163095   0.000000
    6       11.671419   0.000000
    7       11.906675   0.000000
    8       15.748295   0.000000
 
 -0.2916667E+00  0.4166667E-01  0.0000000E+00  0.1736111E-02
    1       -7.515964   1.000000
    2        0.429541   1.000000
    3        4.957504   1.000000
    4        5.502268   1.000000
    5       10.239025   0.000000
    6       11.605352   0.000000
    7       11.945737   0.000000
    8       15.510580   0.000000
 
 -0.2500000E+00  0.4166667E-01  0.0000000E+00  0.1736111E-02
    1       -7.894156   1.000000
    2        1.388314   1.000000
    3        5.127937   1.000000
    4        5.731830   1.000000
    5       10.326734   0.000000
    6       11.474077   0.000000
    7       11.907565   0.000000
    8       15.152438   0.000000
 
 -0.2083333E+00  0.4166667E-01  0.0000000E+00  0.1736111E-02
    1       -8.227705   1.000000
    2        2.396444   1.000000
    3        5.336930   1.000000
    4        5.981105   1.000000
    5       10.418052   0.000000
    6       11.263362   0.000000
    7       11.764049   0.000000
    8       14.703905   0.000000
 
 -0.1666667E+00  0.4166667E-01  0.0000000E+00  0.1736111E-02
    1       -8.509919   1.000000
    2        3.431268   1.000000
    3        5.579662   1.000000
    4        6.237504   1.000000
    5       10.496820   0.000000
    6       10.986705   0.000000
    7       11.516922   0.000000
    8       14.187726   0.000000
 
 -0.1250000E+00  0.4166667E-01  0.0000000E+00  0.1736111E-02
    1       -8.736817   1.000000
    2        4.461214   1.000000
    3        5.848341   1.000000
    4        6.480370   1.000000
    5       10.531998   0.000000
    6       10.686412   0.000000
    7       11.205232   0.000000
    8       13.625564   0.000000
 
 -0.8333333E-01  0.4166667E-01  0.0000000E+00  0.1736111E-02
    1       -8.906051   1.000000
    2        5.429148   1.000000
    3        6.132629   1.000000
    4        6.677543   1.000000
    5       10.424017   0.000000
    6       10.476048   0.000000
    7       10.888106   0.000000
    8       13.073866   0.000000
 
 -0.4166667E-01  0.4166667E-01  0.0000000E+00  0.8680556E-03
    1       -9.016158   1.000000
    2        6.193855   1.000000
    3        6.444622   1.000000
    4        6.786756   1.000000
    5       10.266696   0.000000
    6       10.337110   0.000000
    7       10.581378   0.000000
    8       12.643049   0.000000
 
  0.8333333E-01  0.8333333E-01  0.0000000E+00  0.4340278E-03
    1       -8.935871   1.000000
    2        6.149388   1.000000
    3        6.165483   1.000000
    4        6.165483   1.000000
    5        9.787698   0.000000
    6       11.027051   0.000000
    7       11.027051   0.000000
    8       12.814621   0.000000
 
  0.1250000E+00  0.8333333E-01  0.0000000E+00  0.1736111E-02
    1       -8.825877   1.000000
    2        5.376402   1.000000
    3        5.884557   1.000000
    4        6.152759   1.000000
    5        9.735513   0.000000
    6       11.300748   0.000000
    7       11.404699   0.000000
    8       13.096507   0.000000
 
  0.1666667E+00  0.8333333E-01  0.0000000E+00  0.1736111E-02
    1       -8.656867   1.000000
    2        4.435852   1.000000
    3        5.604904   1.000000
    4        6.019463   1.000000
    5        9.859443   0.000000
    6       11.401513   0.000000
    7       11.786230   0.000000
    8       13.503170   0.000000
 
  0.2083333E+00  0.8333333E-01  0.0000000E+00  0.1736111E-02
    1       -8.430326   1.000000
    2        3.430569   1.000000
    3        5.345336   1.000000
    4        5.802738   1.000000
    5       10.060668   0.000000
    6       11.424345   0.000000
    7       12.122635   0.000000
    8       13.882612   0.000000
 
  0.2500000E+00  0.8333333E-01  0.0000000E+00  0.1736111E-02
    1       -8.148604   1.000000
    2        2.414468   1.000000
    3        5.117590   1.000000
    4        5.546758   1.000000
    5       10.236157   0.000000
    6       11.451191   0.000000
    7       12.371283   0.000000
    8       14.192183   0.000000
 
  0.2916667E+00  0.8333333E-01  0.0000000E+00  0.1736111E-02
    1       -7.815724   1.000000
    2        1.420386   1.000000
    3        4.928834   1.000000
    4        5.281820   1.000000
    5       10.327675   0.000000
    6       11.500891   0.000000
    7       12.507662   0.000000
    8       14.497785   0.000000
 
  0.3333333E+00  0.8333333E-01  0.0000000E+00  0.1736111E-02
    1       -7.438405   1.000000
    2        0.472260   1.000000
    3        4.783340   1.000000
    4        5.026520   1.000000
    5       10.345241   0.000000
    6       11.544150   0.000000
    7       12.535238   0.000000
    8       14.862135   0.000000
 
  0.3750000E+00  0.8333333E-01  0.0000000E+00  0.1736111E-02
    1       -7.028828   1.000000
    2       -0.407189   1.000000
    3        4.683442   1.000000
    4        4.792233   1.000000
    5       10.327098   0.000000
    6       11.560953   0.000000
    7       12.480854   0.000000
    8       15.271795   0.000000
 
  0.4166667E+00  0.8333333E-01  0.0000000E+00  0.1736111E-02
    1       -6.609973   1.000000
    2       -1.188092   1.000000
    3        4.586418   1.000000
    4        4.630145   1.000000
    5       10.302371   0.000000
    6       11.561264   0.000000
    7       12.379230   0.000000
    8       15.651541   0.000000
 
  0.4583333E+00  0.8333333E-01  0.0000000E+00  0.1736111E-02
    1       -6.227138   1.000000
    2       -1.820825   1.000000
    3        4.414321   1.000000
    4        4.623460   1.000000
    5       10.286718   0.000000
    6       11.565452   0.000000
    7       12.260476   0.000000
    8       15.927363   0.000000
 
  0.5000000E+00  0.8333333E-01  0.0000000E+00  0.1736111E-02
    1       -5.963304   1.000000
    2       -2.219713   1.000000
    3        4.279829   1.000000
    4        4.662502   1.000000
    5       10.287062   0.000000
    6       11.590130   0.000000
    7       12.145311   0.000000
    8       16.082674   0.000000
 
 -0.4583333E+00  0.8333333E-01  0.0000000E+00  0.1736111E-02
    1       -5.920984   1.000000
    2       -2.280971   1.000000
    3        4.186038   1.000000
    4        4.745763   1.000000
    5       10.305472   0.000000
    6       11.645015   0.000000
    7       12.044915   0.000000
    8       16.141685   0.000000
 
 -0.4166667E+00  0.8333333E-01  0.0000000E+00  0.1736111E-02
    1       -6.121648   1.000000
    2       -1.982910   1.000000
    3        4.135428   1.000000
    4        4.871044   1.000000
    5       10.341413   0.000000
    6       11.732600   0.000000
    7       11.961433   0.000000
    8       16.117697   0.000000
 
 -0.3750000E+00  0.8333333E-01  0.0000000E+00  0.1736111E-02
    1       -6.476415   1.000000
    2       -1.415434   1.000000
    3        4.129951   1.000000
    4        5.035329   1.000000
    5       10.393213   0.000000
    6       11.847220   0.000000
    7       11.888074   0.000000
    8       15.995145   0.000000
 
 -0.3333333E+00  0.8333333E-01  0.0000000E+00  0.1736111E-02
    1       -6.889871   1.000000
    2       -0.676203   1.000000
    3        4.171054   1.000000
    4        5.234762   1.000000
    5       10.458785   0.000000
    6       11.808892   0.000000
    7       11.972774   0.000000
    8       15.750731   0.000000
 
 -0.2916667E+00  0.8333333E-01  0.0000000E+00  0.1736111E-02
    1       -7.305784   1.000000
    2        0.174531   1.000000
    3        4.259702   1.000000
    4        5.464074   1.000000
    5       10.535237   0.000000
    6       11.700044   0.000000
    7       12.078873   0.000000
    8       15.396665   0.000000
 
 -0.2500000E+00  0.8333333E-01  0.0000000E+00  0.1736111E-02
    1       -7.695426   1.000000
    2        1.101573   1.000000
    3        4.396379   1.000000
    4        5.715921   1.000000
    5       10.617628   0.000000
    6       11.536593   0.000000
    7       12.118935   0.000000
    8       14.993216   0.000000
 
 -0.2083333E+00  0.8333333E-01  0.0000000E+00  0.1736111E-02
    1       -8.043907   1.000000
    2        2.079380   1.000000
    3        4.581453   1.000000
    4        5.979398   1.000000
    5       10.696336   0.000000
    6       11.306847   0.000000
    7       12.041618   0.000000
    8       14.604217   0.000000
 
 -0.1666667E+00  0.8333333E-01  0.0000000E+00  0.1736111E-02
    1       -8.343063   1.000000
    2        3.080611   1.000000
    3        4.816674   1.000000
    4        6.237730   1.000000
    5       10.752086   0.000000
    6       11.027033   0.000000
    7       11.829341   0.000000
    8       14.241588   0.000000
 
 -0.1250000E+00  0.8333333E-01  0.0000000E+00  0.1736111E-02
    1       -8.588171   1.000000
    2        4.059920   1.000000
    3        5.112810   1.000000
    4        6.465112   1.000000
    5       10.743399   0.000000
    6       10.748327   0.000000
    7       11.530085   0.000000
    8       13.862862   0.000000
 
 -0.8333333E-01  0.8333333E-01  0.0000000E+00  0.8680556E-03
    1       -8.776408   1.000000
    2        4.900335   1.000000
    3        5.529505   1.000000
    4        6.624968   1.000000
    5       10.520944   0.000000
    6       10.641676   0.000000
    7       11.219039   0.000000
    8       13.450719   0.000000
 
  0.1250000E+00  0.1250000E+00  0.0000000E+00  0.4340278E-03
    1       -8.735848   1.000000
    2        5.433448   1.000000
    3        5.590996   1.000000
    4        5.590997   1.000000
    5        9.443560   0.000000
    6       11.814777   0.000000
    7       11.814777   0.000000
    8       13.061539   0.000000
 
  0.1666667E+00  0.1250000E+00  0.0000000E+00  0.1736111E-02
    1       -8.586697   1.000000
    2        4.660367   1.000000
    3        5.302874   1.000000
    4        5.520111   1.000000
    5        9.381404   0.000000
    6       12.082718   0.000000
    7       12.231674   0.000000
    8       13.187249   0.000000
 
  0.2083333E+00  0.1250000E+00  0.0000000E+00  0.1736111E-02
    1       -8.379631   1.000000
    2        3.727339   1.000000
    3        5.037997   1.000000
    4        5.373689   1.000000
    5        9.508951   0.000000
    6       12.115805   0.000000
    7       12.608520   0.000000
    8       13.380097   0.000000
 
  0.2500000E+00  0.1250000E+00  0.0000000E+00  0.1736111E-02
    1       -8.116704   1.000000
    2        2.752760   1.000000
    3        4.807621   1.000000
    4        5.142249   1.000000
    5        9.726868   0.000000
    6       12.088201   0.000000
    7       12.900784   0.000000
    8       13.519932   0.000000
 
  0.2916667E+00  0.1250000E+00  0.0000000E+00  0.1736111E-02
    1       -7.801333   1.000000
    2        1.779388   1.000000
    3        4.618875   1.000000
    4        4.870238   1.000000
    5        9.933389   0.000000
    6       12.077161   0.000000
    7       13.076916   0.000000
    8       13.670407   0.000000
 
  0.3333333E+00  0.1250000E+00  0.0000000E+00  0.1736111E-02
    1       -7.439185   1.000000
    2        0.836575   1.000000
    3        4.476134   1.000000
    4        4.588975   1.000000
    5       10.070007   0.000000
    6       12.076765   0.000000
    7       13.131484   0.000000
    8       13.943142   0.000000
 
  0.3750000E+00  0.1250000E+00  0.0000000E+00  0.1736111E-02
    1       -7.040305   1.000000
    2       -0.050958   1.000000
    3        4.317915   1.000000
    4        4.381865   1.000000
    5       10.138520   0.000000
    6       12.059285   0.000000
    7       13.086131   0.000000
    8       14.381188   0.000000
 
  0.4166667E+00  0.1250000E+00  0.0000000E+00  0.1736111E-02
    1       -6.623226   1.000000
    2       -0.855221   1.000000
    3        4.069342   1.000000
    4        4.337244   1.000000
    5       10.172396   0.000000
    6       12.024021   0.000000
    7       12.975812   0.000000
    8       14.937230   0.000000
 
  0.4583333E+00  0.1250000E+00  0.0000000E+00  0.1736111E-02
    1       -6.224168   1.000000
    2       -1.534027   1.000000
    3        3.851470   1.000000
    4        4.342343   1.000000
    5       10.202854   0.000000
    6       11.987889   0.000000
    7       12.833710   0.000000
    8       15.515299   0.000000
 
  0.5000000E+00  0.1250000E+00  0.0000000E+00  0.1736111E-02
    1       -5.912086   1.000000
    2       -2.014576   1.000000
    3        3.670287   1.000000
    4        4.396338   1.000000
    5       10.248609   0.000000
    6       11.966703   0.000000
    7       12.684212   0.000000
    8       16.000851   0.000000
 
 -0.4583333E+00  0.1250000E+00  0.0000000E+00  0.1736111E-02
    1       -5.789285   1.000000
    2       -2.192613   1.000000
    3        3.530302   1.000000
    4        4.497490   1.000000
    5       10.317409   0.000000
    6       11.971269   0.000000
    7       12.541447   0.000000
    8       16.292243   0.000000
 
 -0.4166667E+00  0.1250000E+00  0.0000000E+00  0.1736111E-02
    1       -5.914937   1.000000
    2       -2.008294   1.000000
    3        3.435222   1.000000
    4        4.643253   1.000000
    5       10.409340   0.000000
    6       12.008408   0.000000
    7       12.410199   0.000000
    8       16.343704   0.000000
 
 -0.3750000E+00  0.1250000E+00  0.0000000E+00  0.1736111E-02
    1       -6.228462   1.000000
    2       -1.523080   1.000000
    3        3.388031   1.000000
    4        4.829984   1.000000
    5       10.519289   0.000000
    6       12.080615   0.000000
    7       12.285949   0.000000
    8       16.159296   0.000000
 
 -0.3333333E+00  0.1250000E+00  0.0000000E+00  0.1736111E-02
    1       -6.627797   1.000000
    2       -0.841438   1.000000
    3        3.391317   1.000000
    4        5.052669   1.000000
    5       10.639035   0.000000
    6       12.155022   0.000000
    7       12.182993   0.000000
    8       15.780692   0.000000
 
 -0.2916667E+00  0.1250000E+00  0.0000000E+00  0.1736111E-02
    1       -7.044576   1.000000
    2       -0.036537   1.000000
    3        3.447731   1.000000
    4        5.304541   1.000000
    5       10.759201   0.000000
    6       11.996168   0.000000
    7       12.295934   0.000000
    8       15.291461   0.000000
 
 -0.2500000E+00  0.1250000E+00  0.0000000E+00  0.1736111E-02
    1       -7.442937   1.000000
    2        0.847179   1.000000
    3        3.560885   1.000000
    4        5.575990   1.000000
    5       10.869366   0.000000
    6       11.787781   0.000000
    7       12.373020   0.000000
    8       14.798243   0.000000
 
 -0.2083333E+00  0.1250000E+00  0.0000000E+00  0.1736111E-02
    1       -7.804496   1.000000
    2        1.774586   1.000000
    3        3.738449   1.000000
    4        5.853058   1.000000
    5       10.955313   0.000000
    6       11.522915   0.000000
    7       12.335902   0.000000
    8       14.410837   0.000000
 
 -0.1666667E+00  0.1250000E+00  0.0000000E+00  0.1736111E-02
    1       -8.119279   1.000000
    2        2.696796   1.000000
    3        4.003774   1.000000
    4        6.115005   1.000000
    5       10.991372   0.000000
    6       11.223752   0.000000
    7       12.131689   0.000000
    8       14.184909   0.000000
 
 -0.1250000E+00  0.1250000E+00  0.0000000E+00  0.8680556E-03
    1       -8.381641   1.000000
    2        3.503397   1.000000
    3        4.434568   1.000000
    4        6.331794   1.000000
    5       10.932217   0.000000
    6       10.941837   0.000000
    7       11.828842   0.000000
    8       14.042341   0.000000
 
  0.1666667E+00  0.1666667E+00  0.0000000E+00  0.4340278E-03
    1       -8.457402   1.000000
    2        4.590511   1.000000
    3        5.007088   1.000000
    4        5.007088   1.000000
    5        9.088524   0.000000
    6       12.691102   0.000000
    7       12.691102   0.000000
    8       12.880761   0.000000
 
  0.2083333E+00  0.1666667E+00  0.0000000E+00  0.1736111E-02
    1       -8.270013   1.000000
    2        3.884547   1.000000
    3        4.735276   1.000000
    4        4.852541   1.000000
    5        9.033867   0.000000
    6       12.567200   0.000000
    7       13.119023   0.000000
    8       13.148727   0.000000
 
  0.2500000E+00  0.1666667E+00  0.0000000E+00  0.1736111E-02
    1       -8.026331   1.000000
    2        3.006491   1.000000
    3        4.498914   1.000000
    4        4.661914   1.000000
    5        9.173144   0.000000
    6       12.370408   0.000000
    7       13.354326   0.000000
    8       13.469443   0.000000
 
  0.2916667E+00  0.1666667E+00  0.0000000E+00  0.1736111E-02
    1       -7.729268   1.000000
    2        2.090955   1.000000
    3        4.305430   1.000000
    4        4.395753   1.000000
    5        9.399116   0.000000
    6       12.312126   0.000000
    7       13.416556   0.000000
    8       13.703958   0.000000
 
  0.3333333E+00  0.1666667E+00  0.0000000E+00  0.1736111E-02
    1       -7.383688   1.000000
    2        1.180823   1.000000
    3        4.094403   1.000000
    4        4.159481   1.000000
    5        9.604307   0.000000
    6       12.418215   0.000000
    7       13.449435   0.000000
    8       13.806470   0.000000
 
  0.3750000E+00  0.1666667E+00  0.0000000E+00  0.1736111E-02
    1       -6.997985   1.000000
    2        0.306521   1.000000
    3        3.788905   1.000000
    4        4.063872   1.000000
    5        9.737396   0.000000
    6       12.604468   0.000000
    7       13.602694   0.000000
    8       13.790535   0.000000
 
  0.4166667E+00  0.1666667E+00  0.0000000E+00  0.1736111E-02
    1       -6.587322   1.000000
    2       -0.502727   1.000000
    3        3.498859   1.000000
    4        4.019982   1.000000
    5        9.813891   0.000000
    6       12.701892   0.000000
    7       13.689400   0.000000
    8       14.025729   0.000000
 
  0.4583333E+00  0.1666667E+00  0.0000000E+00  0.1736111E-02
    1       -6.180802   1.000000
    2       -1.208768   1.000000
    3        3.236737   1.000000
    4        4.028135   1.000000
    5        9.872976   0.000000
    6       12.701927   0.000000
    7       13.539078   0.000000
    8       14.666987   0.000000
 
  0.5000000E+00  0.1666667E+00  0.0000000E+00  0.1736111E-02
    1       -5.834626   1.000000
    2       -1.749650   1.000000
    3        3.011007   1.000000
    4        4.087646   1.000000
    5        9.944429   0.000000
    6       12.672503   0.000000
    7       13.367720   0.000000
    8       15.382709   0.000000
 
 -0.4583333E+00  0.1666667E+00  0.0000000E+00  0.1736111E-02
    1       -5.642266   1.000000
    2       -2.028609   1.000000
    3        2.827873   1.000000
    4        4.196922   1.000000
    5       10.043764   0.000000
    6       12.647830   0.000000
    7       13.192826   0.000000
    8       16.023935   0.000000
 
 -0.4166667E+00  0.1666667E+00  0.0000000E+00  0.1736111E-02
    1       -5.687904   1.000000
    2       -1.960234   1.000000
    3        2.692161   1.000000
    4        4.353275   1.000000
    5       10.175905   0.000000
    6       12.642630   0.000000
    7       13.021264   0.000000
    8       16.376137   0.000000
 
 -0.3750000E+00  0.1666667E+00  0.0000000E+00  0.1736111E-02
    1       -5.948466   1.000000
    2       -1.568330   1.000000
    3        2.608114   1.000000
    4        4.552856   1.000000
    5       10.338423   0.000000
    6       12.664058   0.000000
    7       12.849970   0.000000
    8       16.265365   0.000000
 
 -0.3333333E+00  0.1666667E+00  0.0000000E+00  0.1736111E-02
    1       -6.324897   1.000000
    2       -0.955251   1.000000
    3        2.580098   1.000000
    4        4.790125   1.000000
    5       10.522706   0.000000
    6       12.666101   0.000000
    7       12.713748   0.000000
    8       15.808171   0.000000
 
 -0.2916667E+00  0.1666667E+00  0.0000000E+00  0.1736111E-02
    1       -6.736929   1.000000
    2       -0.208598   1.000000
    3        2.614138   1.000000
    4        5.057377   1.000000
    5       10.714366   0.000000
    6       12.449598   0.000000
    7       12.783117   0.000000
    8       15.212497   0.000000
 
 -0.2500000E+00  0.1666667E+00  0.0000000E+00  0.1736111E-02
    1       -7.140395   1.000000
    2        0.611374   1.000000
    3        2.721955   1.000000
    4        5.343438   1.000000
    5       10.892688   0.000000
    6       12.182036   0.000000
    7       12.834788   0.000000
    8       14.630965   0.000000
 