 running on   48 total cores
 distrk:  each k-point on   12 cores,    4 groups
 distr:  one band on   12 cores,    1 groups
 using from now: INCAR     
 vasp.5.4.4.18Apr17-6-g9f103f2a35 (build Nov 04 2020 14:40:39) complex          
  
 POSCAR found type information on POSCAR  B  As
 POSCAR found :  2 types and       2 ions
 scaLAPACK will be used

 ----------------------------------------------------------------------------- 
|                                                                             |
|           W    W    AA    RRRRR   N    N  II  N    N   GGGG   !!!           |
|           W    W   A  A   R    R  NN   N  II  NN   N  G    G  !!!           |
|           W    W  A    A  R    R  N N  N  II  N N  N  G       !!!           |
|           W WW W  AAAAAA  RRRRR   N  N N  II  N  N N  G  GGG   !            |
|           WW  WW  A    A  R   R   N   NN  II  N   NN  G    G                |
|           W    W  A    A  R    R  N    N  II  N    N   GGGG   !!!           |
|                                                                             |
|      You have enabled k-point parallelism (KPAR>1).                         |
|      This developmental code was originally  written by Paul Kent at ORNL,  |
|      and carefully double checked in Vienna.                                |
|      GW as well as linear response parallelism added by Martijn Marsman     |
|      and Georg Kresse.                                                      |
|      Carefully verify results versus KPAR=1.                                |
|      Report problems to Paul Kent and Vienna.                               |
|                                                                             |
 ----------------------------------------------------------------------------- 

 LDA part: xc-table for Pade appr. of Perdew
 POSCAR found type information on POSCAR  B  As
 POSCAR found :  2 types and       2 ions
 generate k-points for:   24   24   24
 POSCAR, INCAR and KPOINTS ok, starting setup
 FFT: planning ...
 WAVECAR not read
 entering main loop
       N       E                     dE             d eps       ncg     rms          rms(c)
DAV:   1     0.977114151056E+01    0.97711E+01   -0.39983E+03  6640   0.874E+02
DAV:   2    -0.118249631059E+02   -0.21596E+02   -0.20882E+02 10032   0.105E+02
DAV:   3    -0.120825629448E+02   -0.25760E+00   -0.25760E+00  7720   0.136E+01
DAV:   4    -0.120828901287E+02   -0.32718E-03   -0.32718E-03  9984   0.465E-01
DAV:   5    -0.120828904711E+02   -0.34237E-06   -0.34237E-06  7656   0.595E-03    0.432E+00
RMM:   6    -0.113725735242E+02    0.71032E+00   -0.77697E-01  6691   0.604E+00    0.178E+00
RMM:   7    -0.112959992459E+02    0.76574E-01   -0.14146E-01  7053   0.256E+00    0.744E-01
RMM:   8    -0.112883676665E+02    0.76316E-02   -0.22720E-02  7275   0.114E+00    0.839E-02
RMM:   9    -0.112886316672E+02   -0.26400E-03   -0.39990E-04  7793   0.164E-01    0.365E-02
RMM:  10    -0.112887065567E+02   -0.74889E-04   -0.12251E-04  7393   0.939E-02    0.102E-02
RMM:  11    -0.112887089820E+02   -0.24254E-05   -0.33905E-05  7335   0.376E-02    0.106E-02
RMM:  12    -0.112887031505E+02    0.58315E-05   -0.86274E-06  7454   0.196E-02    0.295E-04
RMM:  13    -0.112887031698E+02   -0.19318E-07   -0.10598E-07  4920   0.257E-03
   1 F= -.11288703E+02 E0= -.11288703E+02  d E =0.000000E+00
