    2    2    1    1
  0.2355867E+02  0.4054139E-09  0.4054139E-09  0.4054139E-09  0.0000000E+00
  1.000000000000000E-004
  CAR 
 unknown system                          
      8    220      8
 
  0.0000000E+00  0.0000000E+00  0.0000000E+00  0.1457938E-03
    1       -8.064754   1.000000
    2        3.574455   1.000000
    3        3.574455   1.000000
    4        3.574455   1.000000
    5        5.358207   0.000000
    6        7.793439   0.000000
    7        7.793439   0.000000
    8        7.793439   0.000000
 
  0.5263158E-01  0.0000000E+00  0.0000000E+00  0.1166351E-02
    1       -8.038553   1.000000
    2        3.201599   1.000000
    3        3.544093   1.000000
    4        3.544093   1.000000
    5        5.646393   0.000000
    6        7.820559   0.000000
    7        7.848523   0.000000
    8        7.848524   0.000000
 
  0.1052632E+00  0.0000000E+00  0.0000000E+00  0.1166351E-02
    1       -7.960826   1.000000
    2        2.458908   1.000000
    3        3.460620   1.000000
    4        3.460620   1.000000
    5        6.061245   0.000000
    6        7.996074   0.000000
    7        7.996074   0.000000
    8        8.003560   0.000000
 
  0.1578947E+00  0.0000000E+00  0.0000000E+00  0.1166351E-02
    1       -7.834582   1.000000
    2        1.640533   1.000000
    3        3.342377   1.000000
    4        3.342378   1.000000
    5        6.213204   0.000000
    6        8.185915   0.000000
    7        8.185915   0.000000
    8        8.496005   0.000000
 
  0.2105263E+00  0.0000000E+00  0.0000000E+00  0.1166351E-02
    1       -7.665371   1.000000
    2        0.833026   1.000000
    3        3.209903   1.000000
    4        3.209903   1.000000
    5        6.145182   0.000000
    6        8.346789   0.000000
    7        8.346790   0.000000
    8        9.218034   0.000000
 
  0.2631579E+00  0.0000000E+00  0.0000000E+00  0.1166351E-02
    1       -7.462544   1.000000
    2        0.075738   1.000000
    3        3.080329   1.000000
    4        3.080330   1.000000
    5        5.999885   0.000000
    6        8.419844   0.000000
    7        8.419844   0.000000
    8       10.006337   0.000000
 
  0.3157895E+00  0.0000000E+00  0.0000000E+00  0.1166351E-02
    1       -7.241019   1.000000
    2       -0.601315   1.000000
    3        2.965911   1.000000
    4        2.965911   1.000000
    5        5.849336   0.000000
    6        8.401749   0.000000
    7        8.401749   0.000000
    8       10.711629   0.000000
 
  0.3684211E+00  0.0000000E+00  0.0000000E+00  0.1166351E-02
    1       -7.023818   1.000000
    2       -1.166241   1.000000
    3        2.874707   1.000000
    4        2.874707   1.000000
    5        5.723318   0.000000
    6        8.335777   0.000000
    7        8.335777   0.000000
    8       11.132048   0.000000
 
  0.4210526E+00  0.0000000E+00  0.0000000E+00  0.1166351E-02
    1       -6.843716   1.000000
    2       -1.580802   1.000000
    3        2.811651   1.000000
    4        2.811651   1.000000
    5        5.634753   0.000000
    6        8.267998   0.000000
    7        8.267998   0.000000
    8       11.246063   0.000000
 
  0.4736842E+00  0.0000000E+00  0.0000000E+00  0.1166351E-02
    1       -6.739243   1.000000
    2       -1.803254   1.000000
    3        2.779507   1.000000
    4        2.779508   1.000000
    5        5.589358   0.000000
    6        8.227593   0.000000
    7        8.227593   0.000000
    8       11.252294   0.000000
 
  0.5263158E-01  0.5263158E-01  0.0000000E+00  0.8747631E-03
    1       -8.029801   1.000000
    2        3.192756   1.000000
    3        3.475095   1.000000
    4        3.475095   1.000000
    5        5.758251   0.000000
    6        7.660068   0.000000
    7        7.946547   0.000000
    8        7.946548   0.000000
 
  0.1052632E+00  0.5263158E-01  0.0000000E+00  0.3499052E-02
    1       -7.969204   1.000000
    2        2.626419   1.000000
    3        3.360123   1.000000
    4        3.421492   1.000000
    5        6.154589   0.000000
    6        7.595954   0.000000
    7        8.134044   0.000000
    8        8.154979   0.000000
 
  0.1578947E+00  0.5263158E-01  0.0000000E+00  0.3499052E-02
    1       -7.859039   1.000000
    2        1.864463   1.000000
    3        3.221069   1.000000
    4        3.340482   1.000000
    5        6.400765   0.000000
    6        7.710118   0.000000
    7        8.360961   0.000000
    8        8.523788   0.000000
 
  0.2105263E+00  0.5263158E-01  0.0000000E+00  0.3499052E-02
    1       -7.703897   1.000000
    2        1.073905   1.000000
    3        3.078701   1.000000
    4        3.217047   1.000000
    5        6.386656   0.000000
    6        7.951760   0.000000
    7        8.557593   0.000000
    8        9.047894   0.000000
 
  0.2631579E+00  0.5263158E-01  0.0000000E+00  0.3499052E-02
    1       -7.511741   1.000000
    2        0.312743   1.000000
    3        2.948951   1.000000
    4        3.072627   1.000000
    5        6.256223   0.000000
    6        8.139453   0.000000
    7        8.658840   0.000000
    8        9.645530   0.000000
 
  0.3157895E+00  0.5263158E-01  0.0000000E+00  0.3499052E-02
    1       -7.295364   1.000000
    2       -0.383447   1.000000
    3        2.842588   1.000000
    4        2.926880   1.000000
    5        6.105811   0.000000
    6        8.201845   0.000000
    7        8.648242   0.000000
    8       10.257031   0.000000
 
  0.3684211E+00  0.5263158E-01  0.0000000E+00  0.3499052E-02
    1       -7.074777   1.000000
    2       -0.982051   1.000000
    3        2.766238   1.000000
    4        2.794058   1.000000
    5        5.973192   0.000000
    6        8.180595   0.000000
    7        8.564542   0.000000
    8       10.827644   0.000000
 
  0.4210526E+00  0.5263158E-01  0.0000000E+00  0.3499052E-02
    1       -6.879375   1.000000
    2       -1.446151   1.000000
    3        2.683784   1.000000
    4        2.723474   1.000000
    5        5.874015   0.000000
    6        8.140408   0.000000
    7        8.459434   0.000000
    8       11.211287   0.000000
 
  0.4736842E+00  0.5263158E-01  0.0000000E+00  0.3499052E-02
    1       -6.746560   1.000000
    2       -1.733848   1.000000
    3        2.602473   1.000000
    4        2.715604   1.000000
    5        5.815293   0.000000
    6        8.122601   0.000000
    7        8.369694   0.000000
    8       11.351150   0.000000
 
 -0.4736842E+00  0.5263158E-01  0.0000000E+00  0.3499052E-02
    1       -6.710396   1.000000
    2       -1.808782   1.000000
    3        2.554354   1.000000
    4        2.742239   1.000000
    5        5.800045   0.000000
    6        8.145764   0.000000
    7        8.314803   0.000000
    8       11.379389   0.000000
 
 -0.4210526E+00  0.5263158E-01  0.0000000E+00  0.3499052E-02
    1       -6.781656   1.000000
    2       -1.659628   1.000000
    3        2.542103   1.000000
    4        2.801530   1.000000
    5        5.828971   0.000000
    6        8.213055   0.000000
    7        8.300534   0.000000
    8       11.352101   0.000000
 
 -0.3684211E+00  0.5263158E-01  0.0000000E+00  0.3499052E-02
    1       -6.939747   1.000000
    2       -1.308177   1.000000
    3        2.567093   1.000000
    4        2.890197   1.000000
    5        5.900732   0.000000
    6        8.314427   0.000000
    7        8.319975   0.000000
    8       11.191821   0.000000
 
 -0.3157895E+00  0.5263158E-01  0.0000000E+00  0.3499052E-02
    1       -7.147453   1.000000
    2       -0.794742   1.000000
    3        2.629346   1.000000
    4        3.003258   1.000000
    5        6.011156   0.000000
    6        8.350951   0.000000
    7        8.422900   0.000000
    8       10.763972   0.000000
 
 -0.2631579E+00  0.5263158E-01  0.0000000E+00  0.3499052E-02
    1       -7.369394   1.000000
    2       -0.160355   1.000000
    3        2.727236   1.000000
    4        3.133381   1.000000
    5        6.150550   0.000000
    6        8.353676   0.000000
    7        8.485122   0.000000
    8       10.136004   0.000000
 
 -0.2105263E+00  0.5263158E-01  0.0000000E+00  0.3499052E-02
    1       -7.579485   1.000000
    2        0.559295   1.000000
    3        2.857026   1.000000
    4        3.269967   1.000000
    5        6.296325   0.000000
    6        8.284737   0.000000
    7        8.417129   0.000000
    8        9.482950   0.000000
 
 -0.1578947E+00  0.5263158E-01  0.0000000E+00  0.3499052E-02
    1       -7.760391   1.000000
    2        1.329931   1.000000
    3        3.012381   1.000000
    4        3.398168   1.000000
    5        6.391981   0.000000
    6        8.140290   0.000000
    7        8.164018   0.000000
    8        8.922144   0.000000
 
 -0.1052632E+00  0.5263158E-01  0.0000000E+00  0.3499052E-02
    1       -7.901184   1.000000
    2        2.106407   1.000000
    3        3.185136   1.000000
    4        3.498938   1.000000
    5        6.310726   0.000000
    6        7.873513   0.000000
    7        7.975479   0.000000
    8        8.476707   0.000000
 
 -0.5263158E-01  0.5263158E-01  0.0000000E+00  0.1749526E-02
    1       -7.995148   1.000000
    2        2.796275   1.000000
    3        3.372305   1.000000
    4        3.552168   1.000000
    5        5.971719   0.000000
    6        7.776558   0.000000
    7        7.862188   0.000000
    8        8.114431   0.000000
 
  0.1052632E+00  0.1052632E+00  0.0000000E+00  0.8747631E-03
    1       -7.926006   1.000000
    2        2.468916   1.000000
    3        3.218102   1.000000
    4        3.218102   1.000000
    5        6.508218   0.000000
    6        7.324892   0.000000
    7        8.363396   0.000000
    8        8.363396   0.000000
 
  0.1578947E+00  0.1052632E+00  0.0000000E+00  0.3499052E-02
    1       -7.832815   1.000000
    2        1.924429   1.000000
    3        3.059021   1.000000
    4        3.104063   1.000000
    5        6.821922   0.000000
    6        7.225732   0.000000
    7        8.635313   0.000000
    8        8.682749   0.000000
 
  0.2105263E+00  0.1052632E+00  0.0000000E+00  0.3499052E-02
    1       -7.693428   1.000000
    2        1.229110   1.000000
    3        2.903942   1.000000
    4        2.981995   1.000000
    5        6.831479   0.000000
    6        7.431572   0.000000
    7        8.882668   0.000000
    8        9.024304   0.000000
 
  0.2631579E+00  0.1052632E+00  0.0000000E+00  0.3499052E-02
    1       -7.514622   1.000000
    2        0.511872   1.000000
    3        2.768255   1.000000
    4        2.820439   1.000000
    5        6.700107   0.000000
    6        7.746692   0.000000
    7        9.034177   0.000000
    8        9.243648   0.000000
 
  0.3157895E+00  0.1052632E+00  0.0000000E+00  0.3499052E-02
    1       -7.307375   1.000000
    2       -0.170314   1.000000
    3        2.639183   1.000000
    4        2.662125   1.000000
    5        6.553940   0.000000
    6        7.966275   0.000000
    7        9.055811   0.000000
    8        9.503598   0.000000
 
  0.3684211E+00  0.1052632E+00  0.0000000E+00  0.3499052E-02
    1       -7.088996   1.000000
    2       -0.777584   1.000000
    3        2.460524   1.000000
    4        2.591669   1.000000
    5        6.423581   0.000000
    6        8.024400   0.000000
    7        8.975870   0.000000
    8        9.978291   0.000000
 
  0.4210526E+00  0.1052632E+00  0.0000000E+00  0.3499052E-02
    1       -6.885324   1.000000
    2       -1.271286   1.000000
    3        2.300690   1.000000
    4        2.559990   1.000000
    5        6.323612   0.000000
    6        8.004475   0.000000
    7        8.849910   0.000000
    8       10.599168   0.000000
 
  0.4736842E+00  0.1052632E+00  0.0000000E+00  0.3499052E-02
    1       -6.731004   1.000000
    2       -1.609285   1.000000
    3        2.170525   1.000000
    4        2.567875   1.000000
    5        6.261766   0.000000
    6        7.987059   0.000000
    7        8.722768   0.000000
    8       11.198904   0.000000
 
 -0.4736842E+00  0.1052632E+00  0.0000000E+00  0.3499052E-02
    1       -6.662039   1.000000
    2       -1.751548   1.000000
    3        2.077362   1.000000
    4        2.614212   1.000000
    5        6.241587   0.000000
    6        8.007254   0.000000
    7        8.620571   0.000000
    8       11.553457   0.000000
 
 -0.4210526E+00  0.1052632E+00  0.0000000E+00  0.3499052E-02
    1       -6.698026   1.000000
    2       -1.677106   1.000000
    3        2.026386   1.000000
    4        2.696092   1.000000
    5        6.263727   0.000000
    6        8.075599   0.000000
    7        8.554292   0.000000
    8       11.571575   0.000000
 
 -0.3684211E+00  0.1052632E+00  0.0000000E+00  0.3499052E-02
    1       -6.828412   1.000000
    2       -1.397707   1.000000
    3        2.021453   1.000000
    4        2.808717   1.000000
    5        6.326575   0.000000
    6        8.187797   0.000000
    7        8.521923   0.000000
    8       11.263804   0.000000
 
 -0.3157895E+00  0.1052632E+00  0.0000000E+00  0.3499052E-02
    1       -7.020224   1.000000
    2       -0.950411   1.000000
    3        2.065707   1.000000
    4        2.945032   1.000000
    5        6.425868   0.000000
    6        8.322046   0.000000
    7        8.506616   0.000000
    8       10.695064   0.000000
 
 -0.2631579E+00  0.1052632E+00  0.0000000E+00  0.3499052E-02
    1       -7.237080   1.000000
    2       -0.380008   1.000000
    3        2.162181   1.000000
    4        3.095027   1.000000
    5        6.552360   0.000000
    6        8.420734   0.000000
    7        8.473491   0.000000
    8       10.062655   0.000000
 
 -0.2105263E+00  0.1052632E+00  0.0000000E+00  0.3499052E-02
    1       -7.450106   1.000000
    2        0.269045   1.000000
    3        2.315050   1.000000
    4        3.244904   1.000000
    5        6.683879   0.000000
    6        8.357824   0.000000
    7        8.381202   0.000000
    8        9.561914   0.000000
 
 -0.1578947E+00  0.1052632E+00  0.0000000E+00  0.3499052E-02
    1       -7.639510   1.000000
    2        0.947390   1.000000
    3        2.532152   1.000000
    4        3.376367   1.000000
    5        6.758812   0.000000
    6        8.076668   0.000000
    7        8.226340   0.000000
    8        9.253527   0.000000
 
 -0.1052632E+00  0.1052632E+00  0.0000000E+00  0.1749526E-02
    1       -7.792518   1.000000
    2        1.587607   1.000000
    3        2.826309   1.000000
    4        3.467716   1.000000
    5        6.638287   0.000000
    6        7.856411   0.000000
    7        8.066821   0.000000
    8        8.924227   0.000000
 
  0.1578947E+00  0.1578947E+00  0.0000000E+00  0.8747631E-03
    1       -7.756880   1.000000
    2        1.694688   1.000000
    3        2.882867   1.000000
    4        2.882867   1.000000
    5        6.889640   0.000000
    6        7.201896   0.000000
    7        8.960992   0.000000
    8        8.960992   0.000000
 
  0.2105263E+00  0.1578947E+00  0.0000000E+00  0.3499052E-02
    1       -7.634327   1.000000
    2        1.203203   1.000000
    3        2.714435   1.000000
    4        2.722434   1.000000
    5        6.757692   0.000000
    6        7.389245   0.000000
    7        9.223519   0.000000
    8        9.273957   0.000000
 
  0.2631579E+00  0.1578947E+00  0.0000000E+00  0.3499052E-02
    1       -7.470914   1.000000
    2        0.600822   1.000000
    3        2.538555   1.000000
    4        2.569243   1.000000
    5        6.718812   0.000000
    6        7.561824   0.000000
    7        9.191345   0.000000
    8        9.498328   0.000000
 
  0.3157895E+00  0.1578947E+00  0.0000000E+00  0.3499052E-02
    1       -7.276146   1.000000
    2       -0.017005   1.000000
    3        2.318772   1.000000
    4        2.457464   1.000000
    5        6.662376   0.000000
    6        7.851412   0.000000
    7        9.081495   0.000000
    8        9.579707   0.000000
 
  0.3684211E+00  0.1578947E+00  0.0000000E+00  0.3499052E-02
    1       -7.065014   1.000000
    2       -0.594638   1.000000
    3        2.088601   1.000000
    4        2.385251   1.000000
    5        6.581391   0.000000
    6        8.136670   0.000000
    7        9.167912   0.000000
    8        9.528323   0.000000
 
  0.4210526E+00  0.1578947E+00  0.0000000E+00  0.3499052E-02
    1       -6.860031   1.000000
    2       -1.087399   1.000000
    3        1.872895   1.000000
    4        2.355767   1.000000
    5        6.512261   0.000000
    6        8.216619   0.000000
    7        9.400645   0.000000
    8        9.634420   0.000000
 
  0.4736842E+00  0.1578947E+00  0.0000000E+00  0.3499052E-02
    1       -6.692288   1.000000
    2       -1.451287   1.000000
    3        1.688645   1.000000
    4        2.369865   1.000000
    5        6.478208   0.000000
    6        8.191387   0.000000
    7        9.250664   0.000000
    8       10.338293   0.000000
 
 -0.4736842E+00  0.1578947E+00  0.0000000E+00  0.3499052E-02
    1       -6.596918   1.000000
    2       -1.643918   1.000000
    3        1.547045   1.000000
    4        2.426376   1.000000
    5        6.488767   0.000000
    6        8.171236   0.000000
    7        9.112098   0.000000
    8       11.092142   0.000000
 
 -0.4210526E+00  0.1578947E+00  0.0000000E+00  0.3499052E-02
    1       -6.599101   1.000000
    2       -1.637340   1.000000
    3        1.456156   1.000000
    4        2.522132   1.000000
    5        6.545008   0.000000
    6        8.190175   0.000000
    7        9.000780   0.000000
    8       11.577881   0.000000
 
 -0.3684211E+00  0.1578947E+00  0.0000000E+00  0.3499052E-02
    1       -6.698119   1.000000
    2       -1.433723   1.000000
    3        1.423002   1.000000
    4        2.651738   1.000000
    5        6.642298   0.000000
    6        8.256165   0.000000
    7        8.917895   0.000000
    8       11.284698   0.000000
 
 -0.3157895E+00  0.1578947E+00  0.0000000E+00  0.3499052E-02
    1       -6.867924   1.000000
    2       -1.065856   1.000000
    3        1.455437   1.000000
    4        2.806992   1.000000
    5        6.770961   0.000000
    6        8.360216   0.000000
    7        8.848545   0.000000
    8       10.606879   0.000000
 
 -0.2631579E+00  0.1578947E+00  0.0000000E+00  0.3499052E-02
    1       -7.073432   1.000000
    2       -0.583634   1.000000
    3        1.564717   1.000000
    4        2.976026   1.000000
    5        6.913878   0.000000
    6        8.457279   0.000000
    7        8.758406   0.000000
    8        9.922623   0.000000
 
 -0.2105263E+00  0.1578947E+00  0.0000000E+00  0.3499052E-02
    1       -7.284015   1.000000
    2       -0.045359   1.000000
    3        1.768836   1.000000
    4        3.142270   1.000000
    5        7.033231   0.000000
    6        8.406449   0.000000
    7        8.608356   0.000000
    8        9.467591   0.000000
 
 -0.1578947E+00  0.1578947E+00  0.0000000E+00  0.1749526E-02
    1       -7.477607   1.000000
    2        0.483649   1.000000
    3        2.091011   1.000000
    4        3.284018   1.000000
    5        7.025371   0.000000
    6        8.164141   0.000000
    7        8.407103   0.000000
    8        9.352019   0.000000
 
  0.2105263E+00  0.2105263E+00  0.0000000E+00  0.8747631E-03
    1       -7.529024   1.000000
    2        0.936392   1.000000
    3        2.533314   1.000000
    4        2.533314   1.000000
    5        6.456063   0.000000
    6        7.446223   0.000000
    7        9.670519   0.000000
    8        9.670520   0.000000
 
  0.2631579E+00  0.2105263E+00  0.0000000E+00  0.3499052E-02
    1       -7.382445   1.000000
    2        0.500458   1.000000
    3        2.346534   1.000000
    4        2.376882   1.000000
    5        6.341309   0.000000
    6        7.396750   0.000000
    7        9.745042   0.000000
    8        9.994514   0.000000
 
  0.3157895E+00  0.2105263E+00  0.0000000E+00  0.3499052E-02
    1       -7.202938   1.000000
    2       -0.001559   1.000000
    3        2.102688   1.000000
    4        2.255778   1.000000
    5        6.351215   0.000000
    6        7.456762   0.000000
    7        9.575885   0.000000
    8       10.170083   0.000000
 
  0.3684211E+00  0.2105263E+00  0.0000000E+00  0.3499052E-02
    1       -7.003587   1.000000
    2       -0.501574   1.000000
    3        1.819202   1.000000
    4        2.176516   1.000000
    5        6.352430   0.000000
    6        7.763351   0.000000
    7        9.407805   0.000000
    8       10.178859   0.000000
 
  0.4210526E+00  0.2105263E+00  0.0000000E+00  0.3499052E-02
    1       -6.804047   1.000000
    2       -0.950276   1.000000
    3        1.535919   1.000000
    4        2.142602   1.000000
    5        6.327638   0.000000
    6        8.261389   0.000000
    7        9.315823   0.000000
    8       10.072075   0.000000
 
  0.4736842E+00  0.2105263E+00  0.0000000E+00  0.3499052E-02
    1       -6.631665   1.000000
    2       -1.302609   1.000000
    3        1.283355   1.000000
    4        2.155196   1.000000
    5        6.321772   0.000000
    6        8.674360   0.000000
    7        9.506450   0.000000
    8        9.914725   0.000000
 
 -0.4736842E+00  0.2105263E+00  0.0000000E+00  0.3499052E-02
    1       -6.518834   1.000000
    2       -1.515736   1.000000
    3        1.080699   1.000000
    4        2.213436   1.000000
    5        6.360971   0.000000
    6        8.759485   0.000000
    7        9.750593   0.000000
    8       10.163611   0.000000
 
 -0.4210526E+00  0.2105263E+00  0.0000000E+00  0.3499052E-02
    1       -6.492615   1.000000
    2       -1.558378   1.000000
    3        0.941094   1.000000
    4        2.314371   1.000000
    5        6.453184   0.000000
    6        8.755300   0.000000
    7        9.600718   0.000000
    8       10.956585   0.000000
 
 -0.3684211E+00  0.2105263E+00  0.0000000E+00  0.3499052E-02
    1       -6.559888   1.000000
    2       -1.426355   1.000000
    3        0.876668   1.000000
    4        2.452695   1.000000
    5        6.595724   0.000000
    6        8.766331   0.000000
    7        9.467210   0.000000
    8       11.199563   0.000000
 
 -0.3157895E+00  0.2105263E+00  0.0000000E+00  0.3499052E-02
    1       -6.702858   1.000000
    2       -1.149626   1.000000
    3        0.903214   1.000000
    4        2.619996   1.000000
    5        6.776420   0.000000
    6        8.807925   0.000000
    7        9.331348   0.000000
    8       10.531862   0.000000
 
 -0.2631579E+00  0.2105263E+00  0.0000000E+00  0.3499052E-02
    1       -6.890393   1.000000
    2       -0.784784   1.000000
    3        1.044559   1.000000
    4        2.803721   1.000000
    5        6.967710   0.000000
    6        8.848601   0.000000
    7        9.151512   0.000000
    8        9.809473   0.000000
 
 -0.2105263E+00  0.2105263E+00  0.0000000E+00  0.1749526E-02
    1       -7.091990   1.000000
    2       -0.399628   1.000000
    3        1.329983   1.000000
    4        2.985867   1.000000
    5        7.103588   0.000000
    6        8.698444   0.000000
    7        8.895973   0.000000
    8        9.423063   0.000000
 
  0.2631579E+00  0.2631579E+00  0.0000000E+00  0.8747631E-03
    1       -7.253493   1.000000
    2        0.217502   1.000000
    3        2.208738   1.000000
    4        2.208739   1.000000
    5        6.048922   0.000000
    6        7.157889   0.000000
    7       10.447555   0.000000
    8       10.447639   0.000000
 
  0.3157895E+00  0.2631579E+00  0.0000000E+00  0.3499052E-02
    1       -7.091465   1.000000
    2       -0.161936   1.000000
    3        2.012006   1.000000
    4        2.076330   1.000000
    5        5.960101   0.000000
    6        7.008868   0.000000
    7       10.476230   0.000000
    8       10.763221   0.000000
 
  0.3684211E+00  0.2631579E+00  0.0000000E+00  0.3499052E-02
    1       -6.907989   1.000000
    2       -0.561826   1.000000
    3        1.721298   1.000000
    4        1.986773   1.000000
    5        5.994628   0.000000
    6        7.083604   0.000000
    7       10.316752   0.000000
    8       10.879292   0.000000
 
  0.4210526E+00  0.2631579E+00  0.0000000E+00  0.3499052E-02
    1       -6.720427   1.000000
    2       -0.931545   1.000000
    3        1.382125   1.000000
    4        1.944073   1.000000
    5        6.021173   0.000000
    6        7.463006   0.000000
    7       10.155165   0.000000
    8       10.825694   0.000000
 
  0.4736842E+00  0.2631579E+00  0.0000000E+00  0.3499052E-02
    1       -6.552645   1.000000
    2       -1.230720   1.000000
    3        1.051461   1.000000
    4        1.949832   1.000000
    5        6.040071   0.000000
    6        8.075128   0.000000
    7       10.027609   0.000000
    8       10.679587   0.000000
 
 -0.4736842E+00  0.2631579E+00  0.0000000E+00  0.3499052E-02
    1       -6.433288   1.000000
    2       -1.422817   1.000000
    3        0.769690   1.000000
    4        2.003612   1.000000
    5        6.093424   0.000000
    6        8.788074   0.000000
    7        9.986151   0.000000
    8       10.499868   0.000000
 
 -0.4210526E+00  0.2631579E+00  0.0000000E+00  0.3499052E-02
    1       -6.388026   1.000000
    2       -1.481215   1.000000
    3        0.564049   1.000000
    4        2.102918   1.000000
    5        6.199792   0.000000
    6        9.335046   0.000000
    7       10.235981   0.000000
    8       10.314000   0.000000
 
 -0.3684211E+00  0.2631579E+00  0.0000000E+00  0.3499052E-02
    1       -6.427662   1.000000
    2       -1.403791   1.000000
    3        0.458605   1.000000
    4        2.242885   1.000000
    5        6.361323   0.000000
    6        9.487867   0.000000
    7       10.120717   0.000000
    8       10.825295   0.000000
 
 -0.3157895E+00  0.2631579E+00  0.0000000E+00  0.3499052E-02
    1       -6.541768   1.000000
    2       -1.223709   1.000000
    3        0.483236   1.000000
    4        2.415516   1.000000
    5        6.568607   0.000000
    6        9.515065   0.000000
    7        9.886525   0.000000
    8       10.493417   0.000000
 
 -0.2631579E+00  0.2631579E+00  0.0000000E+00  0.1749526E-02
    1       -6.705335   1.000000
    2       -1.000748   1.000000
    3        0.673308   1.000000
    4        2.608506   1.000000
    5        6.794805   0.000000
    6        9.397178   0.000000
    7        9.559674   0.000000
    8        9.871591   0.000000
 
  0.3157895E+00  0.3157895E+00  0.0000000E+00  0.8747631E-03
    1       -6.948442   1.000000
    2       -0.442267   1.000000
    3        1.931810   1.000000
    4        1.931811   1.000000
    5        5.693747   0.000000
    6        6.699080   0.000000
    7       11.263826   0.000000
    8       11.263936   0.000000
 
  0.3684211E+00  0.3157895E+00  0.0000000E+00  0.3499052E-02
    1       -6.784532   1.000000
    2       -0.759335   1.000000
    3        1.738254   1.000000
    4        1.830178   1.000000
    5        5.635851   0.000000
    6        6.577882   0.000000
    7       11.321229   0.000000
    8       11.558513   0.000000
 
  0.4210526E+00  0.3157895E+00  0.0000000E+00  0.3499052E-02
    1       -6.615305   1.000000
    2       -1.053878   1.000000
    3        1.420057   1.000000
    4        1.776040   1.000000
    5        5.694057   0.000000
    6        6.733713   0.000000
    7       11.177695   0.000000
    8       11.614303   0.000000
 
  0.4736842E+00  0.3157895E+00  0.0000000E+00  0.3499052E-02
    1       -6.461688   1.000000
    2       -1.286306   1.000000
    3        1.046544   1.000000
    4        1.771523   1.000000
    5        5.751037   0.000000
    6        7.205524   0.000000
    7       11.022663   0.000000
    8       11.508481   0.000000
 
 -0.4736842E+00  0.3157895E+00  0.0000000E+00  0.3499052E-02
    1       -6.348175   1.000000
    2       -1.428336   1.000000
    3        0.690364   1.000000
    4        1.816682   1.000000
    5        5.820451   0.000000
    6        7.900499   0.000000
    7       10.890591   0.000000
    8       11.323750   0.000000
 
 -0.4210526E+00  0.3157895E+00  0.0000000E+00  0.3499052E-02
    1       -6.296711   1.000000
    2       -1.466078   1.000000
    3        0.406624   1.000000
    4        1.909557   1.000000
    5        5.934738   0.000000
    6        8.717360   0.000000
    7       10.806040   0.000000
    8       11.096210   0.000000
 
 -0.3684211E+00  0.3157895E+00  0.0000000E+00  0.3499052E-02
    1       -6.317875   1.000000
    2       -1.412336   1.000000
    3        0.244396   1.000000
    4        2.045876   1.000000
    5        6.103848   0.000000
    6        9.531942   0.000000
    7       10.811209   0.000000
    8       10.815763   0.000000
 
 -0.3157895E+00  0.3157895E+00  0.0000000E+00  0.1749526E-02
    1       -6.405773   1.000000
    2       -1.313994   1.000000
    3        0.257315   1.000000
    4        2.218357   1.000000
    5        6.322629   0.000000
    6        9.970027   0.000000
    7       10.411769   0.000000
    8       10.688392   0.000000
 
  0.3684211E+00  0.3684211E+00  0.0000000E+00  0.8747631E-03
    1       -6.643224   1.000000
    2       -1.013965   1.000000
    3        1.715695   1.000000
    4        1.715695   1.000000
    5        5.405260   0.000000
    6        6.295258   0.000000
    7       12.095165   0.000000
    8       12.095223   0.000000
 
  0.4210526E+00  0.3684211E+00  0.0000000E+00  0.3499052E-02
    1       -6.498419   1.000000
    2       -1.254346   1.000000
    3        1.536456   1.000000
    4        1.648659   1.000000
    5        5.384543   0.000000
    6        6.243418   0.000000
    7       12.189919   0.000000
    8       12.356114   0.000000
 
  0.4736842E+00  0.3684211E+00  0.0000000E+00  0.3499052E-02
    1       -6.368617   1.000000
    2       -1.434767   1.000000
    3        1.213292   1.000000
    4        1.631772   1.000000
    5        5.476363   0.000000
    6        6.490956   0.000000
    7       12.064745   0.000000
    8       12.347225   0.000000
 