 running on   48 total cores
 distrk:  each k-point on   12 cores,    4 groups
 distr:  one band on   12 cores,    1 groups
 using from now: INCAR     
 vasp.5.4.4.18Apr17-6-g9f103f2a35 (build Nov 04 2020 14:40:39) complex          
  
 POSCAR found type information on POSCAR  Al As
 POSCAR found :  2 types and       2 ions
 scaLAPACK will be used

 ----------------------------------------------------------------------------- 
|                                                                             |
|           W    W    AA    RRRRR   N    N  II  N    N   GGGG   !!!           |
|           W    W   A  A   R    R  NN   N  II  NN   N  G    G  !!!           |
|           W    W  A    A  R    R  N N  N  II  N N  N  G       !!!           |
|           W WW W  AAAAAA  RRRRR   N  N N  II  N  N N  G  GGG   !            |
|           WW  WW  A    A  R   R   N   NN  II  N   NN  G    G                |
|           W    W  A    A  R    R  N    N  II  N    N   GGGG   !!!           |
|                                                                             |
|      You have enabled k-point parallelism (KPAR>1).                         |
|      This developmental code was originally  written by Paul Kent at ORNL,  |
|      and carefully double checked in Vienna.                                |
|      GW as well as linear response parallelism added by Martijn Marsman     |
|      and Georg Kresse.                                                      |
|      Carefully verify results versus KPAR=1.                                |
|      Report problems to Paul Kent and Vienna.                               |
|                                                                             |
 ----------------------------------------------------------------------------- 

 LDA part: xc-table for Pade appr. of Perdew
 POSCAR found type information on POSCAR  Al As
 POSCAR found :  2 types and       2 ions
 generate k-points for:   19   19   19
 POSCAR, INCAR and KPOINTS ok, starting setup
 FFT: planning ...
 WAVECAR not read
 entering main loop
       N       E                     dE             d eps       ncg     rms          rms(c)
DAV:   1     0.141913962329E+02    0.14191E+02   -0.30281E+03  3552   0.743E+02
DAV:   2    -0.895711275647E+01   -0.23149E+02   -0.22705E+02  4624   0.886E+01
DAV:   3    -0.958700247016E+01   -0.62989E+00   -0.62989E+00  4504   0.193E+01
DAV:   4    -0.958955511428E+01   -0.25526E-02   -0.25526E-02  5496   0.138E+00
DAV:   5    -0.958956403083E+01   -0.89165E-05   -0.89165E-05  4664   0.665E-02    0.266E+00
RMM:   6    -0.940342187801E+01    0.18614E+00   -0.21252E-01  3537   0.242E+00    0.147E+00
RMM:   7    -0.937274351832E+01    0.30678E-01   -0.11734E-01  3697   0.191E+00    0.458E-01
RMM:   8    -0.937302131472E+01   -0.27780E-03   -0.58644E-03  3797   0.612E-01    0.479E-02
RMM:   9    -0.937328124862E+01   -0.25993E-03   -0.27716E-04  4133   0.132E-01    0.205E-02
RMM:  10    -0.937331568401E+01   -0.34435E-04   -0.53616E-05  4000   0.559E-02    0.405E-03
RMM:  11    -0.937331842016E+01   -0.27362E-05   -0.70562E-06  4149   0.199E-02    0.281E-03
RMM:  12    -0.937331770082E+01    0.71934E-06   -0.10026E-06  3298   0.586E-03
   1 F= -.93733177E+01 E0= -.93733177E+01  d E =0.000000E+00
