   2   2   0   0
  0.2544337E+02  0.4159488E-09  0.4159488E-09  0.4159488E-09  0.0000000E+00
  1.000000000000000E-004
  CAR 
 unknown system                          
     13.35831146     -9.31064836  301      3.01559854      1.00000000
     -9.311  0.0000E+00  0.0000E+00
     -9.235  0.0000E+00  0.0000E+00
     -9.160  0.0000E+00  0.0000E+00
     -9.084  0.0000E+00  0.0000E+00
     -9.008  0.0000E+00  0.0000E+00
     -8.933  0.0000E+00  0.0000E+00
     -8.857  0.0000E+00  0.0000E+00
     -8.782  0.0000E+00  0.0000E+00
     -8.706  0.0000E+00  0.0000E+00
     -8.631  0.0000E+00  0.0000E+00
     -8.555  0.0000E+00  0.0000E+00
     -8.479  0.0000E+00  0.0000E+00
     -8.404  0.0000E+00  0.0000E+00
     -8.328  0.0000E+00  0.0000E+00
     -8.253  0.9688E-01  0.1275E-02
     -8.177  0.2047E+00  0.1307E-01
     -8.102  0.2856E+00  0.3193E-01
     -8.026  0.3576E+00  0.5614E-01
     -7.951  0.4159E+00  0.8528E-01
     -7.875  0.4802E+00  0.1192E+00
     -7.799  0.5425E+00  0.1578E+00
     -7.724  0.6096E+00  0.2013E+00
     -7.648  0.6805E+00  0.2500E+00
     -7.573  0.7587E+00  0.3043E+00
     -7.497  0.8492E+00  0.3650E+00
     -7.422  0.9503E+00  0.4329E+00
     -7.346  0.1082E+01  0.5095E+00
     -7.270  0.1244E+01  0.5972E+00
     -7.195  0.1483E+01  0.6992E+00
     -7.119  0.1962E+01  0.8263E+00
     -7.044  0.2270E+01  0.9929E+00
     -6.968  0.2266E+01  0.1163E+01
     -6.893  0.2330E+01  0.1337E+01
     -6.817  0.2436E+01  0.1516E+01
     -6.741  0.2662E+01  0.1707E+01
     -6.666  0.4769E+01  0.1938E+01
     -6.590  0.0000E+00  0.2000E+01
     -6.515  0.0000E+00  0.2000E+01
     -6.439  0.0000E+00  0.2000E+01
     -6.364  0.0000E+00  0.2000E+01
     -6.288  0.0000E+00  0.2000E+01
     -6.213  0.0000E+00  0.2000E+01
     -6.137  0.0000E+00  0.2000E+01
     -6.061  0.0000E+00  0.2000E+01
     -5.986  0.0000E+00  0.2000E+01
     -5.910  0.0000E+00  0.2000E+01
     -5.835  0.0000E+00  0.2000E+01
     -5.759  0.0000E+00  0.2000E+01
     -5.684  0.0000E+00  0.2000E+01
     -5.608  0.0000E+00  0.2000E+01
     -5.532  0.0000E+00  0.2000E+01
     -5.457  0.0000E+00  0.2000E+01
     -5.381  0.0000E+00  0.2000E+01
     -5.306  0.0000E+00  0.2000E+01
     -5.230  0.0000E+00  0.2000E+01
     -5.155  0.0000E+00  0.2000E+01
     -5.079  0.0000E+00  0.2000E+01
     -5.004  0.0000E+00  0.2000E+01
     -4.928  0.0000E+00  0.2000E+01
     -4.852  0.0000E+00  0.2000E+01
     -4.777  0.0000E+00  0.2000E+01
     -4.701  0.0000E+00  0.2000E+01
     -4.626  0.0000E+00  0.2000E+01
     -4.550  0.0000E+00  0.2000E+01
     -4.475  0.0000E+00  0.2000E+01
     -4.399  0.0000E+00  0.2000E+01
     -4.323  0.0000E+00  0.2000E+01
     -4.248  0.0000E+00  0.2000E+01
     -4.172  0.0000E+00  0.2000E+01
     -4.097  0.0000E+00  0.2000E+01
     -4.021  0.0000E+00  0.2000E+01
     -3.946  0.0000E+00  0.2000E+01
     -3.870  0.0000E+00  0.2000E+01
     -3.795  0.0000E+00  0.2000E+01
     -3.719  0.0000E+00  0.2000E+01
     -3.643  0.0000E+00  0.2000E+01
     -3.568  0.0000E+00  0.2000E+01
     -3.492  0.0000E+00  0.2000E+01
     -3.417  0.0000E+00  0.2000E+01
     -3.341  0.0000E+00  0.2000E+01
     -3.266  0.0000E+00  0.2000E+01
     -3.190  0.0000E+00  0.2000E+01
     -3.114  0.0000E+00  0.2000E+01
     -3.039  0.0000E+00  0.2000E+01
     -2.963  0.0000E+00  0.2000E+01
     -2.888  0.0000E+00  0.2000E+01
     -2.812  0.0000E+00  0.2000E+01
     -2.737  0.0000E+00  0.2000E+01
     -2.661  0.0000E+00  0.2000E+01
     -2.586  0.0000E+00  0.2000E+01
     -2.510  0.0000E+00  0.2000E+01
     -2.434  0.0000E+00  0.2000E+01
     -2.359  0.0000E+00  0.2000E+01
     -2.283  0.0000E+00  0.2000E+01
     -2.208  0.0000E+00  0.2000E+01
     -2.132  0.0000E+00  0.2000E+01
     -2.057  0.6432E+00  0.2018E+01
     -1.981  0.1318E+01  0.2091E+01
     -1.905  0.2296E+01  0.2224E+01
     -1.830  0.6032E+01  0.2505E+01
     -1.754  0.2572E+01  0.2820E+01
     -1.679  0.1703E+01  0.2974E+01
     -1.603  0.1271E+01  0.3084E+01
     -1.528  0.1068E+01  0.3173E+01
     -1.452  0.8813E+00  0.3246E+01
     -1.377  0.7830E+00  0.3309E+01
     -1.301  0.6989E+00  0.3365E+01
     -1.225  0.6123E+00  0.3414E+01
     -1.150  0.5552E+00  0.3458E+01
     -1.074  0.5121E+00  0.3499E+01
     -0.999  0.4671E+00  0.3536E+01
     -0.923  0.4194E+00  0.3569E+01
     -0.848  0.3892E+00  0.3600E+01
     -0.772  0.3651E+00  0.3628E+01
     -0.696  0.3402E+00  0.3655E+01
     -0.621  0.3153E+00  0.3680E+01
     -0.545  0.2881E+00  0.3702E+01
     -0.470  0.2682E+00  0.3723E+01
     -0.394  0.2540E+00  0.3743E+01
     -0.319  0.2395E+00  0.3762E+01
     -0.243  0.2235E+00  0.3779E+01
     -0.168  0.2075E+00  0.3795E+01
     -0.092  0.1984E+00  0.3810E+01
     -0.016  0.8008E+00  0.3850E+01
      0.059  0.1137E+01  0.3922E+01
      0.135  0.1602E+01  0.4034E+01
      0.210  0.1472E+01  0.4152E+01
      0.286  0.1327E+01  0.4257E+01
      0.361  0.1259E+01  0.4354E+01
      0.437  0.1279E+01  0.4449E+01
      0.513  0.1188E+01  0.4541E+01
      0.588  0.1220E+01  0.4632E+01
      0.664  0.1280E+01  0.4725E+01
      0.739  0.1401E+01  0.4826E+01
      0.815  0.1426E+01  0.4932E+01
      0.890  0.1481E+01  0.5043E+01
      0.966  0.1661E+01  0.5162E+01
      1.042  0.2028E+01  0.5298E+01
      1.117  0.1979E+01  0.5452E+01
      1.193  0.1981E+01  0.5602E+01
      1.268  0.1936E+01  0.5750E+01
      1.344  0.1928E+01  0.5895E+01
      1.419  0.1907E+01  0.6041E+01
      1.495  0.1865E+01  0.6183E+01
      1.570  0.1853E+01  0.6323E+01
      1.646  0.1835E+01  0.6462E+01
      1.722  0.1818E+01  0.6600E+01
      1.797  0.1805E+01  0.6737E+01
      1.873  0.1771E+01  0.6872E+01
      1.948  0.1755E+01  0.7005E+01
      2.024  0.1772E+01  0.7139E+01
      2.099  0.1768E+01  0.7272E+01
      2.175  0.1752E+01  0.7405E+01
      2.251  0.1374E+01  0.7527E+01
      2.326  0.1127E+01  0.7621E+01
      2.402  0.9638E+00  0.7700E+01
      2.477  0.8278E+00  0.7768E+01
      2.553  0.7144E+00  0.7826E+01
      2.628  0.6167E+00  0.7876E+01
      2.704  0.5126E+00  0.7919E+01
      2.779  0.4365E+00  0.7954E+01
      2.855  0.3017E+00  0.7982E+01
      2.931  0.1416E+00  0.7998E+01
      3.006  0.0000E+00  0.8000E+01
      3.082  0.0000E+00  0.8000E+01
      3.157  0.0000E+00  0.8000E+01
      3.233  0.0000E+00  0.8000E+01
      3.308  0.0000E+00  0.8000E+01
      3.384  0.0000E+00  0.8000E+01
      3.460  0.0000E+00  0.8000E+01
      3.535  0.0000E+00  0.8000E+01
      3.611  0.0000E+00  0.8000E+01
      3.686  0.0000E+00  0.8000E+01
      3.762  0.0000E+00  0.8000E+01
      3.837  0.0000E+00  0.8000E+01
      3.913  0.0000E+00  0.8000E+01
      3.988  0.0000E+00  0.8000E+01
      4.064  0.0000E+00  0.8000E+01
      4.140  0.0000E+00  0.8000E+01
      4.215  0.1566E-03  0.8000E+01
      4.291  0.1036E-02  0.8000E+01
      4.366  0.2690E-02  0.8000E+01
      4.442  0.5117E-02  0.8000E+01
      4.517  0.8228E-02  0.8001E+01
      4.593  0.1115E-01  0.8002E+01
      4.669  0.8020E-01  0.8005E+01
      4.744  0.1505E+00  0.8014E+01
      4.820  0.2462E+00  0.8029E+01
      4.895  0.3605E+00  0.8051E+01
      4.971  0.4480E+00  0.8082E+01
      5.046  0.5495E+00  0.8120E+01
      5.122  0.6490E+00  0.8165E+01
      5.197  0.7627E+00  0.8218E+01
      5.273  0.9147E+00  0.8281E+01
      5.349  0.1082E+01  0.8357E+01
      5.424  0.1169E+01  0.8442E+01
      5.500  0.1297E+01  0.8535E+01
      5.575  0.1444E+01  0.8638E+01
      5.651  0.1612E+01  0.8753E+01
      5.726  0.2068E+01  0.8894E+01
      5.802  0.2083E+01  0.9052E+01
      5.878  0.1952E+01  0.9204E+01
      5.953  0.1892E+01  0.9349E+01
      6.029  0.1890E+01  0.9491E+01
      6.104  0.1539E+01  0.9618E+01
      6.180  0.1422E+01  0.9730E+01
      6.255  0.1257E+01  0.9831E+01
      6.331  0.1099E+01  0.9919E+01
      6.406  0.1066E+01  0.9999E+01
      6.482  0.1220E+01  0.1008E+02
      6.558  0.1241E+01  0.1017E+02
      6.633  0.9408E+00  0.1025E+02
      6.709  0.8517E+00  0.1032E+02
      6.784  0.8320E+00  0.1039E+02
      6.860  0.8656E+00  0.1045E+02
      6.935  0.8806E+00  0.1052E+02
      7.011  0.9137E+00  0.1058E+02
      7.087  0.9149E+00  0.1065E+02
      7.162  0.1052E+01  0.1072E+02
      7.238  0.1967E+01  0.1084E+02
      7.313  0.3002E+01  0.1103E+02
      7.389  0.2470E+01  0.1124E+02
      7.464  0.2004E+01  0.1141E+02
      7.540  0.1800E+01  0.1155E+02
      7.616  0.1691E+01  0.1168E+02
      7.691  0.1480E+01  0.1180E+02
      7.767  0.1472E+01  0.1191E+02
      7.842  0.1449E+01  0.1202E+02
      7.918  0.1301E+01  0.1212E+02
      7.993  0.1176E+01  0.1222E+02
      8.069  0.1263E+01  0.1231E+02
      8.144  0.1459E+01  0.1241E+02
      8.220  0.1684E+01  0.1253E+02
      8.296  0.1879E+01  0.1266E+02
      8.371  0.2115E+01  0.1281E+02
      8.447  0.1950E+01  0.1298E+02
      8.522  0.1822E+01  0.1312E+02
      8.598  0.1833E+01  0.1326E+02
      8.673  0.1559E+01  0.1339E+02
      8.749  0.1372E+01  0.1350E+02
      8.825  0.1337E+01  0.1360E+02
      8.900  0.1342E+01  0.1370E+02
      8.976  0.1307E+01  0.1380E+02
      9.051  0.1370E+01  0.1390E+02
      9.127  0.1336E+01  0.1400E+02
      9.202  0.1257E+01  0.1410E+02
      9.278  0.1012E+01  0.1419E+02
      9.353  0.9267E+00  0.1426E+02
      9.429  0.9466E+00  0.1433E+02
      9.505  0.9887E+00  0.1440E+02
      9.580  0.1031E+01  0.1448E+02
      9.656  0.1055E+01  0.1456E+02
      9.731  0.1036E+01  0.1464E+02
      9.807  0.1050E+01  0.1472E+02
      9.882  0.1121E+01  0.1480E+02
      9.958  0.1180E+01  0.1489E+02
     10.034  0.1232E+01  0.1498E+02
     10.109  0.1277E+01  0.1507E+02
     10.185  0.1181E+01  0.1517E+02
     10.260  0.1136E+01  0.1525E+02
     10.336  0.1148E+01  0.1534E+02
     10.411  0.8771E+00  0.1541E+02
     10.487  0.8562E+00  0.1548E+02
     10.562  0.8225E+00  0.1554E+02
     10.638  0.5073E+00  0.1561E+02
     10.714  0.4437E+00  0.1564E+02
     10.789  0.4185E+00  0.1567E+02
     10.865  0.3926E+00  0.1570E+02
     10.940  0.3652E+00  0.1573E+02
     11.016  0.3417E+00  0.1576E+02
     11.091  0.3389E+00  0.1579E+02
     11.167  0.3293E+00  0.1581E+02
     11.243  0.2941E+00  0.1583E+02
     11.318  0.2616E+00  0.1586E+02
     11.394  0.2350E+00  0.1587E+02
     11.469  0.2139E+00  0.1589E+02
     11.545  0.2011E+00  0.1591E+02
     11.620  0.1863E+00  0.1592E+02
     11.696  0.1697E+00  0.1593E+02
     11.771  0.1606E+00  0.1595E+02
     11.847  0.1501E+00  0.1596E+02
     11.923  0.1312E+00  0.1597E+02
     11.998  0.1051E+00  0.1598E+02
     12.074  0.8139E-01  0.1599E+02
     12.149  0.6181E-01  0.1599E+02
     12.225  0.4636E-01  0.1599E+02
     12.300  0.4902E-01  0.1600E+02
     12.376  0.0000E+00  0.1600E+02
     12.452  0.0000E+00  0.1600E+02
     12.527  0.0000E+00  0.1600E+02
     12.603  0.0000E+00  0.1600E+02
     12.678  0.0000E+00  0.1600E+02
     12.754  0.0000E+00  0.1600E+02
     12.829  0.0000E+00  0.1600E+02
     12.905  0.0000E+00  0.1600E+02
     12.980  0.0000E+00  0.1600E+02
     13.056  0.0000E+00  0.1600E+02
     13.132  0.0000E+00  0.1600E+02
     13.207  0.0000E+00  0.1600E+02
     13.283  0.0000E+00  0.1600E+02
     13.358  0.0000E+00  0.1600E+02
