    2    2    1    1
  0.2544337E+02  0.4159488E-09  0.4159488E-09  0.4159488E-09  0.0000000E+00
  1.000000000000000E-004
  CAR 
 unknown system                          
      8    220      8
 
  0.0000000E+00  0.0000000E+00  0.0000000E+00  0.1457938E-03
    1       -8.280241   1.000000
    2        2.965801   1.000000
    3        2.965801   1.000000
    4        2.965802   1.000000
    5        4.167094   0.000000
    6        7.056009   0.000000
    7        7.056009   0.000000
    8        7.056009   0.000000
 
  0.5263158E-01  0.0000000E+00  0.0000000E+00  0.1166351E-02
    1       -8.256654   1.000000
    2        2.555376   1.000000
    3        2.937843   1.000000
    4        2.937843   1.000000
    5        4.503629   0.000000
    6        7.075276   0.000000
    7        7.106812   0.000000
    8        7.106812   0.000000
 
  0.1052632E+00  0.0000000E+00  0.0000000E+00  0.1166351E-02
    1       -8.186770   1.000000
    2        1.823314   1.000000
    3        2.860798   1.000000
    4        2.860798   1.000000
    5        4.963971   0.000000
    6        7.211195   0.000000
    7        7.243682   0.000000
    8        7.243683   0.000000
 
  0.1578947E+00  0.0000000E+00  0.0000000E+00  0.1166351E-02
    1       -8.073600   1.000000
    2        1.049965   1.000000
    3        2.751212   1.000000
    4        2.751212   1.000000
    5        5.188279   0.000000
    6        7.422910   0.000000
    7        7.422911   0.000000
    8        7.601873   0.000000
 
  0.2105263E+00  0.0000000E+00  0.0000000E+00  0.1166351E-02
    1       -7.922625   1.000000
    2        0.298484   1.000000
    3        2.627867   1.000000
    4        2.627868   1.000000
    5        5.183141   0.000000
    6        7.582905   0.000000
    7        7.582906   0.000000
    8        8.229097   0.000000
 
  0.2631579E+00  0.0000000E+00  0.0000000E+00  0.1166351E-02
    1       -7.742914   1.000000
    2       -0.400180   1.000000
    3        2.506721   1.000000
    4        2.506721   1.000000
    5        5.074723   0.000000
    6        7.670715   0.000000
    7        7.670715   0.000000
    8        8.962494   0.000000
 
  0.3157895E+00  0.0000000E+00  0.0000000E+00  0.1166351E-02
    1       -7.548503   1.000000
    2       -1.020018   1.000000
    3        2.399397   1.000000
    4        2.399398   1.000000
    5        4.944765   0.000000
    6        7.677036   0.000000
    7        7.677036   0.000000
    8        9.676081   0.000000
 
  0.3684211E+00  0.0000000E+00  0.0000000E+00  0.1166351E-02
    1       -7.360253   1.000000
    2       -1.532744   1.000000
    3        2.313611   1.000000
    4        2.313611   1.000000
    5        4.830422   0.000000
    6        7.634528   0.000000
    7        7.634528   0.000000
    8       10.201896   0.000000
 
  0.4210526E+00  0.0000000E+00  0.0000000E+00  0.1166351E-02
    1       -7.206344   1.000000
    2       -1.905352   1.000000
    3        2.254181   1.000000
    4        2.254181   1.000000
    5        4.748244   0.000000
    6        7.583506   0.000000
    7        7.583506   0.000000
    8       10.422938   0.000000
 
  0.4736842E+00  0.0000000E+00  0.0000000E+00  0.1166351E-02
    1       -7.118176   1.000000
    2       -2.103559   1.000000
    3        2.223849   1.000000
    4        2.223849   1.000000
    5        4.705704   0.000000
    6        7.551596   0.000000
    7        7.551596   0.000000
    8       10.471546   0.000000
 
  0.5263158E-01  0.5263158E-01  0.0000000E+00  0.8747631E-03
    1       -8.248774   1.000000
    2        2.526528   1.000000
    3        2.876026   1.000000
    4        2.876027   1.000000
    5        4.622859   0.000000
    6        6.930419   0.000000
    7        7.195945   0.000000
    8        7.195945   0.000000
 
  0.1052632E+00  0.5263158E-01  0.0000000E+00  0.3499052E-02
    1       -8.194280   1.000000
    2        1.970717   1.000000
    3        2.771205   1.000000
    4        2.822072   1.000000
    5        5.039553   0.000000
    6        6.866272   0.000000
    7        7.368581   0.000000
    8        7.378629   0.000000
 
  0.1578947E+00  0.5263158E-01  0.0000000E+00  0.3499052E-02
    1       -8.095452   1.000000
    2        1.251579   1.000000
    3        2.643151   1.000000
    4        2.744239   1.000000
    5        5.341080   0.000000
    6        6.956307   0.000000
    7        7.580643   0.000000
    8        7.684716   0.000000
 
  0.2105263E+00  0.5263158E-01  0.0000000E+00  0.3499052E-02
    1       -7.956843   1.000000
    2        0.516150   1.000000
    3        2.510999   1.000000
    4        2.627916   1.000000
    5        5.400895   0.000000
    6        7.181236   0.000000
    7        7.771451   0.000000
    8        8.129514   0.000000
 
  0.2631579E+00  0.5263158E-01  0.0000000E+00  0.3499052E-02
    1       -7.786232   1.000000
    2       -0.186152   1.000000
    3        2.389678   1.000000
    4        2.492230   1.000000
    5        5.317304   0.000000
    6        7.384267   0.000000
    7        7.883412   0.000000
    8        8.681853   0.000000
 
  0.3157895E+00  0.5263158E-01  0.0000000E+00  0.3499052E-02
    1       -7.595766   1.000000
    2       -0.824011   1.000000
    3        2.289499   1.000000
    4        2.355411   1.000000
    5        5.192341   0.000000
    6        7.477003   0.000000
    7        7.896900   0.000000
    8        9.287430   0.000000
 
  0.3684211E+00  0.5263158E-01  0.0000000E+00  0.3499052E-02
    1       -7.403834   1.000000
    2       -1.368146   1.000000
    3        2.216914   1.000000
    4        2.230920   1.000000
    5        5.073870   0.000000
    6        7.484633   0.000000
    7        7.839880   0.000000
    8        9.876918   0.000000
 
  0.4210526E+00  0.5263158E-01  0.0000000E+00  0.3499052E-02
    1       -7.236140   1.000000
    2       -1.786103   1.000000
    3        2.127961   1.000000
    4        2.175483   1.000000
    5        4.982488   0.000000
    6        7.464322   0.000000
    7        7.756587   0.000000
    8       10.320079   0.000000
 
  0.4736842E+00  0.5263158E-01  0.0000000E+00  0.3499052E-02
    1       -7.123702   1.000000
    2       -2.042794   1.000000
    3        2.052630   1.000000
    4        2.166638   1.000000
    5        4.927456   0.000000
    6        7.456356   0.000000
    7        7.681184   0.000000
    8       10.520417   0.000000
 
 -0.4736842E+00  0.5263158E-01  0.0000000E+00  0.3499052E-02
    1       -7.093326   1.000000
    2       -2.109261   1.000000
    3        2.008916   1.000000
    4        2.190146   1.000000
    5        4.912758   0.000000
    6        7.479956   0.000000
    7        7.632477   0.000000
    8       10.564268   0.000000
 
 -0.4210526E+00  0.5263158E-01  0.0000000E+00  0.3499052E-02
    1       -7.153289   1.000000
    2       -1.976752   1.000000
    3        1.999267   1.000000
    4        2.244389   1.000000
    5        4.939304   0.000000
    6        7.538748   0.000000
    7        7.615913   0.000000
    8       10.506372   0.000000
 
 -0.3684211E+00  0.5263158E-01  0.0000000E+00  0.3499052E-02
    1       -7.287699   1.000000
    2       -1.662238   1.000000
    3        2.024832   1.000000
    4        2.326337   1.000000
    5        5.005329   0.000000
    6        7.622727   0.000000
    7        7.624343   0.000000
    8       10.265193   0.000000
 
 -0.3157895E+00  0.5263158E-01  0.0000000E+00  0.3499052E-02
    1       -7.466807   1.000000
    2       -1.198352   1.000000
    3        2.085438   1.000000
    4        2.431279   1.000000
    5        5.105320   0.000000
    6        7.636295   0.000000
    7        7.704948   0.000000
    8        9.764941   0.000000
 
 -0.2631579E+00  0.5263158E-01  0.0000000E+00  0.3499052E-02
    1       -7.660731   1.000000
    2       -0.620096   1.000000
    3        2.179324   1.000000
    4        2.552304   1.000000
    5        5.226586   0.000000
    6        7.616304   0.000000
    7        7.733579   0.000000
    8        9.128287   0.000000
 
 -0.2105263E+00  0.5263158E-01  0.0000000E+00  0.3499052E-02
    1       -7.846251   1.000000
    2        0.040803   1.000000
    3        2.302675   1.000000
    4        2.679440   1.000000
    5        5.340164   0.000000
    6        7.531070   0.000000
    7        7.630616   0.000000
    8        8.515854   0.000000
 
 -0.1578947E+00  0.5263158E-01  0.0000000E+00  0.3499052E-02
    1       -8.007252   1.000000
    2        0.753679   1.000000
    3        2.449208   1.000000
    4        2.798845   1.000000
    5        5.379494   0.000000
    6        7.363178   0.000000
    7        7.384569   0.000000
    8        8.032157   0.000000
 
 -0.1052632E+00  0.5263158E-01  0.0000000E+00  0.3499052E-02
    1       -8.133232   1.000000
    2        1.479650   1.000000
    3        2.610801   1.000000
    4        2.892989   1.000000
    5        5.227506   0.000000
    6        7.105890   0.000000
    7        7.227223   0.000000
    8        7.657592   0.000000
 
 -0.5263158E-01  0.5263158E-01  0.0000000E+00  0.1749526E-02
    1       -8.217606   1.000000
    2        2.141484   1.000000
    3        2.783007   1.000000
    4        2.943507   1.000000
    5        4.851101   0.000000
    6        7.032073   0.000000
    7        7.120775   0.000000
    8        7.343138   0.000000
 
  0.1052632E+00  0.1052632E+00  0.0000000E+00  0.8747631E-03
    1       -8.155449   1.000000
    2        1.794238   1.000000
    3        2.642389   1.000000
    4        2.642389   1.000000
    5        5.381872   0.000000
    6        6.616161   0.000000
    7        7.578910   0.000000
    8        7.578910   0.000000
 
  0.1578947E+00  0.1052632E+00  0.0000000E+00  0.3499052E-02
    1       -8.071868   1.000000
    2        1.282825   1.000000
    3        2.496464   1.000000
    4        2.531000   1.000000
    5        5.719063   0.000000
    6        6.512962   0.000000
    7        7.831174   0.000000
    8        7.864523   0.000000
 
  0.2105263E+00  0.1052632E+00  0.0000000E+00  0.3499052E-02
    1       -7.947308   1.000000
    2        0.641634   1.000000
    3        2.352970   1.000000
    4        2.410763   1.000000
    5        5.844747   0.000000
    6        6.638718   0.000000
    7        8.066436   0.000000
    8        8.187218   0.000000
 
  0.2631579E+00  0.1052632E+00  0.0000000E+00  0.3499052E-02
    1       -7.788410   1.000000
    2       -0.016482   1.000000
    3        2.226435   1.000000
    4        2.256020   1.000000
    5        5.777435   0.000000
    6        6.930728   0.000000
    7        8.222338   0.000000
    8        8.439817   0.000000
 
  0.3157895E+00  0.1052632E+00  0.0000000E+00  0.3499052E-02
    1       -7.605685   1.000000
    2       -0.639307   1.000000
    3        2.084262   1.000000
    4        2.126608   1.000000
    5        5.655983   0.000000
    6        7.183156   0.000000
    7        8.265353   0.000000
    8        8.703382   0.000000
 
  0.3684211E+00  0.1052632E+00  0.0000000E+00  0.3499052E-02
    1       -7.415194   1.000000
    2       -1.190147   1.000000
    3        1.915996   1.000000
    4        2.059455   1.000000
    5        5.537159   0.000000
    6        7.293290   0.000000
    7        8.213625   0.000000
    8        9.136528   0.000000
 
  0.4210526E+00  0.1052632E+00  0.0000000E+00  0.3499052E-02
    1       -7.239866   1.000000
    2       -1.634265   1.000000
    3        1.766367   1.000000
    4        2.028097   1.000000
    5        5.442133   0.000000
    6        7.310994   0.000000
    7        8.113292   0.000000
    8        9.711339   0.000000
 
  0.4736842E+00  0.1052632E+00  0.0000000E+00  0.3499052E-02
    1       -7.108881   1.000000
    2       -1.935486   1.000000
    3        1.645572   1.000000
    4        2.033443   1.000000
    5        5.380648   0.000000
    6        7.314415   0.000000
    7        8.005210   0.000000
    8       10.282703   0.000000
 
 -0.4736842E+00  0.1052632E+00  0.0000000E+00  0.3499052E-02
    1       -7.050964   1.000000
    2       -2.061305   1.000000
    3        1.560446   1.000000
    4        2.074571   1.000000
    5        5.357160   0.000000
    6        7.343157   0.000000
    7        7.914340   0.000000
    8       10.638409   0.000000
 
 -0.4210526E+00  0.1052632E+00  0.0000000E+00  0.3499052E-02
    1       -7.081199   1.000000
    2       -1.995363   1.000000
    3        1.515778   1.000000
    4        2.148871   1.000000
    5        5.372841   0.000000
    6        7.409954   0.000000
    7        7.851134   0.000000
    8       10.638694   0.000000
 
 -0.3684211E+00  0.1052632E+00  0.0000000E+00  0.3499052E-02
    1       -7.191484   1.000000
    2       -1.746886   1.000000
    3        1.515092   1.000000
    4        2.251947   1.000000
    5        5.426079   0.000000
    6        7.510631   0.000000
    7        7.813048   0.000000
    8       10.287954   0.000000
 
 -0.3157895E+00  0.1052632E+00  0.0000000E+00  0.3499052E-02
    1       -7.355885   1.000000
    2       -1.345707   1.000000
    3        1.561180   1.000000
    4        2.377260   1.000000
    5        5.511675   0.000000
    6        7.621760   0.000000
    7        7.783303   0.000000
    8        9.710331   0.000000
 
 -0.2631579E+00  0.1052632E+00  0.0000000E+00  0.3499052E-02
    1       -7.544292   1.000000
    2       -0.829704   1.000000
    3        1.656684   1.000000
    4        2.515571   1.000000
    5        5.617623   0.000000
    6        7.682072   0.000000
    7        7.730507   0.000000
    8        9.107143   0.000000
 
 -0.2105263E+00  0.1052632E+00  0.0000000E+00  0.3499052E-02
    1       -7.731515   1.000000
    2       -0.238226   1.000000
    3        1.804985   1.000000
    4        2.654105   1.000000
    5        5.715460   0.000000
    6        7.571313   0.000000
    7        7.623323   0.000000
    8        8.655494   0.000000
 
 -0.1578947E+00  0.1052632E+00  0.0000000E+00  0.3499052E-02
    1       -7.899426   1.000000
    2        0.384875   1.000000
    3        2.011834   1.000000
    4        2.776085   1.000000
    5        5.735861   0.000000
    6        7.286892   0.000000
    7        7.466963   0.000000
    8        8.374109   0.000000
 
 -0.1052632E+00  0.1052632E+00  0.0000000E+00  0.1749526E-02
    1       -8.035911   1.000000
    2        0.981790   1.000000
    3        2.285153   1.000000
    4        2.861785   1.000000
    5        5.566158   0.000000
    6        7.093808   0.000000
    7        7.314237   0.000000
    8        8.063090   0.000000
 
  0.1578947E+00  0.1578947E+00  0.0000000E+00  0.8747631E-03
    1       -8.003820   1.000000
    2        1.048119   1.000000
    3        2.335278   1.000000
    4        2.335278   1.000000
    5        6.045677   0.000000
    6        6.250885   0.000000
    7        8.131398   0.000000
    8        8.131398   0.000000
 
  0.2105263E+00  0.1578947E+00  0.0000000E+00  0.3499052E-02
    1       -7.894387   1.000000
    2        0.592238   1.000000
    3        2.179838   1.000000
    4        2.182277   1.000000
    5        6.050249   0.000000
    6        6.352516   0.000000
    7        8.403276   0.000000
    8        8.424449   0.000000
 
  0.2631579E+00  0.1578947E+00  0.0000000E+00  0.3499052E-02
    1       -7.749217   1.000000
    2        0.042675   1.000000
    3        2.004849   1.000000
    4        2.044865   1.000000
    5        5.986289   0.000000
    6        6.588209   0.000000
    7        8.446845   0.000000
    8        8.644289   0.000000
 
  0.3157895E+00  0.1578947E+00  0.0000000E+00  0.3499052E-02
    1       -7.577451   1.000000
    2       -0.517867   1.000000
    3        1.795381   1.000000
    4        1.940130   1.000000
    5        5.901526   0.000000
    6        6.917384   0.000000
    7        8.381294   0.000000
    8        8.741389   0.000000
 
  0.3684211E+00  0.1578947E+00  0.0000000E+00  0.3499052E-02
    1       -7.393101   1.000000
    2       -1.038935   1.000000
    3        1.577650   1.000000
    4        1.871630   1.000000
    5        5.808307   0.000000
    6        7.235398   0.000000
    7        8.458057   0.000000
    8        8.717901   0.000000
 
  0.4210526E+00  0.1578947E+00  0.0000000E+00  0.3499052E-02
    1       -7.216360   1.000000
    2       -1.480099   1.000000
    3        1.374815   1.000000
    4        1.842516   1.000000
    5        5.731970   0.000000
    6        7.383813   0.000000
    7        8.618554   0.000000
    8        8.847511   0.000000
 
  0.4736842E+00  0.1578947E+00  0.0000000E+00  0.3499052E-02
    1       -7.073757   1.000000
    2       -1.802902   1.000000
    3        1.202832   1.000000
    4        1.853697   1.000000
    5        5.688141   0.000000
    6        7.408940   0.000000
    7        8.491282   0.000000
    8        9.475135   0.000000
 
 -0.4736842E+00  0.1578947E+00  0.0000000E+00  0.3499052E-02
    1       -6.993697   1.000000
    2       -1.972238   1.000000
    3        1.072247   1.000000
    4        1.904176   1.000000
    5        5.683623   0.000000
    6        7.418336   0.000000
    7        8.367943   0.000000
    8       10.159587   0.000000
 
 -0.4210526E+00  0.1578947E+00  0.0000000E+00  0.3499052E-02
    1       -6.995658   1.000000
    2       -1.966064   1.000000
    3        0.990651   1.000000
    4        1.991061   1.000000
    5        5.719077   0.000000
    6        7.455600   0.000000
    7        8.263690   0.000000
    8       10.574821   0.000000
 
 -0.3684211E+00  0.1578947E+00  0.0000000E+00  0.3499052E-02
    1       -7.079053   1.000000
    2       -1.786396   1.000000
    3        0.964612   1.000000
    4        2.109351   1.000000
    5        5.790399   0.000000
    6        7.531040   0.000000
    7        8.179033   0.000000
    8       10.266372   0.000000
 
 -0.3157895E+00  0.1578947E+00  0.0000000E+00  0.3499052E-02
    1       -7.223650   1.000000
    2       -1.459763   1.000000
    3        1.001387   1.000000
    4        2.251446   1.000000
    5        5.888384   0.000000
    6        7.633375   0.000000
    7        8.099030   0.000000
    8        9.619456   0.000000
 
 -0.2631579E+00  0.1578947E+00  0.0000000E+00  0.3499052E-02
    1       -7.401010   1.000000
    2       -1.027952   1.000000
    3        1.110904   1.000000
    4        2.406417   1.000000
    5        5.994705   0.000000
    6        7.710063   0.000000
    7        7.993300   0.000000
    8        8.988789   0.000000
 
 -0.2105263E+00  0.1578947E+00  0.0000000E+00  0.3499052E-02
    1       -7.584955   1.000000
    2       -0.540895   1.000000
    3        1.307806   1.000000
    4        2.559114   1.000000
    5        6.067303   0.000000
    6        7.618791   0.000000
    7        7.834167   0.000000
    8        8.604454   0.000000
 
 -0.1578947E+00  0.1578947E+00  0.0000000E+00  0.1749526E-02
    1       -7.755673   1.000000
    2       -0.053784   1.000000
    3        1.608892   1.000000
    4        2.689803   1.000000
    5        6.009561   0.000000
    6        7.376498   0.000000
    7        7.637751   0.000000
    8        8.504146   0.000000
 
  0.2105263E+00  0.2105263E+00  0.0000000E+00  0.8747631E-03
    1       -7.800498   1.000000
    2        0.331964   1.000000
    3        2.013063   1.000000
    4        2.013063   1.000000
    5        5.796018   0.000000
    6        6.470795   0.000000
    7        8.790742   0.000000
    8        8.790743   0.000000
 
  0.2631579E+00  0.2105263E+00  0.0000000E+00  0.3499052E-02
    1       -7.670479   1.000000
    2       -0.069842   1.000000
    3        1.837833   1.000000
    4        1.868051   1.000000
    5        5.692589   0.000000
    6        6.500590   0.000000
    7        8.892511   0.000000
    8        9.097404   0.000000
 
  0.3157895E+00  0.2105263E+00  0.0000000E+00  0.3499052E-02
    1       -7.512359   1.000000
    2       -0.525392   1.000000
    3        1.608562   1.000000
    4        1.755036   1.000000
    5        5.697909   0.000000
    6        6.604518   0.000000
    7        8.737637   0.000000
    8        9.278364   0.000000
 
  0.3684211E+00  0.2105263E+00  0.0000000E+00  0.3499052E-02
    1       -7.338415   1.000000
    2       -0.974972   1.000000
    3        1.342820   1.000000
    4        1.680363   1.000000
    5        5.688864   0.000000
    6        6.916929   0.000000
    7        8.583108   0.000000
    8        9.311856   0.000000
 
  0.4210526E+00  0.2105263E+00  0.0000000E+00  0.3499052E-02
    1       -7.166377   1.000000
    2       -1.374609   1.000000
    3        1.077627   1.000000
    4        1.647482   1.000000
    5        5.656930   0.000000
    6        7.379503   0.000000
    7        8.517717   0.000000
    8        9.235059   0.000000
 
  0.4736842E+00  0.2105263E+00  0.0000000E+00  0.3499052E-02
    1       -7.019826   1.000000
    2       -1.685096   1.000000
    3        0.841840   1.000000
    4        1.657595   1.000000
    5        5.642799   0.000000
    6        7.756049   0.000000
    7        8.718580   0.000000
    8        9.103434   0.000000
 
 -0.4736842E+00  0.2105263E+00  0.0000000E+00  0.3499052E-02
    1       -6.925199   1.000000
    2       -1.870807   1.000000
    3        0.653967   1.000000
    4        1.709929   1.000000
    5        5.668307   0.000000
    6        7.869696   0.000000
    7        8.957534   0.000000
    8        9.308800   0.000000
 
 -0.4210526E+00  0.2105263E+00  0.0000000E+00  0.3499052E-02
    1       -6.903611   1.000000
    2       -1.907116   1.000000
    3        0.526775   1.000000
    4        1.801760   1.000000
    5        5.739368   0.000000
    6        7.892311   0.000000
    7        8.817446   0.000000
    8       10.015210   0.000000
 
 -0.3684211E+00  0.2105263E+00  0.0000000E+00  0.3499052E-02
    1       -6.960199   1.000000
    2       -1.791525   1.000000
    3        0.471829   1.000000
    4        1.928092   1.000000
    5        5.851967   0.000000
    6        7.922744   0.000000
    7        8.684671   0.000000
    8       10.167685   0.000000
 
 -0.3157895E+00  0.2105263E+00  0.0000000E+00  0.3499052E-02
    1       -7.081250   1.000000
    2       -1.548582   1.000000
    3        0.503364   1.000000
    4        2.081093   1.000000
    5        5.992348   0.000000
    6        7.979152   0.000000
    7        8.541356   0.000000
    8        9.537483   0.000000
 
 -0.2631579E+00  0.2105263E+00  0.0000000E+00  0.3499052E-02
    1       -7.241939   1.000000
    2       -1.224383   1.000000
    3        0.641173   1.000000
    4        2.249147   1.000000
    5        6.130227   0.000000
    6        8.027430   0.000000
    7        8.353441   0.000000
    8        8.873697   0.000000
 
 -0.2105263E+00  0.2105263E+00  0.0000000E+00  0.1749526E-02
    1       -7.416770   1.000000
    2       -0.874045   1.000000
    3        0.907406   1.000000
    4        2.415764   1.000000
    5        6.197132   0.000000
    6        7.877472   0.000000
    7        8.103380   0.000000
    8        8.554700   0.000000
 
  0.2631579E+00  0.2631579E+00  0.0000000E+00  0.8747631E-03
    1       -7.556380   1.000000
    2       -0.337474   1.000000
    3        1.712556   1.000000
    4        1.712556   1.000000
    5        5.426946   0.000000
    6        6.362213   0.000000
    7        9.515237   0.000000
    8        9.515252   0.000000
 
  0.3157895E+00  0.2631579E+00  0.0000000E+00  0.3499052E-02
    1       -7.414030   1.000000
    2       -0.684694   1.000000
    3        1.530310   1.000000
    4        1.589421   1.000000
    5        5.350209   0.000000
    6        6.262124   0.000000
    7        9.521301   0.000000
    8        9.817680   0.000000
 
  0.3684211E+00  0.2631579E+00  0.0000000E+00  0.3499052E-02
    1       -7.254326   1.000000
    2       -1.045777   1.000000
    3        1.262557   1.000000
    4        1.505566   1.000000
    5        5.387151   0.000000
    6        6.346663   0.000000
    7        9.358862   0.000000
    8        9.948876   0.000000
 
  0.4210526E+00  0.2631579E+00  0.0000000E+00  0.3499052E-02
    1       -7.092949   1.000000
    2       -1.375736   1.000000
    3        0.950309   1.000000
    4        1.464894   1.000000
    5        5.411350   0.000000
    6        6.707672   0.000000
    7        9.204055   0.000000
    8        9.924827   0.000000
 
  0.4736842E+00  0.2631579E+00  0.0000000E+00  0.3499052E-02
    1       -6.950560   1.000000
    2       -1.639221   1.000000
    3        0.645566   1.000000
    4        1.469024   1.000000
    5        5.424602   0.000000
    6        7.279901   0.000000
    7        9.090495   0.000000
    8        9.807015   0.000000
 
 -0.4736842E+00  0.2631579E+00  0.0000000E+00  0.3499052E-02
    1       -6.850688   1.000000
    2       -1.806000   1.000000
    3        0.386314   1.000000
    4        1.517578   1.000000
    5        5.467447   0.000000
    6        7.930828   0.000000
    7        9.074840   0.000000
    8        9.648022   0.000000
 
 -0.4210526E+00  0.2631579E+00  0.0000000E+00  0.3499052E-02
    1       -6.813484   1.000000
    2       -1.855689   1.000000
    3        0.198777   1.000000
    4        1.608213   1.000000
    5        5.556760   0.000000
    6        8.405938   0.000000
    7        9.348894   0.000000
    8        9.473699   0.000000
 
 -0.3684211E+00  0.2631579E+00  0.0000000E+00  0.3499052E-02
    1       -6.847070   1.000000
    2       -1.788142   1.000000
    3        0.105547   1.000000
    4        1.736320   1.000000
    5        5.693001   0.000000
    6        8.552366   0.000000
    7        9.282922   0.000000
    8        9.855649   0.000000
 
 -0.3157895E+00  0.2631579E+00  0.0000000E+00  0.3499052E-02
    1       -6.943375   1.000000
    2       -1.630297   1.000000
    3        0.132347   1.000000
    4        1.894358   1.000000
    5        5.863938   0.000000
    6        8.596104   0.000000
    7        9.047443   0.000000
    8        9.490501   0.000000
 
 -0.2631579E+00  0.2631579E+00  0.0000000E+00  0.1749526E-02
    1       -7.082652   1.000000
    2       -1.428855   1.000000
    3        0.306892   1.000000
    4        2.070871   1.000000
    5        6.036834   0.000000
    6        8.514235   0.000000
    7        8.731541   0.000000
    8        8.907627   0.000000
 
  0.3157895E+00  0.3157895E+00  0.0000000E+00  0.8747631E-03
    1       -7.288876   1.000000
    2       -0.943374   1.000000
    3        1.455406   1.000000
    4        1.455407   1.000000
    5        5.109899   0.000000
    6        6.007190   0.000000
    7       10.276943   0.000000
    8       10.277732   0.000000
 
  0.3684211E+00  0.3157895E+00  0.0000000E+00  0.3499052E-02
    1       -7.146792   1.000000
    2       -1.230411   1.000000
    3        1.277998   1.000000
    4        1.360685   1.000000
    5        5.064544   0.000000
    6        5.902701   0.000000
    7       10.291102   0.000000
    8       10.562612   0.000000
 
  0.4210526E+00  0.3157895E+00  0.0000000E+00  0.3499052E-02
    1       -7.001794   1.000000
    2       -1.494261   1.000000
    3        0.989119   1.000000
    4        1.309743   1.000000
    5        5.124850   0.000000
    6        6.046539   0.000000
    7       10.141247   0.000000
    8       10.640415   0.000000
 
  0.4736842E+00  0.3157895E+00  0.0000000E+00  0.3499052E-02
    1       -6.871905   1.000000
    2       -1.700281   1.000000
    3        0.650231   1.000000
    4        1.304683   1.000000
    5        5.176358   0.000000
    6        6.487853   0.000000
    7        9.992397   0.000000
    8       10.564093   0.000000
 
 -0.4736842E+00  0.3157895E+00  0.0000000E+00  0.3499052E-02
    1       -6.777273   1.000000
    2       -1.824933   1.000000
    3        0.327319   1.000000
    4        1.345591   1.000000
    5        5.235396   0.000000
    6        7.138619   0.000000
    7        9.871450   0.000000
    8       10.402174   0.000000
 
 -0.4210526E+00  0.3157895E+00  0.0000000E+00  0.3499052E-02
    1       -6.735171   1.000000
    2       -1.858141   1.000000
    3        0.071338   1.000000
    4        1.430608   1.000000
    5        5.334134   0.000000
    6        7.898532   0.000000
    7        9.801711   0.000000
    8       10.187646   0.000000
 
 -0.3684211E+00  0.3157895E+00  0.0000000E+00  0.3499052E-02
    1       -6.753608   1.000000
    2       -1.811507   1.000000
    3       -0.073728   1.000000
    4        1.555668   1.000000
    5        5.480755   0.000000
    6        8.637663   0.000000
    7        9.825525   0.000000
    8        9.910079   0.000000
 
 -0.3157895E+00  0.3157895E+00  0.0000000E+00  0.1749526E-02
    1       -6.827915   1.000000
    2       -1.721730   1.000000
    3       -0.063632   1.000000
    4        1.713848   1.000000
    5        5.667066   0.000000
    6        9.010183   0.000000
    7        9.529843   0.000000
    8        9.666901   0.000000
 
  0.3684211E+00  0.3684211E+00  0.0000000E+00  0.8747631E-03
    1       -7.025005   1.000000
    2       -1.460233   1.000000
    3        1.254354   1.000000
    4        1.254354   1.000000
    5        4.859282   0.000000
    6        5.647889   0.000000
    7       11.049851   0.000000
    8       11.050675   0.000000
 
  0.4210526E+00  0.3684211E+00  0.0000000E+00  0.3499052E-02
    1       -6.901660   1.000000
    2       -1.674645   1.000000
    3        1.091643   1.000000
    4        1.191749   1.000000
    5        4.848451   0.000000
    6        5.595948   0.000000
    7       11.100254   0.000000
    8       11.303861   0.000000
 
  0.4736842E+00  0.3684211E+00  0.0000000E+00  0.3499052E-02
    1       -6.792499   1.000000
    2       -1.834398   1.000000
    3        0.801107   1.000000
    4        1.175520   1.000000
    5        4.935443   0.000000
    6        5.823069   0.000000
    7       10.965918   0.000000
    8       11.318252   0.000000
 