       N       E                     dE             d eps       ncg     rms          rms(c)
DAV:   1     0.108373046509E+03    0.10837E+03   -0.61565E+03 28832   0.652E+02
DAV:   2     0.375028644658E+00   -0.10800E+03   -0.95194E+02 25904   0.191E+02
DAV:   3    -0.687455673136E+01   -0.72496E+01   -0.70357E+01 30856   0.435E+01
DAV:   4    -0.692920135966E+01   -0.54645E-01   -0.54623E-01 28656   0.377E+00
DAV:   5    -0.692929118051E+01   -0.89821E-04   -0.89818E-04 30080   0.149E-01    0.255E+01
DAV:   6    -0.105519423965E+02   -0.36227E+01   -0.22725E+01 28528   0.491E+01    0.204E+01
DAV:   7    -0.926103980726E+01    0.12909E+01   -0.32282E+00 27968   0.303E+01    0.951E+00
DAV:   8    -0.990988725283E+01   -0.64885E+00   -0.58143E-01 27840   0.843E+00    0.754E+00
DAV:   9    -0.100688892078E+02   -0.15900E+00   -0.97086E-02 28424   0.649E+00    0.269E+00
DAV:  10    -0.100954500184E+02   -0.26561E-01   -0.52480E-02 30000   0.320E+00    0.968E-01
DAV:  11    -0.100945706589E+02    0.87936E-03   -0.99711E-03 28488   0.121E+00    0.247E-01
DAV:  12    -0.100952453442E+02   -0.67469E-03   -0.13178E-03 29304   0.305E-01    0.140E-01
DAV:  13    -0.100955313602E+02   -0.28602E-03   -0.29759E-04 29392   0.255E-01    0.872E-02
DAV:  14    -0.100955383172E+02   -0.69570E-05   -0.50777E-05 30696   0.610E-02    0.183E-02
DAV:  15    -0.100955430049E+02   -0.46877E-05   -0.62054E-06 29976   0.376E-02    0.126E-02
DAV:  16    -0.100955434181E+02   -0.41317E-06   -0.68568E-07 31832   0.229E-02    0.397E-03
DAV:  17    -0.100955435499E+02   -0.13182E-06   -0.36232E-07 30424   0.803E-03    0.159E-03
DAV:  18    -0.100955436618E+02   -0.11185E-06   -0.11698E-07 25472   0.388E-03    0.121E-03
DAV:  19    -0.100955436292E+02    0.32601E-07   -0.97388E-09 14952   0.179E-03
   1 F= -.10095544E+02 E0= -.10095544E+02  d E =0.000000E+00  mag=     2.0000
