   2   2   0   0
  0.1397695E+02  0.3406585E-09  0.3406585E-09  0.3406585E-09  0.0000000E+00
  1.000000000000000E-004
  CAR 
 unknown system                          
     18.27927704    -10.57251285  301      5.97519081      1.00000000
    -10.573  0.0000E+00  0.0000E+00
    -10.476  0.0000E+00  0.0000E+00
    -10.380  0.0000E+00  0.0000E+00
    -10.284  0.0000E+00  0.0000E+00
    -10.188  0.0000E+00  0.0000E+00
    -10.092  0.0000E+00  0.0000E+00
     -9.995  0.0000E+00  0.0000E+00
     -9.899  0.0000E+00  0.0000E+00
     -9.803  0.0000E+00  0.0000E+00
     -9.707  0.0000E+00  0.0000E+00
     -9.611  0.0000E+00  0.0000E+00
     -9.515  0.0000E+00  0.0000E+00
     -9.418  0.0000E+00  0.0000E+00
     -9.322  0.0000E+00  0.0000E+00
     -9.226  0.4250E-01  0.6982E-03
     -9.130  0.8652E-01  0.7120E-02
     -9.034  0.1188E+00  0.1719E-01
     -8.938  0.1454E+00  0.2981E-01
     -8.841  0.1644E+00  0.4471E-01
     -8.745  0.1861E+00  0.6156E-01
     -8.649  0.2022E+00  0.8020E-01
     -8.553  0.2206E+00  0.1005E+00
     -8.457  0.2360E+00  0.1225E+00
     -8.361  0.2518E+00  0.1459E+00
     -8.264  0.2681E+00  0.1710E+00
     -8.168  0.2823E+00  0.1974E+00
     -8.072  0.2975E+00  0.2253E+00
     -7.976  0.3131E+00  0.2547E+00
     -7.880  0.3274E+00  0.2855E+00
     -7.784  0.3427E+00  0.3177E+00
     -7.687  0.3590E+00  0.3514E+00
     -7.591  0.3744E+00  0.3867E+00
     -7.495  0.3909E+00  0.4235E+00
     -7.399  0.4083E+00  0.4619E+00
     -7.303  0.4267E+00  0.5020E+00
     -7.206  0.4461E+00  0.5440E+00
     -7.110  0.4673E+00  0.5879E+00
     -7.014  0.4904E+00  0.6339E+00
     -6.918  0.5169E+00  0.6823E+00
     -6.822  0.5477E+00  0.7335E+00
     -6.726  0.5847E+00  0.7879E+00
     -6.629  0.6314E+00  0.8463E+00
     -6.533  0.7074E+00  0.9103E+00
     -6.437  0.8585E+00  0.9857E+00
     -6.341  0.8020E+00  0.1064E+01
     -6.245  0.7967E+00  0.1141E+01
     -6.149  0.7748E+00  0.1216E+01
     -6.052  0.7578E+00  0.1290E+01
     -5.956  0.7447E+00  0.1362E+01
     -5.860  0.7347E+00  0.1433E+01
     -5.764  0.7241E+00  0.1503E+01
     -5.668  0.7139E+00  0.1573E+01
     -5.572  0.7159E+00  0.1641E+01
     -5.475  0.7171E+00  0.1710E+01
     -5.379  0.7367E+00  0.1780E+01
     -5.283  0.7990E+00  0.1853E+01
     -5.187  0.1004E+01  0.1939E+01
     -5.091  0.2115E+00  0.1995E+01
     -4.995  0.0000E+00  0.2000E+01
     -4.898  0.0000E+00  0.2000E+01
     -4.802  0.0000E+00  0.2000E+01
     -4.706  0.0000E+00  0.2000E+01
     -4.610  0.0000E+00  0.2000E+01
     -4.514  0.0000E+00  0.2000E+01
     -4.417  0.0000E+00  0.2000E+01
     -4.321  0.0000E+00  0.2000E+01
     -4.225  0.0000E+00  0.2000E+01
     -4.129  0.0000E+00  0.2000E+01
     -4.033  0.0000E+00  0.2000E+01
     -3.937  0.0000E+00  0.2000E+01
     -3.840  0.0000E+00  0.2000E+01
     -3.744  0.0000E+00  0.2000E+01
     -3.648  0.0000E+00  0.2000E+01
     -3.552  0.0000E+00  0.2000E+01
     -3.456  0.0000E+00  0.2000E+01
     -3.360  0.0000E+00  0.2000E+01
     -3.263  0.0000E+00  0.2000E+01
     -3.167  0.0000E+00  0.2000E+01
     -3.071  0.0000E+00  0.2000E+01
     -2.975  0.0000E+00  0.2000E+01
     -2.879  0.0000E+00  0.2000E+01
     -2.783  0.0000E+00  0.2000E+01
     -2.686  0.0000E+00  0.2000E+01
     -2.590  0.1805E+00  0.2010E+01
     -2.494  0.2438E+00  0.2030E+01
     -2.398  0.4456E+00  0.2063E+01
     -2.302  0.6361E+00  0.2115E+01
     -2.205  0.8703E+00  0.2186E+01
     -2.109  0.1250E+01  0.2284E+01
     -2.013  0.2210E+01  0.2450E+01
     -1.917  0.1381E+01  0.2632E+01
     -1.821  0.1010E+01  0.2745E+01
     -1.725  0.8312E+00  0.2831E+01
     -1.628  0.7216E+00  0.2906E+01
     -1.532  0.6289E+00  0.2970E+01
     -1.436  0.5785E+00  0.3028E+01
     -1.340  0.5281E+00  0.3081E+01
     -1.244  0.4784E+00  0.3130E+01
     -1.148  0.4514E+00  0.3174E+01
     -1.051  0.4244E+00  0.3216E+01
     -0.955  0.3945E+00  0.3256E+01
     -0.859  0.3673E+00  0.3292E+01
     -0.763  0.3514E+00  0.3327E+01
     -0.667  0.3350E+00  0.3360E+01
     -0.571  0.3162E+00  0.3391E+01
     -0.474  0.2945E+00  0.3421E+01
     -0.378  0.2826E+00  0.3448E+01
     -0.282  0.2719E+00  0.3475E+01
     -0.186  0.2602E+00  0.3500E+01
     -0.090  0.2479E+00  0.3525E+01
      0.006  0.2658E+00  0.3548E+01
      0.103  0.4588E+00  0.3586E+01
      0.199  0.6033E+00  0.3638E+01
      0.295  0.7340E+00  0.3701E+01
      0.391  0.9464E+00  0.3785E+01
      0.487  0.9272E+00  0.3875E+01
      0.584  0.8412E+00  0.3960E+01
      0.680  0.8131E+00  0.4039E+01
      0.776  0.8017E+00  0.4117E+01
      0.872  0.7745E+00  0.4193E+01
      0.968  0.7568E+00  0.4267E+01
      1.064  0.7948E+00  0.4344E+01
      1.161  0.8268E+00  0.4422E+01
      1.257  0.8312E+00  0.4501E+01
      1.353  0.8646E+00  0.4582E+01
      1.449  0.8702E+00  0.4665E+01
      1.545  0.9399E+00  0.4751E+01
      1.641  0.9409E+00  0.4840E+01
      1.738  0.9778E+00  0.4933E+01
      1.834  0.1064E+01  0.5030E+01
      1.930  0.1215E+01  0.5139E+01
      2.026  0.1186E+01  0.5256E+01
      2.122  0.1192E+01  0.5371E+01
      2.218  0.1174E+01  0.5484E+01
      2.315  0.1158E+01  0.5597E+01
      2.411  0.1138E+01  0.5707E+01
      2.507  0.1121E+01  0.5816E+01
      2.603  0.1107E+01  0.5923E+01
      2.699  0.1095E+01  0.6029E+01
      2.795  0.1079E+01  0.6133E+01
      2.892  0.1068E+01  0.6237E+01
      2.988  0.1047E+01  0.6338E+01
      3.084  0.1030E+01  0.6438E+01
      3.180  0.1022E+01  0.6537E+01
      3.276  0.1009E+01  0.6635E+01
      3.373  0.9937E+00  0.6731E+01
      3.469  0.9821E+00  0.6826E+01
      3.565  0.9711E+00  0.6920E+01
      3.661  0.9615E+00  0.7013E+01
      3.757  0.9482E+00  0.7105E+01
      3.853  0.9289E+00  0.7195E+01
      3.950  0.9281E+00  0.7284E+01
      4.046  0.9043E+00  0.7372E+01
      4.142  0.7741E+00  0.7455E+01
      4.238  0.6515E+00  0.7523E+01
      4.334  0.5832E+00  0.7582E+01
      4.430  0.5194E+00  0.7635E+01
      4.527  0.4698E+00  0.7683E+01
      4.623  0.4232E+00  0.7725E+01
      4.719  0.3892E+00  0.7765E+01
      4.815  0.3500E+00  0.7800E+01
      4.911  0.3179E+00  0.7832E+01
      5.007  0.2870E+00  0.7861E+01
      5.104  0.2562E+00  0.7887E+01
      5.200  0.2299E+00  0.7911E+01
      5.296  0.2028E+00  0.7931E+01
      5.392  0.1729E+00  0.7950E+01
      5.488  0.1471E+00  0.7965E+01
      5.584  0.1252E+00  0.7978E+01
      5.681  0.1009E+00  0.7989E+01
      5.777  0.5657E-01  0.7997E+01
      5.873  0.3765E-02  0.8000E+01
      5.969  0.0000E+00  0.8000E+01
      6.065  0.0000E+00  0.8000E+01
      6.162  0.0000E+00  0.8000E+01
      6.258  0.0000E+00  0.8000E+01
      6.354  0.0000E+00  0.8000E+01
      6.450  0.0000E+00  0.8000E+01
      6.546  0.0000E+00  0.8000E+01
      6.642  0.0000E+00  0.8000E+01
      6.739  0.0000E+00  0.8000E+01
      6.835  0.0000E+00  0.8000E+01
      6.931  0.0000E+00  0.8000E+01
      7.027  0.0000E+00  0.8000E+01
      7.123  0.6404E-02  0.8000E+01
      7.219  0.8576E-01  0.8004E+01
      7.316  0.1460E+00  0.8016E+01
      7.412  0.1968E+00  0.8032E+01
      7.508  0.2581E+00  0.8054E+01
      7.604  0.3069E+00  0.8081E+01
      7.700  0.3433E+00  0.8112E+01
      7.796  0.3816E+00  0.8147E+01
      7.893  0.4199E+00  0.8186E+01
      7.989  0.4608E+00  0.8228E+01
      8.085  0.5032E+00  0.8274E+01
      8.181  0.5386E+00  0.8325E+01
      8.277  0.5733E+00  0.8378E+01
      8.373  0.6096E+00  0.8435E+01
      8.470  0.6506E+00  0.8495E+01
      8.566  0.7560E+00  0.8562E+01
      8.662  0.8611E+00  0.8641E+01
      8.758  0.9621E+00  0.8728E+01
      8.854  0.1084E+01  0.8827E+01
      8.951  0.1245E+01  0.8938E+01
      9.047  0.1632E+01  0.9073E+01
      9.143  0.1822E+01  0.9243E+01
      9.239  0.1451E+01  0.9399E+01
      9.335  0.1332E+01  0.9532E+01
      9.431  0.1276E+01  0.9657E+01
      9.528  0.1220E+01  0.9778E+01
      9.624  0.1110E+01  0.9889E+01
      9.720  0.1198E+01  0.9999E+01
      9.816  0.8407E+00  0.1010E+02
      9.912  0.7187E+00  0.1018E+02
     10.008  0.6844E+00  0.1024E+02
     10.105  0.6969E+00  0.1031E+02
     10.201  0.6934E+00  0.1038E+02
     10.297  0.7827E+00  0.1045E+02
     10.393  0.8529E+00  0.1052E+02
     10.489  0.1491E+01  0.1063E+02
     10.585  0.1655E+01  0.1081E+02
     10.682  0.1515E+01  0.1097E+02
     10.778  0.1486E+01  0.1111E+02
     10.874  0.1631E+01  0.1126E+02
     10.970  0.1537E+01  0.1142E+02
     11.066  0.1337E+01  0.1156E+02
     11.163  0.1203E+01  0.1168E+02
     11.259  0.1141E+01  0.1180E+02
     11.355  0.1052E+01  0.1190E+02
     11.451  0.9702E+00  0.1200E+02
     11.547  0.9289E+00  0.1209E+02
     11.643  0.9719E+00  0.1218E+02
     11.740  0.9854E+00  0.1228E+02
     11.836  0.1034E+01  0.1237E+02
     11.932  0.1148E+01  0.1248E+02
     12.028  0.1177E+01  0.1259E+02
     12.124  0.1105E+01  0.1270E+02
     12.220  0.1143E+01  0.1281E+02
     12.317  0.1195E+01  0.1292E+02
     12.413  0.1122E+01  0.1303E+02
     12.509  0.1134E+01  0.1314E+02
     12.605  0.1091E+01  0.1325E+02
     12.701  0.1135E+01  0.1335E+02
     12.797  0.1097E+01  0.1346E+02
     12.894  0.1079E+01  0.1357E+02
     12.990  0.1013E+01  0.1367E+02
     13.086  0.1006E+01  0.1376E+02
     13.182  0.9825E+00  0.1386E+02
     13.278  0.9596E+00  0.1395E+02
     13.374  0.8029E+00  0.1404E+02
     13.471  0.6947E+00  0.1411E+02
     13.567  0.6852E+00  0.1418E+02
     13.663  0.6954E+00  0.1424E+02
     13.759  0.7147E+00  0.1431E+02
     13.855  0.7222E+00  0.1438E+02
     13.952  0.7266E+00  0.1445E+02
     14.048  0.7488E+00  0.1452E+02
     14.144  0.7761E+00  0.1459E+02
     14.240  0.8057E+00  0.1467E+02
     14.336  0.8410E+00  0.1475E+02
     14.432  0.9044E+00  0.1483E+02
     14.529  0.9985E+00  0.1492E+02
     14.625  0.1221E+01  0.1503E+02
     14.721  0.1556E+01  0.1516E+02
     14.817  0.1297E+01  0.1530E+02
     14.913  0.1076E+01  0.1542E+02
     15.009  0.5607E+00  0.1550E+02
     15.106  0.4749E+00  0.1555E+02
     15.202  0.4471E+00  0.1559E+02
     15.298  0.4219E+00  0.1564E+02
     15.394  0.3898E+00  0.1567E+02
     15.490  0.3646E+00  0.1571E+02
     15.586  0.3404E+00  0.1574E+02
     15.683  0.3113E+00  0.1578E+02
     15.779  0.2875E+00  0.1580E+02
     15.875  0.2641E+00  0.1583E+02
     15.971  0.2455E+00  0.1586E+02
     16.067  0.2295E+00  0.1588E+02
     16.163  0.2136E+00  0.1590E+02
     16.260  0.1939E+00  0.1592E+02
     16.356  0.1641E+00  0.1594E+02
     16.452  0.1440E+00  0.1595E+02
     16.548  0.1275E+00  0.1596E+02
     16.644  0.1140E+00  0.1598E+02
     16.741  0.9796E-01  0.1599E+02
     16.837  0.6009E-01  0.1599E+02
     16.933  0.3735E-01  0.1600E+02
     17.029  0.0000E+00  0.1600E+02
     17.125  0.0000E+00  0.1600E+02
     17.221  0.0000E+00  0.1600E+02
     17.318  0.0000E+00  0.1600E+02
     17.414  0.0000E+00  0.1600E+02
     17.510  0.0000E+00  0.1600E+02
     17.606  0.0000E+00  0.1600E+02
     17.702  0.0000E+00  0.1600E+02
     17.798  0.0000E+00  0.1600E+02
     17.895  0.0000E+00  0.1600E+02
     17.991  0.0000E+00  0.1600E+02
     18.087  0.0000E+00  0.1600E+02
     18.183  0.0000E+00  0.1600E+02
     18.279  0.0000E+00  0.1600E+02
