    2    2    1    1
  0.1397695E+02  0.3406584E-09  0.3406584E-09  0.3406584E-09  0.0000000E+00
  1.000000000000000E-004
  CAR 
 unknown system                          
      8    364      8
 
  0.0000000E+00  0.0000000E+00  0.0000000E+00  0.8218953E-04
    1       -9.261068   1.000000
    2        5.899596   1.000000
    3        5.899596   1.000000
    4        5.899597   1.000000
    5        9.137430   0.000000
    6        9.137430   0.000000
    7        9.137430   0.000000
    8       10.290800   0.000000
 
  0.4347826E-01  0.0000000E+00  0.0000000E+00  0.6575162E-03
    1       -9.230644   1.000000
    2        5.573043   1.000000
    3        5.836982   1.000000
    4        5.836982   1.000000
    5        9.208466   0.000000
    6        9.219586   0.000000
    7        9.219586   0.000000
    8       10.476081   0.000000
 
  0.8695652E-01  0.0000000E+00  0.0000000E+00  0.6575162E-03
    1       -9.139580   1.000000
    2        4.796996   1.000000
    3        5.670145   1.000000
    4        5.670145   1.000000
    5        9.248073   0.000000
    6        9.439859   0.000000
    7        9.439859   0.000000
    8       11.008711   0.000000
 
  0.1304348E+00  0.0000000E+00  0.0000000E+00  0.6575162E-03
    1       -8.988775   1.000000
    2        3.834109   1.000000
    3        5.442784   1.000000
    4        5.442784   1.000000
    5        9.183770   0.000000
    6        9.739327   0.000000
    7        9.739327   0.000000
    8       11.718714   0.000000
 
  0.1739130E+00  0.0000000E+00  0.0000000E+00  0.6575162E-03
    1       -8.779791   1.000000
    2        2.812242   1.000000
    3        5.193814   1.000000
    4        5.193814   1.000000
    5        9.068051   0.000000
    6       10.054570   0.000000
    7       10.054570   0.000000
    8       12.454746   0.000000
 
  0.2173913E+00  0.0000000E+00  0.0000000E+00  0.6575162E-03
    1       -8.515370   1.000000
    2        1.789657   1.000000
    3        4.949324   1.000000
    4        4.949324   1.000000
    5        8.937099   0.000000
    6       10.330732   0.000000
    7       10.330733   0.000000
    8       13.149563   0.000000
 
  0.2608696E+00  0.0000000E+00  0.0000000E+00  0.6575162E-03
    1       -8.200063   1.000000
    2        0.798509   1.000000
    3        4.725031   1.000000
    4        4.725031   1.000000
    5        8.809861   0.000000
    6       10.530201   0.000000
    7       10.530201   0.000000
    8       13.761888   0.000000
 
  0.3043478E+00  0.0000000E+00  0.0000000E+00  0.6575162E-03
    1       -7.841664   1.000000
    2       -0.137802   1.000000
    3        4.530156   1.000000
    4        4.530156   1.000000
    5        8.696472   0.000000
    6       10.642005   0.000000
    7       10.642005   0.000000
    8       14.240893   0.000000
 
  0.3478261E+00  0.0000000E+00  0.0000000E+00  0.6575162E-03
    1       -7.454146   1.000000
    2       -0.995872   1.000000
    3        4.370187   1.000000
    4        4.370187   1.000000
    5        8.602479   0.000000
    6       10.681573   0.000000
    7       10.681573   0.000000
    8       14.538978   0.000000
 
  0.3913043E+00  0.0000000E+00  0.0000000E+00  0.6575162E-03
    1       -7.063585   1.000000
    2       -1.743600   1.000000
    3        4.248301   1.000000
    4        4.248301   1.000000
    5        8.530646   0.000000
    6       10.677748   0.000000
    7       10.677748   0.000000
    8       14.669497   0.000000
 
  0.4347826E+00  0.0000000E+00  0.0000000E+00  0.6575162E-03
    1       -6.719436   1.000000
    2       -2.327734   1.000000
    3        4.166271   1.000000
    4        4.166271   1.000000
    5        8.482350   0.000000
    6       10.658594   0.000000
    7       10.658594   0.000000
    8       14.703795   0.000000
 
  0.4782609E+00  0.0000000E+00  0.0000000E+00  0.6575162E-03
    1       -6.504612   1.000000
    2       -2.663077   1.000000
    3        4.125060   1.000000
    4        4.125060   1.000000
    5        8.458100   0.000000
    6       10.644067   0.000000
    7       10.644067   0.000000
    8       14.705686   0.000000
 
  0.4347826E-01  0.4347826E-01  0.0000000E+00  0.4931372E-03
    1       -9.220491   1.000000
    2        5.679279   1.000000
    3        5.707598   1.000000
    4        5.707599   1.000000
    5        9.014131   0.000000
    6        9.373659   0.000000
    7        9.373659   0.000000
    8       10.504410   0.000000
 
  0.8695652E-01  0.4347826E-01  0.0000000E+00  0.1972549E-02
    1       -9.149607   1.000000
    2        5.045840   1.000000
    3        5.494589   1.000000
    4        5.669454   1.000000
    5        8.998992   0.000000
    6        9.550018   0.000000
    7        9.647296   0.000000
    8       10.878125   0.000000
 
  0.1304348E+00  0.4347826E-01  0.0000000E+00  0.1972549E-02
    1       -9.018679   1.000000
    2        4.144628   1.000000
    3        5.241815   1.000000
    4        5.525988   1.000000
    5        9.104317   0.000000
    6        9.618479   0.000000
    7        9.982754   0.000000
    8       11.512018   0.000000
 
  0.1739130E+00  0.4347826E-01  0.0000000E+00  0.1972549E-02
    1       -8.828975   1.000000
    2        3.147363   1.000000
    3        4.982783   1.000000
    4        5.310809   1.000000
    5        9.161745   0.000000
    6        9.743479   0.000000
    7       10.322943   0.000000
    8       12.204381   0.000000
 
  0.2173913E+00  0.4347826E-01  0.0000000E+00  0.1972549E-02
    1       -8.582837   1.000000
    2        2.129787   1.000000
    3        4.739004   1.000000
    4        5.065815   1.000000
    5        9.103039   0.000000
    6        9.973842   0.000000
    7       10.616809   0.000000
    8       12.854212   0.000000
 
  0.2608696E+00  0.4347826E-01  0.0000000E+00  0.1972549E-02
    1       -8.284073   1.000000
    2        1.131647   1.000000
    3        4.523442   1.000000
    4        4.819067   1.000000
    5        8.998690   0.000000
    6       10.204159   0.000000
    7       10.825882   0.000000
    8       13.429063   0.000000
 
  0.3043478E+00  0.4347826E-01  0.0000000E+00  0.1972549E-02
    1       -7.939208   1.000000
    2        0.179162   1.000000
    3        4.343698   1.000000
    4        4.587560   1.000000
    5        8.890291   0.000000
    6       10.371856   0.000000
    7       10.935316   0.000000
    8       13.921242   0.000000
 
  0.3478261E+00  0.4347826E-01  0.0000000E+00  0.1972549E-02
    1       -7.559676   1.000000
    2       -0.704574   1.000000
    3        4.204192   1.000000
    4        4.381389   1.000000
    5        8.793822   0.000000
    6       10.467806   0.000000
    7       10.957506   0.000000
    8       14.313905   0.000000
 
  0.3913043E+00  0.4347826E-01  0.0000000E+00  0.1972549E-02
    1       -7.166579   1.000000
    2       -1.491106   1.000000
    3        4.107214   1.000000
    4        4.206799   1.000000
    5        8.716201   0.000000
    6       10.513297   0.000000
    7       10.921593   0.000000
    8       14.576699   0.000000
 
  0.4347826E+00  0.4347826E-01  0.0000000E+00  0.1972549E-02
    1       -6.800006   1.000000
    2       -2.135718   1.000000
    3        4.053769   1.000000
    4        4.067859   1.000000
    5        8.660620   0.000000
    6       10.537551   0.000000
    7       10.858591   0.000000
    8       14.712460   0.000000
 
  0.4782609E+00  0.4347826E-01  0.0000000E+00  0.1972549E-02
    1       -6.531674   1.000000
    2       -2.563806   1.000000
    3        3.967383   1.000000
    4        4.043857   1.000000
    5        8.628520   0.000000
    6       10.563964   0.000000
    7       10.792201   0.000000
    8       14.766687   0.000000
 
 -0.4782609E+00  0.4347826E-01  0.0000000E+00  0.1972549E-02
    1       -6.454405   1.000000
    2       -2.681066   1.000000
    3        3.907469   1.000000
    4        4.076859   1.000000
    5        8.620456   0.000000
    6       10.605909   0.000000
    7       10.736292   0.000000
    8       14.781455   0.000000
 
 -0.4347826E+00  0.4347826E-01  0.0000000E+00  0.1972549E-02
    1       -6.604479   1.000000
    2       -2.450840   1.000000
    3        3.889652   1.000000
    4        4.151580   1.000000
    5        8.636544   0.000000
    6       10.666503   0.000000
    7       10.694648   0.000000
    8       14.769163   0.000000
 
 -0.3913043E+00  0.4347826E-01  0.0000000E+00  0.1972549E-02
    1       -6.915752   1.000000
    2       -1.940030   1.000000
    3        3.914946   1.000000
    4        4.266297   1.000000
    5        8.676567   0.000000
    6       10.661215   0.000000
    7       10.738682   0.000000
    8       14.708884   0.000000
 
 -0.3478261E+00  0.4347826E-01  0.0000000E+00  0.1972549E-02
    1       -7.297364   1.000000
    2       -1.241419   1.000000
    3        3.983892   1.000000
    4        4.418611   1.000000
    5        8.739933   0.000000
    6       10.619968   0.000000
    7       10.804741   0.000000
    8       14.551723   0.000000
 
 -0.3043478E+00  0.4347826E-01  0.0000000E+00  0.1972549E-02
    1       -7.689174   1.000000
    2       -0.418586   1.000000
    3        4.096354   1.000000
    4        4.605245   1.000000
    5        8.825256   0.000000
    6       10.546455   0.000000
    7       10.835998   0.000000
    8       14.252621   0.000000
 
 -0.2608696E+00  0.4347826E-01  0.0000000E+00  0.1972549E-02
    1       -8.058872   1.000000
    2        0.490647   1.000000
    3        4.251237   1.000000
    4        4.821239   1.000000
    5        8.929711   0.000000
    6       10.414043   0.000000
    7       10.796453   0.000000
    8       13.815904   0.000000
 
 -0.2173913E+00  0.4347826E-01  0.0000000E+00  0.1972549E-02
    1       -8.389295   1.000000
    2        1.460414   1.000000
    3        4.446094   1.000000
    4        5.059014   1.000000
    5        9.047723   0.000000
    6       10.207520   0.000000
    7       10.656240   0.000000
    8       13.279922   0.000000
 
 -0.1739130E+00  0.4347826E-01  0.0000000E+00  0.1972549E-02
    1       -8.671062   1.000000
    2        2.466905   1.000000
    3        4.676421   1.000000
    4        5.306278   1.000000
    5        9.168584   0.000000
    6        9.937276   0.000000
    7       10.411977   0.000000
    8       12.671389   0.000000
 
 -0.1304348E+00  0.4347826E-01  0.0000000E+00  0.1972549E-02
    1       -8.898695   1.000000
    2        3.479166   1.000000
    3        4.934953   1.000000
    4        5.542862   1.000000
    5        9.271068   0.000000
    6        9.642510   0.000000
    7       10.097223   0.000000
    8       12.006837   0.000000
 
 -0.8695652E-01  0.4347826E-01  0.0000000E+00  0.1972549E-02
    1       -9.068985   1.000000
    2        4.441974   1.000000
    3        5.212274   1.000000
    4        5.737082   1.000000
    5        9.312366   0.000000
    6        9.382705   0.000000
    7        9.775341   0.000000
    8       11.329801   0.000000
 
 -0.4347826E-01  0.4347826E-01  0.0000000E+00  0.9862743E-03
    1       -9.179983   1.000000
    2        5.217007   1.000000
    3        5.519539   1.000000
    4        5.846812   1.000000
    5        9.224670   0.000000
    6        9.248568   0.000000
    7        9.498402   0.000000
    8       10.762244   0.000000
 
  0.8695652E-01  0.8695652E-01  0.0000000E+00  0.4931372E-03
    1       -9.098977   1.000000
    2        5.107227   1.000000
    3        5.251462   1.000000
    4        5.251462   1.000000
    5        8.742968   0.000000
    6        9.961315   0.000000
    7        9.961315   0.000000
    8       10.949981   0.000000
 
  0.1304348E+00  0.8695652E-01  0.0000000E+00  0.1972549E-02
    1       -8.988126   1.000000
    2        4.373062   1.000000
    3        4.981482   1.000000
    4        5.185209   1.000000
    5        8.695491   0.000000
    6       10.151746   0.000000
    7       10.328941   0.000000
    8       11.362995   0.000000
 
  0.1739130E+00  0.8695652E-01  0.0000000E+00  0.1972549E-02
    1       -8.818128   1.000000
    2        3.441985   1.000000
    3        4.714131   1.000000
    4        5.046501   1.000000
    5        8.814317   0.000000
    6       10.148523   0.000000
    7       10.698547   0.000000
    8       11.939343   0.000000
 
  0.2173913E+00  0.8695652E-01  0.0000000E+00  0.1972549E-02
    1       -8.590957   1.000000
    2        2.457441   1.000000
    3        4.468312   1.000000
    4        4.829888   1.000000
    5        8.987966   0.000000
    6       10.134433   0.000000
    7       11.021468   0.000000
    8       12.453021   0.000000
 
  0.2608696E+00  0.8695652E-01  0.0000000E+00  0.1972549E-02
    1       -8.309838   1.000000
    2        1.471987   1.000000
    3        4.255693   1.000000
    4        4.578482   1.000000
    5        9.102540   0.000000
    6       10.186434   0.000000
    7       11.256948   0.000000
    8       12.867054   0.000000
 
  0.3043478E+00  0.8695652E-01  0.0000000E+00  0.1972549E-02
    1       -7.980272   1.000000
    2        0.517970   1.000000
    3        4.083305   1.000000
    4        4.321975   1.000000
    5        9.120943   0.000000
    6       10.289624   0.000000
    7       11.383910   0.000000
    8       13.249595   0.000000
 
  0.3478261E+00  0.8695652E-01  0.0000000E+00  0.1972549E-02
    1       -7.611702   1.000000
    2       -0.379326   1.000000
    3        3.955292   1.000000
    4        4.078418   1.000000
    5        9.083123   0.000000
    6       10.380679   0.000000
    7       11.408745   0.000000
    8       13.666921   0.000000
 
  0.3913043E+00  0.8695652E-01  0.0000000E+00  0.1972549E-02
    1       -7.221306   1.000000
    2       -1.192970   1.000000
    3        3.858914   1.000000
    4        3.873777   1.000000
    5        9.031021   0.000000
    6       10.434980   0.000000
    7       11.358766   0.000000
    8       14.109749   0.000000
 
  0.4347826E+00  0.8695652E-01  0.0000000E+00  0.1972549E-02
    1       -6.841432   1.000000
    2       -1.884435   1.000000
    3        3.670648   1.000000
    4        3.839554   1.000000
    5        8.986800   0.000000
    6       10.467772   0.000000
    7       11.266895   0.000000
    8       14.505400   0.000000
 
  0.4782609E+00  0.8695652E-01  0.0000000E+00  0.1972549E-02
    1       -6.532032   1.000000
    2       -2.389896   1.000000
    3        3.518695   1.000000
    4        3.852328   1.000000
    5        8.960434   0.000000
    6       10.502515   0.000000
    7       11.160365   0.000000
    8       14.781000   0.000000
 
 -0.4782609E+00  0.8695652E-01  0.0000000E+00  0.1972549E-02
    1       -6.383361   1.000000
    2       -2.616981   1.000000
    3        3.406801   1.000000
    4        3.910938   1.000000
    5        8.955882   0.000000
    6       10.555921   0.000000
    7       11.056559   0.000000
    8       14.917914   0.000000
 
 -0.4347826E+00  0.8695652E-01  0.0000000E+00  0.1972549E-02
    1       -6.460686   1.000000
    2       -2.499554   1.000000
    3        3.338002   1.000000
    4        4.013467   1.000000
    5        8.974160   0.000000
    6       10.635347   0.000000
    7       10.962758   0.000000
    8       14.929846   0.000000
 
 -0.3913043E+00  0.8695652E-01  0.0000000E+00  0.1972549E-02
    1       -6.727850   1.000000
    2       -2.074298   1.000000
    3        3.314609   1.000000
    4        4.157134   1.000000
    5        9.014739   0.000000
    6       10.738429   0.000000
    7       10.876216   0.000000
    8       14.813263   0.000000
 
 -0.3478261E+00  0.8695652E-01  0.0000000E+00  0.1972549E-02
    1       -7.092781   1.000000
    2       -1.435046   1.000000
    3        3.338453   1.000000
    4        4.338211   1.000000
    5        9.076243   0.000000
    6       10.784458   0.000000
    7       10.851841   0.000000
    8       14.550400   0.000000
 
 -0.3043478E+00  0.8695652E-01  0.0000000E+00  0.1972549E-02
    1       -7.484282   1.000000
    2       -0.656588   1.000000
    3        3.410849   1.000000
    4        4.551590   1.000000
    5        9.156422   0.000000
    6       10.666529   0.000000
    7       10.948042   0.000000
    8       14.156144   0.000000
 
 -0.2608696E+00  0.8695652E-01  0.0000000E+00  0.1972549E-02
    1       -7.862408   1.000000
    2        0.215185   1.000000
    3        3.532763   1.000000
    4        4.790044   1.000000
    5        9.251329   0.000000
    6       10.499128   0.000000
    7       10.982499   0.000000
    8       13.694626   0.000000
 
 -0.2173913E+00  0.8695652E-01  0.0000000E+00  0.1972549E-02
    1       -8.206113   1.000000
    2        1.148964   1.000000
    3        3.705219   1.000000
    4        5.042990   1.000000
    5        9.353503   0.000000
    6       10.269973   0.000000
    7       10.901871   0.000000
    8       13.233977   0.000000
 
 -0.1739130E+00  0.8695652E-01  0.0000000E+00  0.1972549E-02
    1       -8.503925   1.000000
    2        2.114709   1.000000
    3        3.931054   1.000000
    4        5.294140   1.000000
    5        9.448005   0.000000
    6        9.992571   0.000000
    7       10.680803   0.000000
    8       12.791718   0.000000
 
 -0.1304348E+00  0.8695652E-01  0.0000000E+00  0.1972549E-02
    1       -8.749327   1.000000
    2        3.065751   1.000000
    3        4.222673   1.000000
    4        5.518264   1.000000
    5        9.502992   0.000000
    6        9.709997   0.000000
    7       10.363683   0.000000
    8       12.326499   0.000000
 
 -0.8695652E-01  0.8695652E-01  0.0000000E+00  0.9862743E-03
    1       -8.938449   1.000000
    2        3.893007   1.000000
    3        4.633683   1.000000
    4        5.679286   1.000000
    5        9.459131   0.000000
    6        9.485260   0.000000
    7       10.050398   0.000000
    8       11.814273   0.000000
 
  0.1304348E+00  0.1304348E+00  0.0000000E+00  0.4931372E-03
    1       -8.897383   1.000000
    2        4.333399   1.000000
    3        4.700102   1.000000
    4        4.700102   1.000000
    5        8.416816   0.000000
    6       10.728546   0.000000
    7       10.728546   0.000000
    8       11.321766   0.000000
 
  0.1739130E+00  0.1304348E+00  0.0000000E+00  0.1972549E-02
    1       -8.747330   1.000000
    2        3.621057   1.000000
    3        4.425194   1.000000
    4        4.567046   1.000000
    5        8.362409   0.000000
    6       10.855582   0.000000
    7       11.133518   0.000000
    8       11.662935   0.000000
 
  0.2173913E+00  0.1304348E+00  0.0000000E+00  0.1972549E-02
    1       -8.539599   1.000000
    2        2.721085   1.000000
    3        4.174720   1.000000
    4        4.402236   1.000000
    5        8.492057   0.000000
    6       10.775506   0.000000
    7       11.496618   0.000000
    8       12.051438   0.000000
 
  0.2608696E+00  0.1304348E+00  0.0000000E+00  0.1972549E-02
    1       -8.276970   1.000000
    2        1.781816   1.000000
    3        3.960021   1.000000
    4        4.164779   1.000000
    5        8.699721   0.000000
    6       10.722038   0.000000
    7       11.774525   0.000000
    8       12.294266   0.000000
 
  0.3043478E+00  0.1304348E+00  0.0000000E+00  0.1972549E-02
    1       -7.964109   1.000000
    2        0.850261   1.000000
    3        3.788140   1.000000
    4        3.894142   1.000000
    5        8.878746   0.000000
    6       10.732022   0.000000
    7       11.938734   0.000000
    8       12.497822   0.000000
 
  0.3478261E+00  0.1304348E+00  0.0000000E+00  0.1972549E-02
    1       -7.608913   1.000000
    2       -0.042188   1.000000
    3        3.620027   1.000000
    4        3.663375   1.000000
    5        8.978629   0.000000
    6       10.773940   0.000000
    7       11.987204   0.000000
    8       12.800459   0.000000
 
  0.3913043E+00  0.1304348E+00  0.0000000E+00  0.1972549E-02
    1       -7.225503   1.000000
    2       -0.867180   1.000000
    3        3.360916   1.000000
    4        3.588013   1.000000
    5        9.016131   0.000000
    6       10.798792   0.000000
    7       11.942832   0.000000
    8       13.257500   0.000000
 
  0.4347826E+00  0.1304348E+00  0.0000000E+00  0.1972549E-02
    1       -6.840059   1.000000
    2       -1.589515   1.000000
    3        3.128438   1.000000
    4        3.562955   1.000000
    5        9.029976   0.000000
    6       10.799518   0.000000
    7       11.839253   0.000000
    8       13.822159   0.000000
 
  0.4782609E+00  0.1304348E+00  0.0000000E+00  0.1972549E-02
    1       -6.501787   1.000000
    2       -2.154372   1.000000
    3        2.930472   1.000000
    4        3.587973   1.000000
    5        9.048360   0.000000
    6       10.796512   0.000000
    7       11.706988   0.000000
    8       14.390931   0.000000
 
 -0.4782609E+00  0.1304348E+00  0.0000000E+00  0.1972549E-02
    1       -6.292211   1.000000
    2       -2.476929   1.000000
    3        2.772696   1.000000
    4        3.661835   1.000000
    5        9.085267   0.000000
    6       10.809463   0.000000
    7       11.566989   0.000000
    8       14.833182   0.000000
 
 -0.4347826E+00  0.1304348E+00  0.0000000E+00  0.1972549E-02
    1       -6.294006   1.000000
    2       -2.473027   1.000000
    3        2.659520   1.000000
    4        3.782330   1.000000
    5        9.145014   0.000000
    6       10.850659   0.000000
    7       11.429580   0.000000
    8       15.027046   0.000000
 
 -0.3913043E+00  0.1304348E+00  0.0000000E+00  0.1972549E-02
    1       -6.506207   1.000000
    2       -2.143851   1.000000
    3        2.594554   1.000000
    4        3.946125   1.000000
    5        9.226046   0.000000
    6       10.924848   0.000000
    7       11.294649   0.000000
    8       14.922313   0.000000
 
 -0.3478261E+00  0.1304348E+00  0.0000000E+00  0.1972549E-02
    1       -6.845479   1.000000
    2       -1.574704   1.000000
    3        2.581011   1.000000
    4        4.148583   1.000000
    5        9.323538   0.000000
    6       11.027856   0.000000
    7       11.152165   0.000000
    8       14.562648   0.000000
 
 -0.3043478E+00  0.1304348E+00  0.0000000E+00  0.1972549E-02
    1       -7.230892   1.000000
    2       -0.851016   1.000000
    3        2.622212   1.000000
    4        4.383156   1.000000
    5        9.430895   0.000000
    6       10.983804   0.000000
    7       11.140935   0.000000
    8       14.054221   0.000000
 
 -0.2608696E+00  0.1304348E+00  0.0000000E+00  0.1972549E-02
    1       -7.613791   1.000000
    2       -0.029971   1.000000
    3        2.722700   1.000000
    4        4.640625   1.000000
    5        9.539683   0.000000
    6       10.769703   0.000000
    7       11.219421   0.000000
    8       13.518924   0.000000
 
 -0.2173913E+00  0.1304348E+00  0.0000000E+00  0.1972549E-02
    1       -7.968293   1.000000
    2        0.845454   1.000000
    3        2.891603   1.000000
    4        4.907474   1.000000
    5        9.636989   0.000000
    6       10.502457   0.000000
    7       11.182941   0.000000
    8       13.074880   0.000000
 
 -0.1739130E+00  0.1304348E+00  0.0000000E+00  0.1972549E-02
    1       -8.280413   1.000000
    2        1.722590   1.000000
    3        3.153564   1.000000
    4        5.163690   1.000000
    5        9.697916   0.000000
    6       10.201710   0.000000
    7       10.967532   0.000000
    8       12.789375   0.000000
 
 -0.1304348E+00  0.1304348E+00  0.0000000E+00  0.9862743E-03
    1       -8.542307   1.000000
    2        2.500520   1.000000
    3        3.576584   1.000000
    4        5.379979   1.000000
    5        9.671746   0.000000
    6        9.915972   0.000000
    7       10.647529   0.000000
    8       12.583343   0.000000
 
  0.1739130E+00  0.1739130E+00  0.0000000E+00  0.4931372E-03
    1       -8.617237   1.000000
    2        3.457104   1.000000
    3        4.143140   1.000000
    4        4.143140   1.000000
    5        8.081307   0.000000
    6       11.324611   0.000000
    7       11.581518   0.000000
    8       11.581518   0.000000
 
  0.2173913E+00  0.1739130E+00  0.0000000E+00  0.1972549E-02
    1       -8.429219   1.000000
    2        2.805745   1.000000
    3        3.886096   1.000000
    4        3.944493   1.000000
    5        8.035768   0.000000
    6       11.113694   0.000000
    7       11.996178   0.000000
    8       12.013604   0.000000
 
  0.2608696E+00  0.1739130E+00  0.0000000E+00  0.1972549E-02
    1       -8.185704   1.000000
    2        1.982473   1.000000
    3        3.665684   1.000000
    4        3.723064   1.000000
    5        8.180258   0.000000
    6       10.959330   0.000000
    7       12.228477   0.000000
    8       12.331971   0.000000
 
  0.3043478E+00  0.1739130E+00  0.0000000E+00  0.1972549E-02
    1       -7.890667   1.000000
    2        1.118430   1.000000
    3        3.442990   1.000000
    4        3.489295   1.000000
    5        8.401105   0.000000
    6       10.943948   0.000000
    7       12.286947   0.000000
    8       12.552819   0.000000
 
  0.3478261E+00  0.1739130E+00  0.0000000E+00  0.1972549E-02
    1       -7.550837   1.000000
    2        0.263486   1.000000
    3        3.138561   1.000000
    4        3.361573   1.000000
    5        8.588530   0.000000
    6       11.090664   0.000000
    7       12.323429   0.000000
    8       12.646196   0.000000
 
  0.3913043E+00  0.1739130E+00  0.0000000E+00  0.1972549E-02
    1       -7.177964   1.000000
    2       -0.547325   1.000000
    3        2.838160   1.000000
    4        3.285100   1.000000
    5        8.700945   0.000000
    6       11.304936   0.000000
    7       12.495361   0.000000
    8       12.627680   0.000000
 
  0.4347826E+00  0.1739130E+00  0.0000000E+00  0.1972549E-02
    1       -6.793458   1.000000
    2       -1.278166   1.000000
    3        2.559894   1.000000
    4        3.261043   1.000000
    5        8.764760   0.000000
    6       11.424714   0.000000
    7       12.529972   0.000000
    8       12.935023   0.000000
 
  0.4782609E+00  0.1739130E+00  0.0000000E+00  0.1972549E-02
    1       -6.437479   1.000000
    2       -1.879867   1.000000
    3        2.315276   1.000000
    4        3.289423   1.000000
    5        8.820156   0.000000
    6       11.446289   0.000000
    7       12.386433   0.000000
    8       13.580395   0.000000
 
 -0.4782609E+00  0.1739130E+00  0.0000000E+00  0.1972549E-02
    1       -6.180338   1.000000
    2       -2.276656   1.000000
    3        2.112209   1.000000
    4        3.369112   1.000000
    5        8.892838   0.000000
    6       11.438940   0.000000
    7       12.221763   0.000000
    8       14.274654   0.000000
 
 -0.4347826E+00  0.1739130E+00  0.0000000E+00  0.1972549E-02
    1       -6.110250   1.000000
    2       -2.377704   1.000000
    3        1.956630   1.000000
    4        3.497904   1.000000
    5        8.993896   0.000000
    6       11.440058   0.000000
    7       12.049182   0.000000
    8       14.820861   0.000000
 
 -0.3913043E+00  0.1739130E+00  0.0000000E+00  0.1972549E-02
    1       -6.259079   1.000000
    2       -2.150931   1.000000
    3        1.853645   1.000000
    4        3.672321   1.000000
    5        9.124462   0.000000
    6       11.465718   0.000000
    7       11.870537   0.000000
    8       14.935810   0.000000
 
 -0.3478261E+00  0.1739130E+00  0.0000000E+00  0.1972549E-02
    1       -6.562874   1.000000
    2       -1.663156   1.000000
    3        1.808509   1.000000
    4        3.887287   1.000000
    5        9.278603   0.000000
    6       11.521417   0.000000
    7       11.676994   0.000000
    8       14.568258   0.000000
 
 -0.3043478E+00  0.1739130E+00  0.0000000E+00  0.1972549E-02
    1       -6.935088   1.000000
    2       -1.008169   1.000000
    3        1.828363   1.000000
    4        4.135498   1.000000
    5        9.444496   0.000000
    6       11.451583   0.000000
    7       11.601221   0.000000
    8       13.974332   0.000000
 
 -0.2608696E+00  0.1739130E+00  0.0000000E+00  0.1972549E-02
    1       -7.317985   1.000000
    2       -0.260196   1.000000
    3        1.926439   1.000000
    4        4.406433   1.000000
    5        9.604368   0.000000
    6       11.177658   0.000000
    7       11.671387   0.000000
    8       13.356821   0.000000
 
 -0.2173913E+00  0.1739130E+00  0.0000000E+00  0.1972549E-02
    1       -7.679902   1.000000
    2        0.510776   1.000000
    3        2.134020   1.000000
    4        4.684652   1.000000
    5        9.732051   0.000000
    6       10.854577   0.000000
    7       11.623629   0.000000
    8       12.897863   0.000000
 
 -0.1739130E+00  0.1739130E+00  0.0000000E+00  0.9862743E-03
    1       -8.003893   1.000000
    2        1.203407   1.000000
    3        2.522400   1.000000
    4        4.947635   1.000000
    5        9.785024   0.000000
    6       10.510916   0.000000
    7       11.336372   0.000000
    8       12.754913   0.000000
 
  0.2173913E+00  0.2173913E+00  0.0000000E+00  0.4931372E-03
    1       -8.260982   1.000000
    2        2.530255   1.000000
    3        3.621375   1.000000
    4        3.621375   1.000000
    5        7.768131   0.000000
    6       10.870966   0.000000
    7       12.474116   0.000000
    8       12.474116   0.000000
 
  0.2608696E+00  0.2173913E+00  0.0000000E+00  0.1972549E-02
    1       -8.036964   1.000000
    2        1.937516   1.000000
    3        3.381073   1.000000
    4        3.392884   1.000000
    5        7.742301   0.000000
    6       10.592975   0.000000
    7       12.814976   0.000000
    8       12.883156   0.000000
 
  0.3043478E+00  0.2173913E+00  0.0000000E+00  0.1972549E-02
    1       -7.760630   1.000000
    2        1.214931   1.000000
    3        3.089465   1.000000
    4        3.208652   1.000000
    5        7.904972   0.000000
    6       10.443417   0.000000
    7       12.935784   0.000000
    8       13.180374   0.000000
 