   3   3   0   0
  0.2303219E+02  0.4605999E-09  0.4605999E-09  0.4605999E-09  0.5000000E-15
  1.000000000000000E-004
  CAR
 unknown system
     15.11974466    -31.32603636  301     10.42522556      1.00000000
    -31.326  0.0000E+00  0.0000E+00
    -31.171  0.0000E+00  0.0000E+00
    -31.016  0.0000E+00  0.0000E+00
    -30.862  0.0000E+00  0.0000E+00
    -30.707  0.0000E+00  0.0000E+00
    -30.552  0.0000E+00  0.0000E+00
    -30.397  0.0000E+00  0.0000E+00
    -30.242  0.0000E+00  0.0000E+00
    -30.087  0.0000E+00  0.0000E+00
    -29.933  0.0000E+00  0.0000E+00
    -29.778  0.0000E+00  0.0000E+00
    -29.623  0.0000E+00  0.0000E+00
    -29.468  0.0000E+00  0.0000E+00
    -29.313  0.0000E+00  0.0000E+00
    -29.159  0.1292E+02  0.2000E+01
    -29.004  0.0000E+00  0.2000E+01
    -28.849  0.0000E+00  0.2000E+01
    -28.694  0.0000E+00  0.2000E+01
    -28.539  0.0000E+00  0.2000E+01
    -28.384  0.0000E+00  0.2000E+01
    -28.230  0.0000E+00  0.2000E+01
    -28.075  0.0000E+00  0.2000E+01
    -27.920  0.0000E+00  0.2000E+01
    -27.765  0.0000E+00  0.2000E+01
    -27.610  0.0000E+00  0.2000E+01
    -27.456  0.0000E+00  0.2000E+01
    -27.301  0.0000E+00  0.2000E+01
    -27.146  0.0000E+00  0.2000E+01
    -26.991  0.0000E+00  0.2000E+01
    -26.836  0.0000E+00  0.2000E+01
    -26.681  0.0000E+00  0.2000E+01
    -26.527  0.0000E+00  0.2000E+01
    -26.372  0.0000E+00  0.2000E+01
    -26.217  0.0000E+00  0.2000E+01
    -26.062  0.0000E+00  0.2000E+01
    -25.907  0.0000E+00  0.2000E+01
    -25.753  0.0000E+00  0.2000E+01
    -25.598  0.0000E+00  0.2000E+01
    -25.443  0.0000E+00  0.2000E+01
    -25.288  0.0000E+00  0.2000E+01
    -25.133  0.0000E+00  0.2000E+01
    -24.978  0.0000E+00  0.2000E+01
    -24.824  0.0000E+00  0.2000E+01
    -24.669  0.0000E+00  0.2000E+01
    -24.514  0.0000E+00  0.2000E+01
    -24.359  0.0000E+00  0.2000E+01
    -24.204  0.0000E+00  0.2000E+01
    -24.050  0.0000E+00  0.2000E+01
    -23.895  0.0000E+00  0.2000E+01
    -23.740  0.0000E+00  0.2000E+01
    -23.585  0.0000E+00  0.2000E+01
    -23.430  0.0000E+00  0.2000E+01
    -23.275  0.0000E+00  0.2000E+01
    -23.121  0.0000E+00  0.2000E+01
    -22.966  0.0000E+00  0.2000E+01
    -22.811  0.0000E+00  0.2000E+01
    -22.656  0.0000E+00  0.2000E+01
    -22.501  0.0000E+00  0.2000E+01
    -22.347  0.0000E+00  0.2000E+01
    -22.192  0.0000E+00  0.2000E+01
    -22.037  0.0000E+00  0.2000E+01
    -21.882  0.0000E+00  0.2000E+01
    -21.727  0.0000E+00  0.2000E+01
    -21.572  0.0000E+00  0.2000E+01
    -21.418  0.0000E+00  0.2000E+01
    -21.263  0.0000E+00  0.2000E+01
    -21.108  0.0000E+00  0.2000E+01
    -20.953  0.0000E+00  0.2000E+01
    -20.798  0.0000E+00  0.2000E+01
    -20.644  0.0000E+00  0.2000E+01
    -20.489  0.0000E+00  0.2000E+01
    -20.334  0.0000E+00  0.2000E+01
    -20.179  0.0000E+00  0.2000E+01
    -20.024  0.0000E+00  0.2000E+01
    -19.869  0.0000E+00  0.2000E+01
    -19.715  0.0000E+00  0.2000E+01
    -19.560  0.0000E+00  0.2000E+01
    -19.405  0.0000E+00  0.2000E+01
    -19.250  0.0000E+00  0.2000E+01
    -19.095  0.0000E+00  0.2000E+01
    -18.940  0.0000E+00  0.2000E+01
    -18.786  0.0000E+00  0.2000E+01
    -18.631  0.0000E+00  0.2000E+01
    -18.476  0.0000E+00  0.2000E+01
    -18.321  0.0000E+00  0.2000E+01
    -18.166  0.0000E+00  0.2000E+01
    -18.012  0.0000E+00  0.2000E+01
    -17.857  0.0000E+00  0.2000E+01
    -17.702  0.0000E+00  0.2000E+01
    -17.547  0.0000E+00  0.2000E+01
    -17.392  0.0000E+00  0.2000E+01
    -17.237  0.0000E+00  0.2000E+01
    -17.083  0.0000E+00  0.2000E+01
    -16.928  0.0000E+00  0.2000E+01
    -16.773  0.0000E+00  0.2000E+01
    -16.618  0.0000E+00  0.2000E+01
    -16.463  0.0000E+00  0.2000E+01
    -16.309  0.0000E+00  0.2000E+01
    -16.154  0.0000E+00  0.2000E+01
    -15.999  0.0000E+00  0.2000E+01
    -15.844  0.0000E+00  0.2000E+01
    -15.689  0.0000E+00  0.2000E+01
    -15.534  0.0000E+00  0.2000E+01
    -15.380  0.0000E+00  0.2000E+01
    -15.225  0.0000E+00  0.2000E+01
    -15.070  0.0000E+00  0.2000E+01
    -14.915  0.0000E+00  0.2000E+01
    -14.760  0.0000E+00  0.2000E+01
    -14.606  0.0000E+00  0.2000E+01
    -14.451  0.0000E+00  0.2000E+01
    -14.296  0.0000E+00  0.2000E+01
    -14.141  0.0000E+00  0.2000E+01
    -13.986  0.0000E+00  0.2000E+01
    -13.831  0.0000E+00  0.2000E+01
    -13.677  0.0000E+00  0.2000E+01
    -13.522  0.0000E+00  0.2000E+01
    -13.367  0.0000E+00  0.2000E+01
    -13.212  0.0000E+00  0.2000E+01
    -13.057  0.0000E+00  0.2000E+01
    -12.903  0.4258E-02  0.2001E+01
    -12.748  0.3875E+02  0.1200E+02
    -12.593  0.0000E+00  0.1200E+02
    -12.438  0.0000E+00  0.1200E+02
    -12.283  0.0000E+00  0.1200E+02
    -12.128  0.0000E+00  0.1200E+02
    -11.974  0.0000E+00  0.1200E+02
    -11.819  0.0000E+00  0.1200E+02
    -11.664  0.0000E+00  0.1200E+02
    -11.509  0.0000E+00  0.1200E+02
    -11.354  0.0000E+00  0.1200E+02
    -11.200  0.0000E+00  0.1200E+02
    -11.045  0.0000E+00  0.1200E+02
    -10.890  0.0000E+00  0.1200E+02
    -10.735  0.0000E+00  0.1200E+02
    -10.580  0.0000E+00  0.1200E+02
    -10.425  0.0000E+00  0.1200E+02
    -10.271  0.0000E+00  0.1200E+02
    -10.116  0.0000E+00  0.1200E+02
     -9.961  0.0000E+00  0.1200E+02
     -9.806  0.0000E+00  0.1200E+02
     -9.651  0.0000E+00  0.1200E+02
     -9.497  0.0000E+00  0.1200E+02
     -9.342  0.0000E+00  0.1200E+02
     -9.187  0.0000E+00  0.1200E+02
     -9.032  0.0000E+00  0.1200E+02
     -8.877  0.0000E+00  0.1200E+02
     -8.722  0.0000E+00  0.1200E+02
     -8.568  0.0000E+00  0.1200E+02
     -8.413  0.0000E+00  0.1200E+02
     -8.258  0.0000E+00  0.1200E+02
     -8.103  0.0000E+00  0.1200E+02
     -7.948  0.4792E-01  0.1201E+02
     -7.794  0.4076E+01  0.1284E+02
     -7.639  0.1324E+01  0.1393E+02
     -7.484  0.7912E+01  0.1566E+02
     -7.329  0.4727E+01  0.1800E+02
     -7.174  0.0000E+00  0.1800E+02
     -7.019  0.0000E+00  0.1800E+02
     -6.865  0.0000E+00  0.1800E+02
     -6.710  0.0000E+00  0.1800E+02
     -6.555  0.0000E+00  0.1800E+02
     -6.400  0.0000E+00  0.1800E+02
     -6.245  0.0000E+00  0.1800E+02
     -6.090  0.0000E+00  0.1800E+02
     -5.936  0.0000E+00  0.1800E+02
     -5.781  0.0000E+00  0.1800E+02
     -5.626  0.0000E+00  0.1800E+02
     -5.471  0.0000E+00  0.1800E+02
     -5.316  0.0000E+00  0.1800E+02
     -5.162  0.0000E+00  0.1800E+02
     -5.007  0.0000E+00  0.1800E+02
     -4.852  0.0000E+00  0.1800E+02
     -4.697  0.0000E+00  0.1800E+02
     -4.542  0.0000E+00  0.1800E+02
     -4.387  0.0000E+00  0.1800E+02
     -4.233  0.0000E+00  0.1800E+02
     -4.078  0.0000E+00  0.1800E+02
     -3.923  0.0000E+00  0.1800E+02
     -3.768  0.0000E+00  0.1800E+02
     -3.613  0.0000E+00  0.1800E+02
     -3.459  0.0000E+00  0.1800E+02
     -3.304  0.0000E+00  0.1800E+02
     -3.149  0.0000E+00  0.1800E+02
     -2.994  0.0000E+00  0.1800E+02
     -2.839  0.0000E+00  0.1800E+02
     -2.684  0.4321E-02  0.1800E+02
     -2.530  0.8232E-01  0.1801E+02
     -2.375  0.7085E-01  0.1802E+02
     -2.220  0.3519E-01  0.1806E+02
     -2.065  0.2822E+00  0.1810E+02
     -1.910  0.1934E+00  0.1818E+02
     -1.756  0.1192E+01  0.1851E+02
     -1.601  0.2280E+01  0.1902E+02
     -1.446  0.1791E+01  0.1954E+02
     -1.291  0.7080E+00  0.1983E+02
     -1.136  0.1522E+00  0.1997E+02
     -0.981  0.0000E+00  0.2000E+02
     -0.827  0.0000E+00  0.2000E+02
     -0.672  0.0000E+00  0.2000E+02
     -0.517  0.0000E+00  0.2000E+02
     -0.362  0.0000E+00  0.2000E+02
     -0.207  0.0000E+00  0.2000E+02
     -0.053  0.0000E+00  0.2000E+02
      0.102  0.0000E+00  0.2000E+02
      0.257  0.0000E+00  0.2000E+02
      0.412  0.0000E+00  0.2000E+02
      0.567  0.0000E+00  0.2000E+02
      0.722  0.0000E+00  0.2000E+02
      0.876  0.0000E+00  0.2000E+02
      1.031  0.0000E+00  0.2000E+02
      1.186  0.0000E+00  0.2000E+02
      1.341  0.0000E+00  0.2000E+02
      1.496  0.0000E+00  0.2000E+02
      1.650  0.0000E+00  0.2000E+02
      1.805  0.0000E+00  0.2000E+02
      1.960  0.0000E+00  0.2000E+02
      2.115  0.0000E+00  0.2000E+02
      2.270  0.0000E+00  0.2000E+02
      2.425  0.0000E+00  0.2000E+02
      2.579  0.0000E+00  0.2000E+02
      2.734  0.0000E+00  0.2000E+02
      2.889  0.0000E+00  0.2000E+02
      3.044  0.0000E+00  0.2000E+02
      3.199  0.0000E+00  0.2000E+02
      3.353  0.0000E+00  0.2000E+02
      3.508  0.0000E+00  0.2000E+02
      3.663  0.4682E-01  0.2001E+02
      3.818  0.4048E+00  0.2009E+02
      3.973  0.1867E+01  0.2059E+02
      4.128  0.1041E+01  0.2087E+02
      4.282  0.5849E+00  0.2114E+02
      4.437  0.9766E+00  0.2137E+02
      4.592  0.2280E+01  0.2212E+02
      4.747  0.2783E+01  0.2305E+02
      4.902  0.2273E+01  0.2379E+02
      5.056  0.2285E+01  0.2461E+02
      5.211  0.2022E+01  0.2536E+02
      5.366  0.1614E+01  0.2585E+02
      5.521  0.9212E+00  0.2605E+02
      5.676  0.2690E+01  0.2654E+02
      5.831  0.5690E+01  0.2810E+02
      5.985  0.3145E+01  0.2892E+02
      6.140  0.2285E+01  0.2986E+02
      6.295  0.8291E+00  0.3018E+02
      6.450  0.1309E+01  0.3045E+02
      6.605  0.2198E+01  0.3091E+02
      6.760  0.1368E+01  0.3129E+02
      6.914  0.5760E+00  0.3157E+02
      7.069  0.8996E+00  0.3177E+02
      7.224  0.4649E+00  0.3197E+02
      7.379  0.3036E+00  0.3207E+02
      7.534  0.1257E+01  0.3241E+02
      7.688  0.7071E+00  0.3260E+02
      7.843  0.1109E+01  0.3287E+02
      7.998  0.1412E+00  0.3312E+02
      8.153  0.1013E+01  0.3337E+02
      8.308  0.6021E+00  0.3361E+02
      8.463  0.1246E+01  0.3392E+02
      8.617  0.4271E+01  0.3515E+02
      8.772  0.1142E+01  0.3565E+02
      8.927  0.3825E+00  0.3589E+02
      9.082  0.9674E-02  0.3600E+02
      9.237  0.5880E-02  0.3600E+02
      9.391  0.0000E+00  0.3600E+02
      9.546  0.0000E+00  0.3600E+02
      9.701  0.1046E-13  0.3600E+02
      9.856  0.6804E-01  0.3602E+02
     10.011  0.8237E-01  0.3605E+02
     10.166  0.9609E+00  0.3626E+02
     10.320  0.9950E+00  0.3660E+02
     10.475  0.1208E+01  0.3715E+02
     10.630  0.9787E+00  0.3755E+02
     10.785  0.1167E+01  0.3794E+02
     10.940  0.6812E+00  0.3811E+02
     11.094  0.2823E+00  0.3824E+02
     11.249  0.4029E+00  0.3833E+02
     11.404  0.9666E+00  0.3861E+02
     11.559  0.2147E+01  0.3908E+02
     11.714  0.1865E+01  0.3963E+02
     11.869  0.1611E+01  0.4012E+02
     12.023  0.9396E+00  0.4063E+02
     12.178  0.1206E+01  0.4111E+02
     12.333  0.4237E+01  0.4204E+02
     12.488  0.3084E+01  0.4295E+02
     12.643  0.6857E+01  0.4448E+02
     12.797  0.3401E+01  0.4609E+02
     12.952  0.5891E+01  0.4725E+02
     13.107  0.0000E+00  0.4800E+02
     13.262  0.0000E+00  0.4800E+02
     13.417  0.0000E+00  0.4800E+02
     13.572  0.0000E+00  0.4800E+02
     13.726  0.0000E+00  0.4800E+02
     13.881  0.0000E+00  0.4800E+02
     14.036  0.0000E+00  0.4800E+02
     14.191  0.0000E+00  0.4800E+02
     14.346  0.0000E+00  0.4800E+02
     14.500  0.0000E+00  0.4800E+02
     14.655  0.0000E+00  0.4800E+02
     14.810  0.0000E+00  0.4800E+02
     14.965  0.0000E+00  0.4800E+02
     15.120  0.0000E+00  0.4800E+02
