    3    3    1    1
  0.2303219E+02  0.4605999E-09  0.4605999E-09  0.4605999E-09  0.5000000E-15
  1.000000000000000E-004
  CAR
 unknown system
     37     84     24

  0.0000000E+00  0.0000000E+00  0.0000000E+00  0.4551661E-03
    1      -29.214864   1.000000
    2      -12.856299   1.000000
    3      -12.856299   1.000000
    4      -12.810459   1.000000
    5      -12.810459   1.000000
    6      -12.810459   1.000000
    7       -7.465919   1.000000
    8       -7.465919   1.000000
    9       -7.465919   1.000000
   10       -2.688909   1.000000
   11        5.499348   1.000000
   12        5.499348   1.000000
   13        5.499348   1.000000
   14        5.525426   1.000000
   15        5.525426   1.000000
   16        9.080933   1.000000
   17        9.080933   1.000000
   18        9.080933   1.000000
   19        9.175752   1.000000
   20       10.605079   0.000000
   21       10.605079   0.000000
   22       10.605079   0.000000
   23       11.598558   0.000000
   24       12.839124   0.000000

  0.7692308E-01  0.3348658E-17 -0.4201897E-17  0.3641329E-02
    1      -29.214044   1.000000
    2      -12.857838   1.000000
    3      -12.857838   1.000000
    4      -12.810822   1.000000
    5      -12.810187   1.000000
    6      -12.810187   1.000000
    7       -7.503061   1.000000
    8       -7.460521   1.000000
    9       -7.460521   1.000000
   10       -2.589664   1.000000
   11        5.244458   1.000000
   12        5.244458   1.000000
   13        5.364084   1.000000
   14        5.766505   1.000000
   15        5.766505   1.000000
   16        8.282055   1.000000
   17        8.991727   1.000000
   18        8.991727   1.000000
   19        9.752273   1.000000
   20       10.717103   0.000000
   21       10.717103   0.000000
   22       10.768981   0.000000
   23       11.902840   0.000000
   24       12.843400   0.000000

  0.1538462E+00 -0.2590444E-17  0.8839668E-18  0.3641329E-02
    1      -29.211772   1.000000
    2      -12.862115   1.000000
    3      -12.862115   1.000000
    4      -12.811931   1.000000
    5      -12.809424   1.000000
    6      -12.809424   1.000000
    7       -7.598618   1.000000
    8       -7.445611   1.000000
    9       -7.445611   1.000000
   10       -2.319839   1.000000
   11        5.009607   1.000000
   12        5.009607   1.000000
   13        5.009648   1.000000
   14        5.944554   1.000000
   15        5.944554   1.000000
   16        7.517679   1.000000
   17        8.816304   1.000000
   18        8.816304   1.000000
   19        9.846426   1.000000
   20       10.981901   0.000000
   21       10.981901   0.000000
   22       11.474423   0.000000
   23       12.477200   0.000000
   24       12.847903   0.000000

  0.2307692E+00 -0.5308013E-18 -0.2028914E-17  0.3641329E-02
    1      -29.208571   1.000000
    2      -12.868148   1.000000
    3      -12.868148   1.000000
    4      -12.813752   1.000000
    5      -12.808303   1.000000
    6      -12.808303   1.000000
    7       -7.717763   1.000000
    8       -7.424685   1.000000
    9       -7.424685   1.000000
   10       -1.950083   1.000000
   11        4.554975   1.000000
   12        4.836282   1.000000
   13        4.836282   1.000000
   14        5.991247   1.000000
   15        5.991247   1.000000
   16        6.918837   1.000000
   17        8.686972   1.000000
   18        8.686972   1.000000
   19        9.855238   1.000000
   20       11.303594   0.000000
   21       11.303594   0.000000
   22       12.252730   0.000000
   23       12.830277   0.000000
   24       12.830440   0.000000

  0.3076923E+00 -0.5180888E-17  0.1767934E-17  0.3641329E-02
    1      -29.205175   1.000000
    2      -12.874538   1.000000
    3      -12.874538   1.000000
    4      -12.816021   1.000000
    5      -12.807067   1.000000
    6      -12.807067   1.000000
    7       -7.828006   1.000000
    8       -7.402599   1.000000
    9       -7.402599   1.000000
   10       -1.569279   1.000000
   11        4.124699   1.000000
   12        4.736923   1.000000
   13        4.736923   1.000000
   14        5.904326   1.000000
   15        5.904326   1.000000
   16        6.501060   1.000000
   17        8.649112   1.000000
   18        8.649112   1.000000
   19        9.943368   1.000000
   20       11.623612   0.000000
   21       11.623612   0.000000
   22       12.750588   0.000000
   23       12.797653   0.000000
   24       12.797680   0.000000

  0.3846154E+00  0.1333457E-16 -0.1760077E-16  0.3641329E-02
    1      -29.202363   1.000000
    2      -12.879810   1.000000
    3      -12.879810   1.000000
    4      -12.818169   1.000000
    5      -12.806021   1.000000
    6      -12.806021   1.000000
    7       -7.908890   1.000000
    8       -7.384392   1.000000
    9       -7.384392   1.000000
   10       -1.263166   1.000000
   11        3.807595   1.000000
   12        4.704802   1.000000
   13        4.704802   1.000000
   14        5.753175   1.000000
   15        5.753175   1.000000
   16        6.247969   1.000000
   17        8.668043   1.000000
   18        8.668043   1.000000
   19       10.117036   1.000000
   20       11.886909   0.000000
   21       11.886909   0.000000
   22       12.765268   0.000000
   23       12.765346   0.000000
   24       12.868399   0.000000

  0.4615385E+00 -0.1627637E-17 -0.3491794E-17  0.3641329E-02
    1      -29.200776   1.000000
    2      -12.882784   1.000000
    3      -12.882784   1.000000
    4      -12.819492   1.000000
    5      -12.805426   1.000000
    6      -12.805426   1.000000
    7       -7.950881   1.000000
    8       -7.374151   1.000000
    9       -7.374151   1.000000
   10       -1.095037   1.000000
   11        3.644739   1.000000
   12        4.709284   1.000000
   13        4.709284   1.000000
   14        5.637735   1.000000
   15        5.637735   1.000000
   16        6.132365   1.000000
   17        8.691927   1.000000
   18        8.691927   1.000000
   19       10.297167   1.000000
   20       12.036811   0.000000
   21       12.036811   0.000000
   22       12.636513   0.000000
   23       12.742930   0.000000
   24       12.742947   0.000000

  0.7692308E-01  0.7692308E-01 -0.1218887E-17  0.2730997E-02
    1      -29.213776   1.000000
    2      -12.860646   1.000000
    3      -12.855741   1.000000
    4      -12.811142   1.000000
    5      -12.809995   1.000000
    6      -12.809995   1.000000
    7       -7.495995   1.000000
    8       -7.468455   1.000000
    9       -7.468455   1.000000
   10       -2.559246   1.000000
   11        4.951988   1.000000
   12        5.509769   1.000000
   13        5.509769   1.000000
   14        5.542781   1.000000
   15        5.822511   1.000000
   16        8.283248   1.000000
   17        8.852527   1.000000
   18        8.852527   1.000000
   19       10.037557   1.000000
   20       10.400949   0.999702
   21       10.911824   0.000000
   22       10.911824   0.000000
   23       11.957612   0.000000
   24       12.801144   0.000000

  0.1538462E+00  0.7692308E-01 -0.3559508E-17  0.1092399E-01
    1      -29.211999   1.000000
    2      -12.865440   1.000000
    3      -12.856813   1.000000
    4      -12.812052   1.000000
    5      -12.809438   1.000000
    6      -12.809290   1.000000
    7       -7.566724   1.000000
    8       -7.465365   1.000000
    9       -7.453362   1.000000
   10       -2.354580   1.000000
   11        4.633541   1.000000
   12        5.300051   1.000000
   13        5.341093   1.000000
   14        5.748716   1.000000
   15        5.965091   1.000000
   16        7.746920   1.000000
   17        8.676064   1.000000
   18        8.685507   1.000000
   19       10.236569   1.000000
   20       10.489631   0.000000
   21       11.192818   0.000000
   22       11.394594   0.000000
   23       12.372842   0.000000
   24       12.766202   0.000000

  0.2307692E+00  0.7692308E-01 -0.8225102E-18  0.1092399E-01
    1      -29.209128   1.000000
    2      -12.871114   1.000000
    3      -12.860841   1.000000
    4      -12.813457   1.000000
    5      -12.808677   1.000000
    6      -12.808171   1.000000
    7       -7.676270   1.000000
    8       -7.452065   1.000000
    9       -7.430023   1.000000
   10       -2.033074   1.000000
   11        4.344438   1.000000
   12        5.022664   1.000000
   13        5.116886   1.000000
   14        5.842990   1.000000
   15        6.072095   1.000000
   16        7.164999   1.000000
   17        8.529122   1.000000
   18        8.570796   1.000000
   19       10.152486   1.000000
   20       10.911614   0.000000
   21       11.481359   0.000000
   22       12.067658   0.000000
   23       12.738647   0.000000
   24       12.819987   0.000000

  0.3076923E+00  0.7692308E-01 -0.8325419E-17  0.1092399E-01
    1      -29.205820   1.000000
    2      -12.876388   1.000000
    3      -12.866864   1.000000
    4      -12.815309   1.000000
    5      -12.807752   1.000000
    6      -12.806899   1.000000
    7       -7.786723   1.000000
    8       -7.431672   1.000000
    9       -7.408787   1.000000
   10       -1.677700   1.000000
   11        4.085971   1.000000
   12        4.757217   1.000000
   13        4.985336   1.000000
   14        5.798079   1.000000
   15        6.060025   1.000000
   16        6.694890   1.000000
   17        8.461096   1.000000
   18        8.564880   1.000000
   19       10.106306   1.000000
   20       11.364191   0.000000
   21       11.747213   0.000000
   22       12.583377   0.000000
   23       12.722295   0.000000
   24       12.859873   0.000000

  0.3846154E+00  0.7692308E-01  0.6145662E-19  0.1092399E-01
    1      -29.202831   1.000000
    2      -12.880077   1.000000
    3      -12.873440   1.000000
    4      -12.817261   1.000000
    5      -12.806829   1.000000
    6      -12.805809   1.000000
    7       -7.874381   1.000000
    8       -7.408855   1.000000
    9       -7.394566   1.000000
   10       -1.372237   1.000000
   11        3.872508   1.000000
   12        4.634598   1.000000
   13        4.891007   1.000000
   14        5.689157   1.000000
   15        5.944328   1.000000
   16        6.370499   1.000000
   17        8.474711   1.000000
   18        8.609677   1.000000
   19       10.169146   1.000000
   20       11.732503   0.000000
   21       11.962938   0.000000
   22       12.697647   0.000000
   23       12.714698   0.000000
   24       12.932887   0.000000

  0.4615385E+00  0.7692308E-01 -0.1874121E-16  0.1092399E-01
    1      -29.200847   1.000000
    2      -12.881360   1.000000
    3      -12.879041   1.000000
    4      -12.818698   1.000000
    5      -12.806113   1.000000
    6      -12.805179   1.000000
    7       -7.927032   1.000000
    8       -7.390395   1.000000
    9       -7.388750   1.000000
   10       -1.178586   1.000000
   11        3.739801   1.000000
   12        4.644402   1.000000
   13        4.795115   1.000000
   14        5.631780   1.000000
   15        5.788199   1.000000
   16        6.194405   1.000000
   17        8.514884   1.000000
   18        8.646082   1.000000
   19       10.314889   1.000000
   20       11.917163   0.000000
   21       12.087938   0.000000
   22       12.646567   0.000000
   23       12.708851   0.000000
   24       12.872754   0.000000

 -0.4615385E+00  0.7692308E-01 -0.1175762E-16  0.1092399E-01
    1      -29.200318   1.000000
    2      -12.882418   1.000000
    3      -12.879973   1.000000
    4      -12.819067   1.000000
    5      -12.805808   1.000000
    6      -12.805165   1.000000
    7       -7.940178   1.000000
    8       -7.396932   1.000000
    9       -7.375861   1.000000
   10       -1.126273   1.000000
   11        3.704729   1.000000
   12        4.680458   1.000000
   13        4.734999   1.000000
   14        5.668406   1.000000
   15        5.691959   1.000000
   16        6.154217   1.000000
   17        8.527863   1.000000
   18        8.650168   1.000000
   19       10.392693   0.999998
   20       11.941679   0.000000
   21       12.080595   0.000000
   22       12.644436   0.000000
   23       12.710702   0.000000
   24       12.807304   0.000000

 -0.3846154E+00  0.7692308E-01  0.2351352E-17  0.1092399E-01
    1      -29.201366   1.000000
    2      -12.882841   1.000000
    3      -12.876195   1.000000
    4      -12.818197   1.000000
    5      -12.806008   1.000000
    6      -12.805750   1.000000
    7       -7.913212   1.000000
    8       -7.412403   1.000000
    9       -7.373125   1.000000
   10       -1.222035   1.000000
   11        3.775086   1.000000
   12        4.584333   1.000000
   13        4.852018   1.000000
   14        5.644759   1.000000
   15        5.843170   1.000000
   16        6.241532   1.000000
   17        8.484326   1.000000
   18        8.633073   1.000000
   19       10.294065   1.000000
   20       11.919748   0.000000
   21       11.987782   0.000000
   22       12.667252   0.000000
   23       12.728681   0.000000
   24       12.909422   0.000000

 -0.3076923E+00  0.7692308E-01  0.1589429E-16  0.1092399E-01
    1      -29.203751   1.000000
    2      -12.880232   1.000000
    3      -12.870839   1.000000
    4      -12.816437   1.000000
    5      -12.806772   1.000000
    6      -12.806689   1.000000
    7       -7.848256   1.000000
    8       -7.433037   1.000000
    9       -7.381256   1.000000
   10       -1.455513   1.000000
   11        3.964641   1.000000
   12        4.550754   1.000000
   13        4.974448   1.000000
   14        5.715827   1.000000
   15        6.014186   1.000000
   16        6.463281   1.000000
   17        8.391106   1.000000
   18        8.630902   1.000000
   19       10.176559   1.000000
   20       11.631922   0.000000
   21       11.873354   0.000000
   22       12.666956   0.000000
   23       12.754963   0.000000
   24       12.914571   0.000000

 -0.2307692E+00  0.7692308E-01 -0.8064438E-17  0.1092399E-01
    1      -29.206931   1.000000
    2      -12.875181   1.000000
    3      -12.865102   1.000000
    4      -12.814412   1.000000
    5      -12.807975   1.000000
    6      -12.807678   1.000000
    7       -7.752449   1.000000
    8       -7.453773   1.000000
    9       -7.398495   1.000000
   10       -1.786725   1.000000
   11        4.267754   1.000000
   12        4.603244   1.000000
   13        5.129798   1.000000
   14        5.794955   1.000000
   15        6.123980   1.000000
   16        6.833159   1.000000
   17        8.304384   1.000000
   18        8.690805   1.000000
   19       10.143567   1.000000
   20       11.282365   0.000000
   21       11.576675   0.000000
   22       12.459552   0.000000
   23       12.781153   0.000000
   24       12.819346   0.000000

 -0.1538462E+00  0.7692308E-01  0.3224373E-18  0.1092399E-01
    1      -29.210175   1.000000
    2      -12.868818   1.000000
    3      -12.860337   1.000000
    4      -12.812671   1.000000
    5      -12.809082   1.000000
    6      -12.808729   1.000000
    7       -7.642451   1.000000
    8       -7.468915   1.000000
    9       -7.420922   1.000000
   10       -2.142886   1.000000
   11        4.635167   1.000000
   12        4.746478   1.000000
   13        5.340400   1.000000
   14        5.774839   1.000000
   15        6.112998   1.000000
   16        7.340787   1.000000
   17        8.327080   1.000000
   18        8.829433   1.000000
   19       10.185353   1.000000
   20       10.949518   0.000000
   21       11.119579   0.000000
   22       11.938193   0.000000
   23       12.695850   0.000000
   24       12.816546   0.000000

 -0.7692308E-01  0.7692308E-01  0.6697316E-17  0.5461994E-02
    1      -29.212744   1.000000
    2      -12.862562   1.000000
    3      -12.857707   1.000000
    4      -12.811461   1.000000
    5      -12.809864   1.000000
    6      -12.809616   1.000000
    7       -7.548420   1.000000
    8       -7.471669   1.000000
    9       -7.443349   1.000000
   10       -2.436465   1.000000
   11        4.969337   1.000000
   12        4.998535   1.000000
   13        5.519035   1.000000
   14        5.662974   1.000000
   15        5.979199   1.000000
   16        7.885725   1.000000
   17        8.584560   1.000000
   18        8.975227   1.000000
   19       10.113980   1.000000
   20       10.699653   0.000000
   21       10.726864   0.000000
   22       11.342010   0.000000
   23       12.235795   0.000000
   24       12.832297   0.000000

  0.1538462E+00  0.1538462E+00 -0.2437774E-17  0.2730997E-02
    1      -29.210811   1.000000
    2      -12.869453   1.000000
    3      -12.854192   1.000000
    4      -12.813148   1.000000
    5      -12.808659   1.000000
    6      -12.808659   1.000000
    7       -7.569894   1.000000
    8       -7.475665   1.000000
    9       -7.475665   1.000000
   10       -2.239791   1.000000
   11        4.291200   1.000000
   12        5.518014   1.000000
   13        5.518014   1.000000
   14        5.591820   1.000000
   15        5.871470   1.000000
   16        7.729879   1.000000
   17        8.516234   1.000000
   18        8.516234   1.000000
   19       10.031867   1.000000
   20       10.884778   0.000000
   21       11.461338   0.000000
   22       11.461338   0.000000
   23       12.511877   0.000000
   24       12.688010   0.000000

  0.2307692E+00  0.1538462E+00 -0.6325835E-17  0.1092399E-01
    1      -29.208477   1.000000
    2      -12.873205   1.000000
    3      -12.854979   1.000000
    4      -12.814481   1.000000
    5      -12.807866   1.000000
    6      -12.807592   1.000000
    7       -7.644460   1.000000
    8       -7.474257   1.000000
    9       -7.463099   1.000000
   10       -2.015230   1.000000
   11        4.035653   1.000000
   12        5.314827   1.000000
   13        5.377244   1.000000
   14        5.707490   1.000000
   15        5.945737   1.000000
   16        7.428514   1.000000
   17        8.332768   1.000000
   18        8.433946   1.000000
   19       10.145715   1.000000
   20       10.993285   0.000000
   21       11.709375   0.000000
   22       11.934846   0.000000
   23       12.625451   0.000000
   24       12.787594   0.000000

  0.3076923E+00  0.1538462E+00 -0.2528987E-17  0.1092399E-01
    1      -29.205536   1.000000
    2      -12.875838   1.000000
    3      -12.858968   1.000000
    4      -12.815778   1.000000
    5      -12.807328   1.000000
    6      -12.806303   1.000000
    7       -7.740329   1.000000
    8       -7.461607   1.000000
    9       -7.444068   1.000000
   10       -1.749327   1.000000
   11        3.898130   1.000000
   12        4.997104   1.000000
   13        5.234791   1.000000
   14        5.717696   1.000000
   15        6.031067   1.000000
   16        7.030131   1.000000
   17        8.174931   1.000000
   18        8.453708   1.000000
   19       10.275803   1.000000
   20       11.242317   0.000000
   21       11.917898   0.000000
   22       12.417152   0.000000
   23       12.599415   0.000000
   24       12.898717   0.000000

  0.3846154E+00  0.1538462E+00 -0.5441868E-17  0.1092399E-01
    1      -29.202662   1.000000
    2      -12.876796   1.000000
    3      -12.865149   1.000000
    4      -12.816907   1.000000
    5      -12.807060   1.000000
    6      -12.805161   1.000000
    7       -7.822793   1.000000
    8       -7.440651   1.000000
    9       -7.434615   1.000000
   10       -1.511309   1.000000
   11        3.877860   1.000000
   12        4.754743   1.000000
   13        5.090722   1.000000
   14        5.670991   1.000000
   15        6.028268   1.000000
   16        6.652763   1.000000
   17        8.129406   1.000000
   18        8.517992   1.000000
   19       10.288376   1.000000
   20       11.639719   0.000000
   21       12.084526   0.000000
   22       12.613789   0.000000
   23       12.614317   0.000000
   24       12.957750   0.000000

  0.4615385E+00  0.1538462E+00  0.3511041E-17  0.1092399E-01
    1      -29.200514   1.000000
    2      -12.875924   1.000000
    3      -12.872035   1.000000
    4      -12.817656   1.000000
    5      -12.806976   1.000000
    6      -12.804494   1.000000
    7       -7.876755   1.000000
    8       -7.438022   1.000000
    9       -7.416096   1.000000
   10       -1.345369   1.000000
   11        3.920686   1.000000
   12        4.652675   1.000000
   13        4.911141   1.000000
   14        5.678402   1.000000
   15        5.943529   1.000000
   16        6.385673   1.000000
   17        8.147135   1.000000
   18        8.557996   1.000000
   19       10.363819   1.000000
   20       11.821935   0.000000
   21       12.190876   0.000000
   22       12.624570   0.000000
   23       12.641195   0.000000
   24       12.971646   0.000000

 -0.4615385E+00  0.1538462E+00 -0.6948821E-17  0.1092399E-01
    1      -29.199579   1.000000
    2      -12.878045   1.000000
    3      -12.873472   1.000000
    4      -12.817724   1.000000
    5      -12.807021   1.000000
    6      -12.804453   1.000000
    7       -7.897003   1.000000
    8       -7.452625   1.000000
    9       -7.393428   1.000000
   10       -1.265506   1.000000
   11        3.941105   1.000000
   12        4.702603   1.000000
   13        4.714135   1.000000
   14        5.777340   1.000000
   15        5.816717   1.000000
   16        6.284082   1.000000
   17        8.154945   1.000000
   18        8.552555   1.000000
   19       10.497179   0.000000
   20       11.737559   0.000000
   21       12.198064   0.000000
   22       12.658648   0.000000
   23       12.699209   0.000000
   24       12.911092   0.000000

 -0.3846154E+00  0.1538462E+00 -0.3151973E-17  0.1092399E-01
    1      -29.200071   1.000000
    2      -12.881880   1.000000
    3      -12.869990   1.000000
    4      -12.817006   1.000000
    5      -12.807173   1.000000
    6      -12.805024   1.000000
    7       -7.883746   1.000000
    8       -7.473318   1.000000
    9       -7.377759   1.000000
   10       -1.276102   1.000000
   11        3.920432   1.000000
   12        4.549381   1.000000
   13        4.855776   1.000000
   14        5.711526   1.000000
   15        5.937711   1.000000
   16        6.353778   1.000000
   17        8.095563   1.000000
   18        8.524661   1.000000
   19       10.542524   0.000000
   20       11.785866   0.000000
   21       12.061565   0.000000
   22       12.676126   0.000000
   23       12.715184   0.000000
   24       12.929177   0.000000

 -0.3076923E+00  0.1538462E+00  0.7884039E-19  0.1092399E-01
    1      -29.201878   1.000000
    2      -12.882717   1.000000
    3      -12.866147   1.000000
    4      -12.815798   1.000000
    5      -12.807402   1.000000
    6      -12.806033   1.000000
    7       -7.840488   1.000000
    8       -7.492836   1.000000
    9       -7.372742   1.000000
   10       -1.387696   1.000000
   11        3.925180   1.000000
   12        4.455567   1.000000
   13        5.057388   1.000000
   14        5.665339   1.000000
   15        6.104209   1.000000
   16        6.568089   1.000000
   17        7.957884   1.000000
   18        8.519696   1.000000
   19       10.521313   0.000000
   20       11.789069   0.000000
   21       11.877982   0.000000
   22       12.667540   0.000000
   23       12.701505   0.000000
   24       12.984509   0.000000

 -0.2307692E+00  0.1538462E+00  0.9031750E-17  0.1092399E-01
    1      -29.204591   1.000000
    2      -12.880383   1.000000
    3      -12.862734   1.000000
    4      -12.814571   1.000000
    5      -12.807692   1.000000
    6      -12.807220   1.000000
    7       -7.775093   1.000000
    8       -7.502852   1.000000
    9       -7.379677   1.000000
   10       -1.600579   1.000000
   11        4.037606   1.000000
   12        4.454633   1.000000
   13        5.276843   1.000000
   14        5.653996   1.000000
   15        6.211538   1.000000
   16        6.892407   1.000000
   17        7.804840   1.000000
   18        8.582419   1.000000
   19       10.528125   0.000000
   20       11.449147   0.000000
   21       11.728493   0.000000
   22       12.587780   0.000000
   23       12.731046   0.000000
   24       12.941863   0.000000

 -0.1538462E+00  0.1538462E+00 -0.5180888E-17  0.5461994E-02
    1      -29.207584   1.000000
    2      -12.875388   1.000000
    3      -12.860580   1.000000
    4      -12.813558   1.000000
    5      -12.808308   1.000000
    6      -12.808108   1.000000
    7       -7.702841   1.000000
    8       -7.495176   1.000000
    9       -7.397080   1.000000
   10       -1.876832   1.000000
   11        4.287147   1.000000
   12        4.553888   1.000000
   13        5.473705   1.000000
   14        5.619347   1.000000
   15        6.213786   1.000000
   16        7.203153   1.000000
   17        7.852425   1.000000
   18        8.713610   1.000000
   19       10.496242   0.000000
   20       11.133806   0.000000
   21       11.363621   0.000000
   22       12.362410   0.000000
   23       12.764568   0.000000
   24       12.807428   0.000000

  0.2307692E+00  0.2307692E+00 -0.3656661E-17  0.2730997E-02
    1      -29.206764   1.000000
    2      -12.873852   1.000000
    3      -12.852021   1.000000
    4      -12.816104   1.000000
    5      -12.806613   1.000000
    6      -12.806613   1.000000
    7       -7.655999   1.000000
    8       -7.486266   1.000000
    9       -7.486266   1.000000
   10       -1.916570   1.000000
   11        3.846455   1.000000
   12        5.475704   1.000000
   13        5.475704   1.000000
   14        5.663511   1.000000
   15        5.712870   1.000000
   16        7.428940   1.000000
   17        8.370554   1.000000
   18        8.370554   1.000000
   19        9.887668   1.000000
   20       11.400115   0.000000
   21       11.910561   0.000000
   22       11.910561   0.000000
   23       12.517108   0.000000
   24       12.870453   0.000000

  0.3076923E+00  0.2307692E+00 -0.3105415E-17  0.1092399E-01
    1      -29.204391   1.000000
    2      -12.872893   1.000000
    3      -12.852736   1.000000
    4      -12.817516   1.000000
    5      -12.805740   1.000000
    6      -12.805365   1.000000
    7       -7.714906   1.000000
    8       -7.485517   1.000000
    9       -7.482584   1.000000
   10       -1.781387   1.000000
   11        3.816893   1.000000
   12        5.220220   1.000000
   13        5.379991   1.000000
   14        5.701846   1.000000
   15        5.786580   1.000000
   16        7.246957   1.000000
   17        8.228997   1.000000
   18        8.408699   1.000000
   19       10.052632   1.000000
   20       11.480115   0.000000
   21       12.067343   0.000000
   22       12.242040   0.000000
   23       12.454802   0.000000
   24       12.939852   0.000000

  0.3846154E+00  0.2307692E+00 -0.4235464E-17  0.1092399E-01
    1      -29.201894   1.000000
    2      -12.870564   1.000000
    3      -12.856880   1.000000
    4      -12.818302   1.000000
    5      -12.805610   1.000000
    6      -12.804203   1.000000
    7       -7.777837   1.000000
    8       -7.481091   1.000000
    9       -7.472314   1.000000
   10       -1.651743   1.000000
   11        3.941162   1.000000
   12        4.928420   1.000000
   13        5.227144   1.000000
   14        5.712578   1.000000
   15        5.895689   1.000000
   16        6.966530   1.000000
   17        8.020835   1.000000
   18        8.484991   1.000000
   19       10.252495   1.000000
   20       11.660553   0.000000
   21       12.189932   0.000000
   22       12.476615   0.000000
   23       12.517428   0.000000
   24       12.979636   0.000000

  0.4615385E+00  0.2307692E+00 -0.1173837E-16  0.1092399E-01
    1      -29.199849   1.000000
    2      -12.867500   1.000000
    3      -12.863368   1.000000
    4      -12.818227   1.000000
    5      -12.806267   1.000000
    6      -12.803491   1.000000
    7       -7.819969   1.000000
    8       -7.495064   1.000000
    9       -7.449658   1.000000
   10       -1.547497   1.000000
   11        4.150051   1.000000
   12        4.745047   1.000000
   13        5.022875   1.000000
   14        5.757978   1.000000
   15        5.937047   1.000000
   16        6.672668   1.000000
   17        7.888757   1.000000
   18        8.516692   1.000000
   19       10.349245   1.000000
   20       11.810389   0.000000
   21       12.280947   0.000000
   22       12.556159   0.000000
   23       12.584066   0.000000
   24       12.993462   0.000000

 -0.4615385E+00  0.2307692E+00 -0.4754784E-17  0.1092399E-01
    1      -29.198725   1.000000
    2      -12.870683   1.000000
    3      -12.864539   1.000000
    4      -12.817178   1.000000
    5      -12.807482   1.000000
    6      -12.803421   1.000000
    7       -7.834736   1.000000
    8       -7.522400   1.000000
    9       -7.422569   1.000000
   10       -1.468046   1.000000
   11        4.298287   1.000000
   12        4.698787   1.000000
   13        4.797824   1.000000
   14        5.863256   1.000000
   15        5.891587   1.000000
   16        6.505580   1.000000
   17        7.802213   1.000000
   18        8.483885   1.000000
   19       10.490365   0.000000
   20       11.684497   0.000000
   21       12.318050   0.000000
   22       12.617957   0.000000
   23       12.661997   0.000000
   24       12.963152   0.000000

 -0.3846154E+00  0.2307692E+00  0.1966631E-16  0.1092399E-01
    1      -29.198774   1.000000
    2      -12.877190   1.000000
    3      -12.862386   1.000000
    4      -12.815440   1.000000
    5      -12.808779   1.000000
    6      -12.803977   1.000000
    7       -7.826320   1.000000
    8       -7.551845   1.000000
    9       -7.397085   1.000000
   10       -1.412980   1.000000
   11        4.256874   1.000000
   12        4.597331   1.000000
   13        4.780977   1.000000
   14        5.800169   1.000000
   15        6.007237   1.000000
   16        6.552860   1.000000
   17        7.703681   1.000000
   18        8.425945   1.000000
   19       10.675176   0.000000
   20       11.572975   0.000000
   21       12.246555   0.000000
   22       12.638720   0.000000