       N       E                     dE             d eps       ncg     rms          rms(c)
DAV:   1     0.456546278230E+03    0.45655E+03   -0.20835E+04  4032   0.210E+03
DAV:   2     0.482908308925E+02   -0.40826E+03   -0.39876E+03  4080   0.517E+02
DAV:   3    -0.178030316648E+02   -0.66094E+02   -0.65341E+02  5600   0.174E+02
DAV:   4    -0.220101708430E+02   -0.42071E+01   -0.41988E+01  7256   0.443E+01
DAV:   5    -0.221202282201E+02   -0.11006E+00   -0.11003E+00  5664   0.561E+00    0.427E+01
DAV:   6    -0.213474862896E+02    0.77274E+00   -0.13937E+00  5160   0.844E+00    0.256E+01
DAV:   7    -0.211905286840E+02    0.15696E+00   -0.16697E+00  6032   0.796E+00    0.555E+00
DAV:   8    -0.211615338537E+02    0.28995E-01   -0.30697E-01  5568   0.304E+00    0.293E+00
DAV:   9    -0.211563515623E+02    0.51823E-02   -0.99063E-02  5912   0.190E+00    0.276E+00
DAV:  10    -0.211531905753E+02    0.31610E-02   -0.18441E-02  5752   0.787E-01    0.702E-01
DAV:  11    -0.211532454782E+02   -0.54903E-04   -0.83988E-04  5528   0.178E-01    0.451E-01
DAV:  12    -0.211532055021E+02    0.39976E-04   -0.24313E-04  6040   0.906E-02    0.857E-02
DAV:  13    -0.211532074390E+02   -0.19369E-05   -0.36204E-05  6232   0.347E-02    0.299E-02
DAV:  14    -0.211532071178E+02    0.32120E-06   -0.17646E-06  5568   0.916E-03    0.167E-02
DAV:  15    -0.211532068520E+02    0.26584E-06   -0.91547E-07  6584   0.596E-03    0.575E-04
DAV:  16    -0.211532068361E+02    0.15858E-07   -0.44604E-08  3344   0.136E-03
   1 F= -.21153207E+02 E0= -.21153159E+02  d E =-.961510E-04
