 vasp.6.0.8 29Jun18 (build Jun 13 2019 12:54:44) complex

 executed on      IFC18_CrayMPICH date 2021.12.05  14:21:48
 running   64 mpi-ranks, with    1 threads/rank
 distrk:  each k-point on   16 cores,    4 groups
 distr:  one band on NCORES_PER_BAND=   4 cores,    4 groups


--------------------------------------------------------------------------------------------------------


 INCAR:
 POTCAR:    PAW_PBE Th 07Sep2000
 POTCAR:    PAW_PBE Bi_d 06Sep2000
 POTCAR:    PAW_PBE Pt 04Feb2005
 POTCAR:    PAW_PBE Th 07Sep2000
   VRHFIN =Th:  [Xe,5d,4f]
   LEXCH  = PE
   EATOM  =   984.7553 eV,   72.3775 Ry

   TITEL  = PAW_PBE Th 07Sep2000
   LULTRA =        F    use ultrasoft PP ?
   IUNSCR =        1    unscreen: 0-lin 1-nonlin 2-no
   RPACOR =    2.200    partial core radius
   POMASS =  232.039; ZVAL   =   12.000    mass and valenz
   RCORE  =    2.800    outmost cutoff radius
   RWIGS  =    3.000; RWIGS  =    1.588    wigner-seitz radius (au A)
   ENMAX  =  247.306; ENMIN  =  185.480 eV
   RCLOC  =    2.211    cutoff for local pot
   LCOR   =        T    correct aug charges
   LPAW   =        T    paw PP
   EAUG   =  535.431
   DEXC   =    0.000
   RMAX   =    2.862    core radius for proj-oper
   RAUG   =    1.300    factor for augmentation sphere
   RDEP   =    2.926    radius for radial grids
   RDEPT  =    2.250    core radius for aug-charge

   Atomic configuration
   18 entries
     n  l   j            E        occ.
     1  0  0.50   -109990.1879   2.0000
     2  0  0.50    -20388.0147   2.0000
     2  1  1.50    -17049.6156   6.0000
     3  0  0.50     -5106.5436   2.0000
     3  1  1.50     -4175.1262   6.0000
     3  2  2.50     -3342.8437  10.0000
     4  0  0.50     -1280.8211   2.0000
     4  1  1.50      -976.4859   6.0000
     4  2  2.50      -661.8358  10.0000
     4  3  3.50      -324.9124  14.0000
     5  0  0.50      -278.7726   2.0000
     5  1  1.50      -186.2212   6.0000
     5  2  2.50       -86.9031  10.0000
     6  0  0.50       -43.3059   2.0000
     7  0  0.50        -4.0783   2.0000
     6  1  1.50       -21.4071   6.0000
     6  2  1.50        -2.3664   1.0000
     5  3  2.50        -1.2804   1.0000
   Description
     l       E           TYP  RCUT    TYP  RCUT
     0    -43.3059201     23  2.800
     0     -4.0782900     23  2.800
     1    -21.4071032     23  2.500
     1    -22.7676858     23  2.500
     2     -2.3664170     23  2.500
     2      3.0546543     23  2.500
     3     -1.2803910     23  2.800
     3      0.1360583     23  2.800
  local pseudopotential read in
  partial core-charges read in
  partial kinetic energy density read in
  atomic valenz-charges read in
  non local Contribution for L=           0  read in
    real space projection operators read in
  non local Contribution for L=           0  read in
    real space projection operators read in
  non local Contribution for L=           1  read in
    real space projection operators read in
  non local Contribution for L=           1  read in
    real space projection operators read in
  non local Contribution for L=           2  read in
    real space projection operators read in
  non local Contribution for L=           2  read in
    real space projection operators read in
  non local Contribution for L=           3  read in
    real space projection operators read in
  non local Contribution for L=           3  read in
    real space projection operators read in
    PAW grid and wavefunctions read in

   number of l-projection  operators is LMAX  =           8
   number of lm-projection operators is LMMAX =          32

 POTCAR:    PAW_PBE Bi_d 06Sep2000
   VRHFIN =Bi:
   LEXCH  = PE
   EATOM  =  1959.2045 eV,  143.9975 Ry

   TITEL  = PAW_PBE Bi_d 06Sep2000
   LULTRA =        F    use ultrasoft PP ?
   IUNSCR =        1    unscreen: 0-lin 1-nonlin 2-no
   RPACOR =    2.200    partial core radius
   POMASS =  208.980; ZVAL   =   15.000    mass and valenz
   RCORE  =    2.500    outmost cutoff radius
   RWIGS  =    3.090; RWIGS  =    1.635    wigner-seitz radius (au A)
   ENMAX  =  242.839; ENMIN  =  182.129 eV
   ICORE  =        3    local potential
   LCOR   =        T    correct aug charges
   LPAW   =        T    paw PP
   EAUG   =  442.899
   DEXC   =    0.000
   RMAX   =    2.551    core radius for proj-oper
   RAUG   =    1.300    factor for augmentation sphere
   RDEP   =    2.650    radius for radial grids
   RDEPT  =    2.039    core radius for aug-charge

   Atomic configuration
   16 entries
     n  l   j            E        occ.
     1  0  0.50    -90639.6581   2.0000
     2  0  0.50    -16282.4666   2.0000
     2  1  1.50    -13922.8286   6.0000
     3  0  0.50     -3930.4763   2.0000
     3  1  1.50     -3256.7013   6.0000
     3  2  2.50     -2581.6168  10.0000
     4  0  0.50      -902.2614   2.0000
     4  1  1.50      -681.5915   6.0000
     4  2  2.50      -429.8249  10.0000
     4  3  3.50      -152.6004  14.0000
     5  0  0.50      -157.7156   2.0000
     5  1  1.50       -95.8054   6.0000
     5  2  2.50       -27.0806  10.0000
     6  0  0.50       -14.4732   2.0000
     6  1  1.50        -4.5702   3.0000
     5  3  2.50        -2.7212   0.0000
   Description
     l       E           TYP  RCUT    TYP  RCUT
     2    -27.0805982     23  2.500
     2     -1.3605826     23  2.500
     0    -14.4732271     23  2.500
     0      6.8029130     23  2.500
     1     -4.5701651     23  2.500
     1     13.6058260     23  2.500
     3     -1.3605826      7  2.500
  local pseudopotential read in
  partial core-charges read in
  partial kinetic energy density read in
  atomic valenz-charges read in
  non local Contribution for L=           2  read in
    real space projection operators read in
  non local Contribution for L=           2  read in
    real space projection operators read in
  non local Contribution for L=           0  read in
    real space projection operators read in
  non local Contribution for L=           0  read in
    real space projection operators read in
  non local Contribution for L=           1  read in
    real space projection operators read in
  non local Contribution for L=           1  read in
    real space projection operators read in
    PAW grid and wavefunctions read in

   number of l-projection  operators is LMAX  =           6
   number of lm-projection operators is LMMAX =          18

 POTCAR:    PAW_PBE Pt 04Feb2005
   VRHFIN =Pt: s1d9
   LEXCH  = PE
   EATOM  =   729.1176 eV,   53.5886 Ry

   TITEL  = PAW_PBE Pt 04Feb2005
   LULTRA =        F    use ultrasoft PP ?
   IUNSCR =        1    unscreen: 0-lin 1-nonlin 2-no
   RPACOR =    2.330    partial core radius
   POMASS =  195.080; ZVAL   =   10.000    mass and valenz
   RCORE  =    2.600    outmost cutoff radius
   RWIGS  =    2.750; RWIGS  =    1.455    wigner-seitz radius (au A)
   ENMAX  =  230.283; ENMIN  =  172.712 eV
   ICORE  =        3    local potential
   LCOR   =        T    correct aug charges
   LPAW   =        T    paw PP
   EAUG   =  358.966
   DEXC   =    0.000
   RMAX   =    2.658    core radius for proj-oper
   RAUG   =    1.300    factor for augmentation sphere
   RDEP   =    2.761    radius for radial grids
   RDEPT  =    2.203    core radius for aug-charge

   Atomic configuration
   16 entries
     n  l   j            E        occ.
     1  0  0.50    -78401.1885   2.0000
     2  0  0.50    -13770.7750   2.0000
     2  1  1.50    -11931.0468   6.0000
     3  0  0.50     -3234.7234   2.0000
     3  1  1.50     -2699.2216   6.0000
     3  2  2.50     -2119.5714  10.0000
     4  0  0.50      -695.1528   2.0000
     4  1  1.50      -519.6034   6.0000
     4  2  2.50      -306.6786  10.0000
     4  3  3.50       -70.1041  14.0000
     5  0  0.50      -101.7747   2.0000
     5  1  1.50       -55.9873   6.0000
     5  2  2.50        -6.1423   9.0000
     6  0  0.50        -5.6573   1.0000
     6  1  1.50        -6.8029   0.0000
     5  3  2.50        -1.3606   0.0000
   Description
     l       E           TYP  RCUT    TYP  RCUT
     2     -6.1423404     23  2.500
     2     -7.5029230     23  2.500
     0     -5.6573207     23  2.500
     0      0.7416693     23  2.500
     1     -2.7211652     23  2.600
     1     20.4087390     23  2.600
     3     -1.3605826     23  2.500
  local pseudopotential read in
  partial core-charges read in
  partial kinetic energy density read in
  atomic valenz-charges read in
  non local Contribution for L=           2  read in
    real space projection operators read in
  non local Contribution for L=           2  read in
    real space projection operators read in
  non local Contribution for L=           0  read in
    real space projection operators read in
  non local Contribution for L=           0  read in
    real space projection operators read in
  non local Contribution for L=           1  read in
    real space projection operators read in
  non local Contribution for L=           1  read in
    real space projection operators read in
    PAW grid and wavefunctions read in

   number of l-projection  operators is LMAX  =           6
   number of lm-projection operators is LMMAX =          18

 WARNING: PSMAXN for non-local potential too small
          PSMAXN should be >   13.5545592237991       NTYP=           1

 -----------------------------------------------------------------------------
|                                                                             |
|  ADVICE TO THIS USER RUNNING 'VASP/VAMP'   (HEAR YOUR MASTER'S VOICE ...):  |
|                                                                             |
|      You enforced a specific xc-type in the INCAR file,                     |
|      a different type was found on the POTCAR file                          |
|          I HOPE YOU KNOW, WHAT YOU ARE  DOING                               |
|                                                                             |
 -----------------------------------------------------------------------------

  PAW_PBE Th 07Sep2000                  :
 energy of atom  1       EATOM= -984.7553
 kinetic energy error for atom=    0.0005 (will be added to EATOM!!)
  PAW_PBE Bi_d 06Sep2000                :
 energy of atom  2       EATOM=-1959.2045
 kinetic energy error for atom=    0.0012 (will be added to EATOM!!)
  PAW_PBE Pt 04Feb2005                  :
 energy of atom  3       EATOM= -729.1176
 kinetic energy error for atom=    0.0010 (will be added to EATOM!!)


 POSCAR: Th1 Bi1 Pt1
  positions in direct lattice
  No initial velocities read in
 exchange correlation table for  LEXCH =       14
   RHO(1)=    0.500       N(1)  =     2000
   RHO(2)=  100.500       N(2)  =     4000



--------------------------------------------------------------------------------------------------------


 ion  position               nearest neighbor table
   1  0.250  0.250  0.250-   3 2.82   3 2.82   3 2.82   3 2.82   2 3.26   2 3.26   2 3.26   2 3.26
                             2 3.26   2 3.26
   2  0.750  0.750  0.750-   3 2.82   3 2.82   3 2.82   3 2.82   1 3.26   1 3.26   1 3.26   1 3.26
                             1 3.26   1 3.26
   3  0.000  0.000  0.000-   2 2.82   2 2.82   1 2.82   1 2.82   2 2.82   1 2.82   2 2.82   1 2.82


  LATTYP: Found a face centered cubic cell.
 ALAT       =     6.5138663348

  Lattice vectors:

 A1 = (   0.0000000000,   3.2569331674,   3.2569331674)
 A2 = (   3.2569331674,   0.0000000000,   3.2569331674)
 A3 = (   3.2569331674,   3.2569331674,   0.0000000000)


Analysis of symmetry for initial positions (statically):
=====================================================================
 Subroutine PRICEL returns:
 Original cell was already a primitive cell.


 Routine SETGRP: Setting up the symmetry group for a
 face centered cubic supercell.


 Subroutine GETGRP returns: Found 24 space group operations
 (whereof 24 operations were pure point group operations)
 out of a pool of 48 trial point group operations.


The static configuration has the point symmetry T_d .


Analysis of symmetry for dynamics (positions and initial velocities):
=====================================================================
 Subroutine PRICEL returns:
 Original cell was already a primitive cell.


 Routine SETGRP: Setting up the symmetry group for a
 face centered cubic supercell.


 Subroutine GETGRP returns: Found 24 space group operations
 (whereof 24 operations were pure point group operations)
 out of a pool of 48 trial point group operations.


The dynamic configuration has the point symmetry T_d .


 Subroutine INISYM returns: Found 24 space group operations
 (whereof 24 operations are pure point group operations),
 and found     1 'primitive' translations


----------------------------------------------------------------------------------------

                                     Primitive cell

  volume of cell :      69.0966

  direct lattice vectors                    reciprocal lattice vectors
     0.000000000  3.256933167  3.256933167    -0.153518655  0.153518655  0.153518655
     3.256933167  0.000000000  3.256933167     0.153518655 -0.153518655  0.153518655
     3.256933167  3.256933167  0.000000000     0.153518655  0.153518655 -0.153518655

  length of vectors
     4.605999057  4.605999057  4.605999057     0.265902111  0.265902111  0.265902111

  position of ions in fractional coordinates (direct lattice)
     0.250000000  0.250000000  0.250000000
     0.750000000  0.750000000  0.750000000
     0.000000000  0.000000000  0.000000000

  ion indices of the primitive-cell ions
   primitive index   ion index
                 1           1
                 2           2
                 3           3

----------------------------------------------------------------------------------------



 KPOINTS: KPOINTS

Automatic generation of k-mesh.
Space group operators:
 irot       det(A)        alpha          n_x          n_y          n_z        tau_x        tau_y        tau_z
    1     1.000000     0.000000     1.000000     0.000000     0.000000     0.000000     0.000000     0.000000
    2     1.000000   120.000000    -0.577350    -0.577350    -0.577350     0.000000     0.000000     0.000000
    3     1.000000   120.000000     0.577350     0.577350     0.577350     0.000000     0.000000     0.000000
    4    -1.000000    90.000000    -0.000000    -0.000000    -1.000000     0.000000     0.000000     0.000000
    5    -1.000000   180.000000     0.000000     0.707107     0.707107     0.000000     0.000000     0.000000
    6    -1.000000    90.000000    -0.000000     1.000000    -0.000000     0.000000     0.000000     0.000000
    7     1.000000   180.000000    -0.000000     0.000000     1.000000     0.000000     0.000000     0.000000
    8     1.000000   120.000000    -0.577350     0.577350     0.577350     0.000000     0.000000     0.000000
    9     1.000000   120.000000    -0.577350     0.577350    -0.577350     0.000000     0.000000     0.000000
   10    -1.000000    90.000000     0.000000     0.000000     1.000000     0.000000     0.000000     0.000000
   11    -1.000000    90.000000    -1.000000     0.000000     0.000000     0.000000     0.000000     0.000000
   12    -1.000000   180.000000     0.707107     0.000000     0.707107     0.000000     0.000000     0.000000
   13     1.000000   120.000000     0.577350    -0.577350     0.577350     0.000000     0.000000     0.000000
   14     1.000000   120.000000    -0.577350    -0.577350     0.577350     0.000000     0.000000     0.000000
   15     1.000000   180.000000     1.000000     0.000000     0.000000     0.000000     0.000000     0.000000
   16    -1.000000    90.000000     0.000000    -1.000000     0.000000     0.000000     0.000000     0.000000
   17    -1.000000   180.000000     0.707107     0.707107    -0.000000     0.000000     0.000000     0.000000
   18    -1.000000    90.000000     1.000000     0.000000     0.000000     0.000000     0.000000     0.000000
   19     1.000000   120.000000     0.577350    -0.577350    -0.577350     0.000000     0.000000     0.000000
   20     1.000000   180.000000    -0.000000    -1.000000     0.000000     0.000000     0.000000     0.000000
   21     1.000000   120.000000     0.577350     0.577350    -0.577350     0.000000     0.000000     0.000000
   22    -1.000000   180.000000    -0.000000    -0.707107     0.707107     0.000000     0.000000     0.000000
   23    -1.000000   180.000000     0.707107    -0.707107     0.000000     0.000000     0.000000     0.000000
   24    -1.000000   180.000000     0.707107     0.000000    -0.707107     0.000000     0.000000     0.000000

 Subroutine IBZKPT returns following result:
 ===========================================

 Found     84 irreducible k-points:

 Following reciprocal coordinates:
            Coordinates               Weight
  0.000000  0.000000  0.000000      1.000000
  0.076923  0.000000 -0.000000      8.000000
  0.153846 -0.000000  0.000000      8.000000
  0.230769 -0.000000 -0.000000      8.000000
  0.307692 -0.000000  0.000000      8.000000
  0.384615  0.000000 -0.000000      8.000000
  0.461538 -0.000000 -0.000000      8.000000
  0.076923  0.076923 -0.000000      6.000000
  0.153846  0.076923 -0.000000     24.000000
  0.230769  0.076923 -0.000000     24.000000
  0.307692  0.076923 -0.000000     24.000000
  0.384615  0.076923  0.000000     24.000000
  0.461538  0.076923 -0.000000     24.000000
 -0.461538  0.076923 -0.000000     24.000000
 -0.384615  0.076923  0.000000     24.000000
 -0.307692  0.076923  0.000000     24.000000
 -0.230769  0.076923 -0.000000     24.000000
 -0.153846  0.076923  0.000000     24.000000
 -0.076923  0.076923  0.000000     12.000000
  0.153846  0.153846 -0.000000      6.000000
  0.230769  0.153846 -0.000000     24.000000
  0.307692  0.153846 -0.000000     24.000000
  0.384615  0.153846 -0.000000     24.000000
  0.461538  0.153846  0.000000     24.000000
 -0.461538  0.153846 -0.000000     24.000000
 -0.384615  0.153846 -0.000000     24.000000
 -0.307692  0.153846  0.000000     24.000000
 -0.230769  0.153846  0.000000     24.000000
 -0.153846  0.153846 -0.000000     12.000000
  0.230769  0.230769 -0.000000      6.000000
  0.307692  0.230769 -0.000000     24.000000
  0.384615  0.230769 -0.000000     24.000000
  0.461538  0.230769 -0.000000     24.000000
 -0.461538  0.230769 -0.000000     24.000000
 -0.384615  0.230769  0.000000     24.000000
 -0.307692  0.230769 -0.000000     24.000000
 -0.230769  0.230769 -0.000000     12.000000
  0.307692  0.307692 -0.000000      6.000000
  0.384615  0.307692 -0.000000     24.000000
  0.461538  0.307692 -0.000000     24.000000
 -0.461538  0.307692 -0.000000     24.000000
 -0.384615  0.307692  0.000000     24.000000
 -0.307692  0.307692 -0.000000     12.000000
  0.384615  0.384615 -0.000000      6.000000
  0.461538  0.384615 -0.000000     24.000000
 -0.461538  0.384615  0.000000     24.000000
 -0.384615  0.384615  0.000000     12.000000
  0.461538  0.461538 -0.000000      6.000000
 -0.461538  0.461538 -0.000000     12.000000
  0.230769  0.153846  0.076923     24.000000
  0.307692  0.153846  0.076923     48.000000
  0.384615  0.153846  0.076923     48.000000
  0.461538  0.153846  0.076923     48.000000
 -0.461538  0.153846  0.076923     48.000000
  0.307692  0.230769  0.076923     24.000000
  0.384615  0.230769  0.076923     48.000000
  0.461538  0.230769  0.076923     48.000000
 -0.461538  0.230769  0.076923     48.000000
 -0.384615  0.230769  0.076923     48.000000
 -0.307692  0.230769  0.076923     48.000000
 -0.230769  0.230769  0.076923     48.000000
 -0.153846  0.230769  0.076923     24.000000
  0.384615  0.307692  0.076923     24.000000
  0.461538  0.307692  0.076923     48.000000
 -0.461538  0.307692  0.076923     48.000000
 -0.384615  0.307692  0.076923     48.000000
 -0.307692  0.307692  0.076923     48.000000
 -0.230769  0.307692  0.076923     24.000000
  0.461538  0.384615  0.076923     24.000000
 -0.461538  0.384615  0.076923     48.000000
 -0.384615  0.384615  0.076923     48.000000
 -0.307692  0.384615  0.076923     24.000000
 -0.461538  0.461538  0.076923     24.000000
 -0.384615  0.461538  0.076923     24.000000
  0.461538  0.307692  0.153846     24.000000
 -0.461538  0.307692  0.153846     48.000000
 -0.384615  0.307692  0.153846     48.000000
 -0.461538  0.384615  0.153846     24.000000
 -0.384615  0.384615  0.153846     48.000000
 -0.307692  0.384615  0.153846     48.000000
 -0.230769  0.384615  0.153846     24.000000
 -0.384615  0.461538  0.153846     24.000000
 -0.307692  0.461538  0.153846     24.000000
 -0.307692  0.461538  0.230769     24.000000

 Following cartesian coordinates:
            Coordinates               Weight
  0.000000  0.000000  0.000000      1.000000
 -0.011230  0.011230  0.011230      8.000000
 -0.022460  0.022460  0.022460      8.000000
 -0.033690  0.033690  0.033690      8.000000
 -0.044920  0.044920  0.044920      8.000000
 -0.056151  0.056151  0.056151      8.000000
 -0.067381  0.067381  0.067381      8.000000
 -0.000000  0.000000  0.022460      6.000000
 -0.011230  0.011230  0.033690     24.000000
 -0.022460  0.022460  0.044920     24.000000
 -0.033690  0.033690  0.056151     24.000000
 -0.044920  0.044920  0.067381     24.000000
 -0.056151  0.056151  0.078611     24.000000
  0.078611 -0.078611 -0.056151     24.000000
  0.067381 -0.067381 -0.044920     24.000000
  0.056151 -0.056151 -0.033690     24.000000
  0.044920 -0.044920 -0.022460     24.000000
  0.033690 -0.033690 -0.011230     24.000000
  0.022460 -0.022460 -0.000000     12.000000
 -0.000000  0.000000  0.044920      6.000000
 -0.011230  0.011230  0.056151     24.000000
 -0.022460  0.022460  0.067381     24.000000
 -0.033690  0.033690  0.078611     24.000000
 -0.044920  0.044920  0.089841     24.000000
  0.089841 -0.089841 -0.044920     24.000000
  0.078611 -0.078611 -0.033690     24.000000
  0.067381 -0.067381 -0.022460     24.000000
  0.056151 -0.056151 -0.011230     24.000000
  0.044920 -0.044920  0.000000     12.000000
 -0.000000  0.000000  0.067381      6.000000
 -0.011230  0.011230  0.078611     24.000000
 -0.022460  0.022460  0.089841     24.000000
 -0.033690  0.033690  0.101071     24.000000
  0.101071 -0.101071 -0.033690     24.000000
  0.089841 -0.089841 -0.022460     24.000000
  0.078611 -0.078611 -0.011230     24.000000
  0.067381 -0.067381 -0.000000     12.000000
 -0.000000  0.000000  0.089841      6.000000
 -0.011230  0.011230  0.101071     24.000000
 -0.022460  0.022460  0.112301     24.000000
  0.112301 -0.112301 -0.022460     24.000000
  0.101071 -0.101071 -0.011230     24.000000
  0.089841 -0.089841  0.000000     12.000000
 -0.000000  0.000000  0.112301      6.000000
 -0.011230  0.011230  0.123531     24.000000
  0.123531 -0.123531 -0.011230     24.000000
  0.112301 -0.112301 -0.000000     12.000000
 -0.000000  0.000000  0.134761      6.000000
  0.134761 -0.134761 -0.000000     12.000000
  0.000000  0.022460  0.044920     24.000000
 -0.011230  0.033690  0.056151     48.000000
 -0.022460  0.044920  0.067381     48.000000
 -0.033690  0.056151  0.078611     48.000000
  0.101071 -0.078611 -0.056151     48.000000
  0.000000  0.022460  0.067381     24.000000
 -0.011230  0.033690  0.078611     48.000000
 -0.022460  0.044920  0.089841     48.000000
  0.112301 -0.089841 -0.044920     48.000000
  0.101071 -0.078611 -0.033690     48.000000
  0.089841 -0.067381 -0.022460     48.000000
  0.078611 -0.056151 -0.011230     48.000000
  0.067381 -0.044920  0.000000     24.000000
 -0.000000  0.022460  0.089841     24.000000
 -0.011230  0.033690  0.101071     48.000000
  0.123531 -0.101071 -0.033690     48.000000
  0.112301 -0.089841 -0.022460     48.000000
  0.101071 -0.078611 -0.011230     48.000000
  0.089841 -0.067381 -0.000000     24.000000
  0.000000  0.022460  0.112301     24.000000
  0.134761 -0.112301 -0.022460     48.000000
  0.123531 -0.101071 -0.011230     48.000000
  0.112301 -0.089841 -0.000000     24.000000
  0.145991 -0.123531 -0.011230     24.000000
  0.134761 -0.112301 -0.000000     24.000000
 -0.000000  0.044920  0.089841     24.000000
  0.134761 -0.089841 -0.044920     48.000000
  0.123531 -0.078611 -0.033690     48.000000
  0.145991 -0.101071 -0.033690     24.000000
  0.134761 -0.089841 -0.022460     48.000000
  0.123531 -0.078611 -0.011230     48.000000
  0.112301 -0.067381 -0.000000     24.000000
  0.145991 -0.101071 -0.011230     24.000000
  0.134761 -0.089841  0.000000     24.000000
  0.145991 -0.078611 -0.011230     24.000000



--------------------------------------------------------------------------------------------------------




 Dimension of arrays:
   k-points           NKPTS =     84   k-points in BZ     NKDIM =     84   number of bands    NBANDS=     24
   number of dos      NEDOS =    301   number of ions     NIONS =      3
   non local maximal  LDIM  =      8   non local SUM 2l+1 LMDIM =     32
   total plane-waves  NPLWV =  64000
   max r-space proj   IRMAX =      1   max aug-charges    IRDMAX= 448947
   dimension x,y,z NGX =    40 NGY =   40 NGZ =   40
   dimension x,y,z NGXF=    80 NGYF=   80 NGZF=   80
   support grid    NGXF=   160 NGYF=  160 NGZF=  160
   ions per type =               1   1   1
   NGX,Y,Z   is equivalent  to a cutoff of  14.44, 14.44, 14.44 a.u.
   NGXF,Y,Z  is equivalent  to a cutoff of  28.87, 28.87, 28.87 a.u.

 SYSTEM =  unknown system
 POSCAR =  Th1 Bi1 Pt1

 Startparameter for this run:
   NWRITE =      2    write-flag & timer
   PREC   = acc       normal or accurate (medium, high low for compatibility)
   ISTART =      0    job   : 0-new  1-cont  2-samecut
   ICHARG =      2    charge: 1-file 2-atom 10-const
   ISPIN  =      1    spin polarized calculation?
   LNONCOLLINEAR =      F non collinear calculations
   LSORBIT =      F    spin-orbit coupling
   INIWAV =      1    electr: 0-lowe 1-rand  2-diag
   LASPH  =      F    aspherical Exc in radial PAW
   METAGGA=      F    non-selfconsistent MetaGGA calc.

 Electronic Relaxation 1
   ENCUT  =  700.0 eV  51.45 Ry    7.17 a.u.   9.94  9.94  9.94*2*pi/ulx,y,z
   ENINI  =  700.0     initial cutoff
   ENAUG  =  535.4 eV  augmentation charge cutoff
   NELM   =     60;   NELMIN=  5; NELMDL= -5     # of ELM steps
   EDIFF  = 0.1E-06   stopping-criterion for ELM
   LREAL  =      F    real-space projection
   NLSPLINE    = F    spline interpolate recip. space projectors
   LCOMPAT=      F    compatible to vasp.4.4
   GGA_COMPAT  = T    GGA compatible to vasp.4.4-vasp.4.6
   LMAXPAW     = -100 max onsite density
   LMAXMIX     =    2 max onsite mixed and CHGCAR
   VOSKOWN=      0    Vosko Wilk Nusair interpolation
   ROPT   =    0.00000   0.00000   0.00000
 Ionic relaxation
   EDIFFG = 0.1E-05   stopping-criterion for IOM
   NSW    =      0    number of steps for IOM
   NBLOCK =      1;   KBLOCK =      1    inner block; outer block
   IBRION =     -1    ionic relax: 0-MD 1-quasi-New 2-CG
   NFREE  =      0    steps in history (QN), initial steepest desc. (CG)
   ISIF   =      3    stress and relaxation
   IWAVPR =     10    prediction:  0-non 1-charg 2-wave 3-comb
   ISYM   =      2    0-nonsym 1-usesym 2-fastsym
   LCORR  =      T    Harris-Foulkes like correction to forces

   POTIM  = 0.5000    time-step for ionic-motion
   TEIN   =    0.0    initial temperature
   TEBEG  =    0.0;   TEEND  =   0.0 temperature during run
   SMASS  =  -3.00    Nose mass-parameter (am)
   estimated Nose-frequenzy (Omega)   =  0.10E-29 period in steps = 0.13E+47 mass=  -0.485E-27a.u.
   SCALEE = 1.0000    scale energy and forces
   NPACO  =    256;   APACO  = 16.0  distance and # of slots for P.C.
   PSTRESS=    0.0 pullay stress

  Mass of Ions in am
   POMASS = 232.04208.98195.08
  Ionic Valenz
   ZVAL   =  12.00 15.00 10.00
  Atomic Wigner-Seitz radii
   RWIGS  =  -1.00 -1.00 -1.00
  virtual crystal weights
   VCA    =   1.00  1.00  1.00
   NELECT =      37.0000    total number of electrons
   NUPDOWN=      -1.0000    fix difference up-down

 DOS related values:
   EMIN   =  10.00;   EMAX   =-10.00  energy-range for DOS
   EFERMI =   0.00
   ISMEAR =     0;   SIGMA  =   0.01  broadening in eV -4-tet -1-fermi 0-gaus

 Electronic relaxation 2 (details)
   IALGO  =     38    algorithm
   LDIAG  =      T    sub-space diagonalisation (order eigenvalues)
   LSUBROT=      F    optimize rotation matrix (better conditioning)
   TURBO    =      0    0=normal 1=particle mesh
   IRESTART =      0    0=no restart 2=restart with 2 vectors
   NREBOOT  =      0    no. of reboots
   NMIN     =      0    reboot dimension
   EREF     =   0.00    reference energy to select bands
   IMIX   =      4    mixing-type and parameters
     AMIX     =   0.40;   BMIX     =  1.00
     AMIX_MAG =   1.60;   BMIX_MAG =  1.00
     AMIN     =   0.10
     WC   =   100.;   INIMIX=   1;  MIXPRE=   1;  MAXMIX= -45

 Intra band minimization:
   WEIMIN = 0.0000     energy-eigenvalue tresh-hold
   EBREAK =  0.10E-08  absolut break condition
   DEPER  =   0.30     relativ break condition

   TIME   =   0.40     timestep for ELM

  volume/ion in A,a.u.               =      23.03       155.43
  Fermi-wavevector in a.u.,A,eV,Ry     =   1.329403  2.512207 24.045734  1.767312
  Thomas-Fermi vector in A             =   2.458568

 Write flags
   LWAVE        =      F    write WAVECAR
   LDOWNSAMPLE  =      F    k-point downsampling of WAVECAR
   LCHARG       =      F    write CHGCAR
   LVTOT        =      F    write LOCPOT, total local potential
   LVHAR        =      F    write LOCPOT, Hartree potential only
   LELF         =      F    write electronic localiz. function (ELF)
   LORBIT       =      0    0 simple, 1 ext, 2 COOP (PROOUT), +10 PAW based schemes


 Dipole corrections
   LMONO  =      F    monopole corrections only (constant potential shift)
   LDIPOL =      F    correct potential (dipole corrections)
   IDIPOL =      0    1-x, 2-y, 3-z, 4-all directions
   EPSILON=  1.0000000 bulk dielectric constant

 Exchange correlation treatment:
   GGA     =    PS    GGA type
   LEXCH   =    14    internal setting for exchange type
   VOSKOWN=      0    Vosko Wilk Nusair interpolation
   LHFCALC =     F    Hartree Fock is set to
   LHFONE  =     F    Hartree Fock one center treatment
   AEXX    =    0.0000 exact exchange contribution

 Linear response parameters
   LEPSILON=     F    determine dielectric tensor
   LRPA    =     F    only Hartree local field effects (RPA)
   LNABLA  =     F    use nabla operator in PAW spheres
   LVEL    =     F    velocity operator in full k-point grid
   LINTERFAST=   F  fast interpolation
   KINTER  =     0    interpolate to denser k-point grid
   CSHIFT  =0.1000    complex shift for real part using Kramers Kronig
   OMEGAMAX=  -1.0    maximum frequency
   DEG_THRESHOLD= 0.2000000E-02 threshold for treating states as degnerate
   RTIME   =   -0.100 relaxation time in fs
  (WPLASMAI=    0.000 imaginary part of plasma frequency in eV, 0.658/RTIME)
   DFIELD  = 0.0000000 0.0000000 0.0000000 field for delta impulse in time

 Orbital magnetization related:
   ORBITALMAG=     F  switch on orbital magnetization
   LCHIMAG   =     F  perturbation theory with respect to B field
   DQ        =  0.001000  dq finite difference perturbation B field
   LLRAUG    =     F  two centre corrections for induced B field



--------------------------------------------------------------------------------------------------------


 Static calculation
 charge density and potential will be updated during run
 non-spin polarized calculation
 Variant of blocked Davidson
 Davidson routine will perform the subspace rotation
 perform sub-space diagonalisation
    after iterative eigenvector-optimisation
 modified Broyden-mixing scheme, WC =      100.0
 initial mixing is a Kerker type mixing with AMIX =  0.4000 and BMIX =      1.0000
 Hartree-type preconditioning will be used
 using additional bands            5
 reciprocal scheme for non local part
 use partial core corrections
 calculate Harris-corrections to forces
   (improved forces if not selfconsistent)
 use gradient corrections
 use of overlap-Matrix (Vanderbilt PP)
 Gauss-broadening in eV      SIGMA  =   0.01


--------------------------------------------------------------------------------------------------------


  energy-cutoff  :      700.00
  volume of cell :       69.10
      direct lattice vectors                 reciprocal lattice vectors
     0.000000000  3.256933167  3.256933167    -0.153518655  0.153518655  0.153518655
     3.256933167  0.000000000  3.256933167     0.153518655 -0.153518655  0.153518655
     3.256933167  3.256933167  0.000000000     0.153518655  0.153518655 -0.153518655

  length of vectors
     4.605999057  4.605999057  4.605999057     0.265902111  0.265902111  0.265902111



 k-points in units of 2pi/SCALE and weight: KPOINTS
   0.00000000  0.00000000  0.00000000       0.000
  -0.01123011  0.01123011  0.01123011       0.004
  -0.02246022  0.02246022  0.02246022       0.004
  -0.03369033  0.03369033  0.03369033       0.004
  -0.04492043  0.04492043  0.04492043       0.004
  -0.05615054  0.05615054  0.05615054       0.004
  -0.06738065  0.06738065  0.06738065       0.004
  -0.00000000  0.00000000  0.02246022       0.003
  -0.01123011  0.01123011  0.03369033       0.011
  -0.02246022  0.02246022  0.04492043       0.011
  -0.03369033  0.03369033  0.05615054       0.011
  -0.04492043  0.04492043  0.06738065       0.011
  -0.05615054  0.05615054  0.07861076       0.011
   0.07861076 -0.07861076 -0.05615054       0.011
   0.06738065 -0.06738065 -0.04492043       0.011
   0.05615054 -0.05615054 -0.03369033       0.011
   0.04492043 -0.04492043 -0.02246022       0.011
   0.03369033 -0.03369033 -0.01123011       0.011
   0.02246022 -0.02246022 -0.00000000       0.005
  -0.00000000  0.00000000  0.04492043       0.003
  -0.01123011  0.01123011  0.05615054       0.011
  -0.02246022  0.02246022  0.06738065       0.011
  -0.03369033  0.03369033  0.07861076       0.011
  -0.04492043  0.04492043  0.08984087       0.011
   0.08984087 -0.08984087 -0.04492043       0.011
   0.07861076 -0.07861076 -0.03369033       0.011
   0.06738065 -0.06738065 -0.02246022       0.011
   0.05615054 -0.05615054 -0.01123011       0.011
   0.04492043 -0.04492043  0.00000000       0.005
  -0.00000000  0.00000000  0.06738065       0.003
  -0.01123011  0.01123011  0.07861076       0.011
  -0.02246022  0.02246022  0.08984087       0.011
  -0.03369033  0.03369033  0.10107098       0.011
   0.10107098 -0.10107098 -0.03369033       0.011
   0.08984087 -0.08984087 -0.02246022       0.011
   0.07861076 -0.07861076 -0.01123011       0.011
   0.06738065 -0.06738065 -0.00000000       0.005
  -0.00000000  0.00000000  0.08984087       0.003
  -0.01123011  0.01123011  0.10107098       0.011
  -0.02246022  0.02246022  0.11230109       0.011
   0.11230109 -0.11230109 -0.02246022       0.011
   0.10107098 -0.10107098 -0.01123011       0.011
   0.08984087 -0.08984087  0.00000000       0.005
  -0.00000000  0.00000000  0.11230109       0.003
  -0.01123011  0.01123011  0.12353119       0.011
   0.12353119 -0.12353119 -0.01123011       0.011
   0.11230109 -0.11230109 -0.00000000       0.005
  -0.00000000  0.00000000  0.13476130       0.003
   0.13476130 -0.13476130 -0.00000000       0.005
   0.00000000  0.02246022  0.04492043       0.011
  -0.01123011  0.03369033  0.05615054       0.022
  -0.02246022  0.04492043  0.06738065       0.022
  -0.03369033  0.05615054  0.07861076       0.022
   0.10107098 -0.07861076 -0.05615054       0.022
   0.00000000  0.02246022  0.06738065       0.011
  -0.01123011  0.03369033  0.07861076       0.022
  -0.02246022  0.04492043  0.08984087       0.022
   0.11230109 -0.08984087 -0.04492043       0.022
   0.10107098 -0.07861076 -0.03369033       0.022
   0.08984087 -0.06738065 -0.02246022       0.022
   0.07861076 -0.05615054 -0.01123011       0.022
   0.06738065 -0.04492043  0.00000000       0.011
  -0.00000000  0.02246022  0.08984087       0.011
  -0.01123011  0.03369033  0.10107098       0.022
   0.12353119 -0.10107098 -0.03369033       0.022
   0.11230109 -0.08984087 -0.02246022       0.022
   0.10107098 -0.07861076 -0.01123011       0.022
   0.08984087 -0.06738065 -0.00000000       0.011
   0.00000000  0.02246022  0.11230109       0.011
   0.13476130 -0.11230109 -0.02246022       0.022
   0.12353119 -0.10107098 -0.01123011       0.022
   0.11230109 -0.08984087 -0.00000000       0.011
   0.14599141 -0.12353119 -0.01123011       0.011
   0.13476130 -0.11230109 -0.00000000       0.011
  -0.00000000  0.04492043  0.08984087       0.011
   0.13476130 -0.08984087 -0.04492043       0.022
   0.12353119 -0.07861076 -0.03369033       0.022
   0.14599141 -0.10107098 -0.03369033       0.011
   0.13476130 -0.08984087 -0.02246022       0.022
   0.12353119 -0.07861076 -0.01123011       0.022
   0.11230109 -0.06738065 -0.00000000       0.011
   0.14599141 -0.10107098 -0.01123011       0.011
   0.13476130 -0.08984087  0.00000000       0.011
   0.14599141 -0.07861076 -0.01123011       0.011

 k-points in reciprocal lattice and weights: KPOINTS
   0.00000000  0.00000000  0.00000000       0.000
   0.07692308  0.00000000 -0.00000000       0.004
   0.15384615 -0.00000000  0.00000000       0.004
   0.23076923 -0.00000000 -0.00000000       0.004
   0.30769231 -0.00000000  0.00000000       0.004
   0.38461538  0.00000000 -0.00000000       0.004
   0.46153846 -0.00000000 -0.00000000       0.004
   0.07692308  0.07692308 -0.00000000       0.003
   0.15384615  0.07692308 -0.00000000       0.011
   0.23076923  0.07692308 -0.00000000       0.011
   0.30769231  0.07692308 -0.00000000       0.011
   0.38461538  0.07692308  0.00000000       0.011
   0.46153846  0.07692308 -0.00000000       0.011
  -0.46153846  0.07692308 -0.00000000       0.011
  -0.38461538  0.07692308  0.00000000       0.011
  -0.30769231  0.07692308  0.00000000       0.011
  -0.23076923  0.07692308 -0.00000000       0.011
  -0.15384615  0.07692308  0.00000000       0.011
  -0.07692308  0.07692308  0.00000000       0.005
   0.15384615  0.15384615 -0.00000000       0.003
   0.23076923  0.15384615 -0.00000000       0.011
   0.30769231  0.15384615 -0.00000000       0.011
   0.38461538  0.15384615 -0.00000000       0.011
   0.46153846  0.15384615  0.00000000       0.011
  -0.46153846  0.15384615 -0.00000000       0.011
  -0.38461538  0.15384615 -0.00000000       0.011
  -0.30769231  0.15384615  0.00000000       0.011
  -0.23076923  0.15384615  0.00000000       0.011
  -0.15384615  0.15384615 -0.00000000       0.005
   0.23076923  0.23076923 -0.00000000       0.003
   0.30769231  0.23076923 -0.00000000       0.011
   0.38461538  0.23076923 -0.00000000       0.011
   0.46153846  0.23076923 -0.00000000       0.011
  -0.46153846  0.23076923 -0.00000000       0.011
  -0.38461538  0.23076923  0.00000000       0.011
  -0.30769231  0.23076923 -0.00000000       0.011
  -0.23076923  0.23076923 -0.00000000       0.005
   0.30769231  0.30769231 -0.00000000       0.003
   0.38461538  0.30769231 -0.00000000       0.011
   0.46153846  0.30769231 -0.00000000       0.011
  -0.46153846  0.30769231 -0.00000000       0.011
  -0.38461538  0.30769231  0.00000000       0.011
  -0.30769231  0.30769231 -0.00000000       0.005
   0.38461538  0.38461538 -0.00000000       0.003
   0.46153846  0.38461538 -0.00000000       0.011
  -0.46153846  0.38461538  0.00000000       0.011
  -0.38461538  0.38461538  0.00000000       0.005
   0.46153846  0.46153846 -0.00000000       0.003
  -0.46153846  0.46153846 -0.00000000       0.005
   0.23076923  0.15384615  0.07692308       0.011
   0.30769231  0.15384615  0.07692308       0.022
   0.38461538  0.15384615  0.07692308       0.022
   0.46153846  0.15384615  0.07692308       0.022
  -0.46153846  0.15384615  0.07692308       0.022
   0.30769231  0.23076923  0.07692308       0.011
   0.38461538  0.23076923  0.07692308       0.022
   0.46153846  0.23076923  0.07692308       0.022
  -0.46153846  0.23076923  0.07692308       0.022
  -0.38461538  0.23076923  0.07692308       0.022
  -0.30769231  0.23076923  0.07692308       0.022
  -0.23076923  0.23076923  0.07692308       0.022
  -0.15384615  0.23076923  0.07692308       0.011
   0.38461538  0.30769231  0.07692308       0.011
   0.46153846  0.30769231  0.07692308       0.022
  -0.46153846  0.30769231  0.07692308       0.022
  -0.38461538  0.30769231  0.07692308       0.022
  -0.30769231  0.30769231  0.07692308       0.022
  -0.23076923  0.30769231  0.07692308       0.011
   0.46153846  0.38461538  0.07692308       0.011
  -0.46153846  0.38461538  0.07692308       0.022
  -0.38461538  0.38461538  0.07692308       0.022
  -0.30769231  0.38461538  0.07692308       0.011
  -0.46153846  0.46153846  0.07692308       0.011
  -0.38461538  0.46153846  0.07692308       0.011
   0.46153846  0.30769231  0.15384615       0.011
  -0.46153846  0.30769231  0.15384615       0.022
  -0.38461538  0.30769231  0.15384615       0.022
  -0.46153846  0.38461538  0.15384615       0.011
  -0.38461538  0.38461538  0.15384615       0.022
  -0.30769231  0.38461538  0.15384615       0.022
  -0.23076923  0.38461538  0.15384615       0.011
  -0.38461538  0.46153846  0.15384615       0.011
  -0.30769231  0.46153846  0.15384615       0.011
  -0.30769231  0.46153846  0.23076923       0.011

 position of ions in fractional coordinates (direct lattice)
   0.25000000  0.25000000  0.25000000
   0.75000000  0.75000000  0.75000000
   0.00000000  0.00000000  0.00000000

 position of ions in cartesian coordinates  (Angst):
   1.62846658  1.62846658  1.62846658
   4.88539975  4.88539975  4.88539975
   0.00000000  0.00000000  0.00000000



--------------------------------------------------------------------------------------------------------


 k-point  1 :   0.0000 0.0000 0.0000  plane waves:    2891
 k-point  2 :   0.0769 0.0000-0.0000  plane waves:    2861
 k-point  3 :   0.1538-0.0000 0.0000  plane waves:    2881
 k-point  4 :   0.2308-0.0000-0.0000  plane waves:    2890
 k-point  5 :   0.3077-0.0000 0.0000  plane waves:    2908
 k-point  6 :   0.3846 0.0000-0.0000  plane waves:    2914
 k-point  7 :   0.4615-0.0000-0.0000  plane waves:    2911
 k-point  8 :   0.0769 0.0769-0.0000  plane waves:    2874
 k-point  9 :   0.1538 0.0769-0.0000  plane waves:    2881
 k-point 10 :   0.2308 0.0769-0.0000  plane waves:    2897
 k-point 11 :   0.3077 0.0769-0.0000  plane waves:    2908
 k-point 12 :   0.3846 0.0769 0.0000  plane waves:    2905
 k-point 13 :   0.4615 0.0769-0.0000  plane waves:    2905
 k-point 14 :  -0.4615 0.0769-0.0000  plane waves:    2908
 k-point 15 :  -0.3846 0.0769 0.0000  plane waves:    2908
 k-point 16 :  -0.3077 0.0769 0.0000  plane waves:    2906
 k-point 17 :  -0.2308 0.0769-0.0000  plane waves:    2897
 k-point 18 :  -0.1538 0.0769 0.0000  plane waves:    2883
 k-point 19 :  -0.0769 0.0769 0.0000  plane waves:    2870
 k-point 20 :   0.1538 0.1538-0.0000  plane waves:    2878
 k-point 21 :   0.2308 0.1538-0.0000  plane waves:    2889
 k-point 22 :   0.3077 0.1538-0.0000  plane waves:    2896
 k-point 23 :   0.3846 0.1538-0.0000  plane waves:    2912
 k-point 24 :   0.4615 0.1538 0.0000  plane waves:    2910
 k-point 25 :  -0.4615 0.1538-0.0000  plane waves:    2902
 k-point 26 :  -0.3846 0.1538-0.0000  plane waves:    2904
 k-point 27 :  -0.3077 0.1538 0.0000  plane waves:    2911
 k-point 28 :  -0.2308 0.1538 0.0000  plane waves:    2900
 k-point 29 :  -0.1538 0.1538-0.0000  plane waves:    2890
 k-point 30 :   0.2308 0.2308-0.0000  plane waves:    2890
 k-point 31 :   0.3077 0.2308-0.0000  plane waves:    2887
 k-point 32 :   0.3846 0.2308-0.0000  plane waves:    2917
 k-point 33 :   0.4615 0.2308-0.0000  plane waves:    2910
 k-point 34 :  -0.4615 0.2308-0.0000  plane waves:    2913
 k-point 35 :  -0.3846 0.2308 0.0000  plane waves:    2914
 k-point 36 :  -0.3077 0.2308-0.0000  plane waves:    2907
 k-point 37 :  -0.2308 0.2308-0.0000  plane waves:    2914
 k-point 38 :   0.3077 0.3077-0.0000  plane waves:    2886
 k-point 39 :   0.3846 0.3077-0.0000  plane waves:    2901
 k-point 40 :   0.4615 0.3077-0.0000  plane waves:    2916
 k-point 41 :  -0.4615 0.3077-0.0000  plane waves:    2907
 k-point 42 :  -0.3846 0.3077 0.0000  plane waves:    2913
 k-point 43 :  -0.3077 0.3077-0.0000  plane waves:    2914
 k-point 44 :   0.3846 0.3846-0.0000  plane waves:    2902
 k-point 45 :   0.4615 0.3846-0.0000  plane waves:    2909
 k-point 46 :  -0.4615 0.3846 0.0000  plane waves:    2905
 k-point 47 :  -0.3846 0.3846 0.0000  plane waves:    2898
 k-point 48 :   0.4615 0.4615-0.0000  plane waves:    2910
 k-point 49 :  -0.4615 0.4615-0.0000  plane waves:    2906
 k-point 50 :   0.2308 0.1538 0.0769  plane waves:    2895
 k-point 51 :   0.3077 0.1538 0.0769  plane waves:    2893
 k-point 52 :   0.3846 0.1538 0.0769  plane waves:    2909
 k-point 53 :   0.4615 0.1538 0.0769  plane waves:    2910
 k-point 54 :  -0.4615 0.1538 0.0769  plane waves:    2901
 k-point 55 :   0.3077 0.2308 0.0769  plane waves:    2892
 k-point 56 :   0.3846 0.2308 0.0769  plane waves:    2910
 k-point 57 :   0.4615 0.2308 0.0769  plane waves:    2910
 k-point 58 :  -0.4615 0.2308 0.0769  plane waves:    2910
 k-point 59 :  -0.3846 0.2308 0.0769  plane waves:    2908
 k-point 60 :  -0.3077 0.2308 0.0769  plane waves:    2913
 k-point 61 :  -0.2308 0.2308 0.0769  plane waves:    2908
 k-point 62 :  -0.1538 0.2308 0.0769  plane waves:    2908
 k-point 63 :   0.3846 0.3077 0.0769  plane waves:    2899
 k-point 64 :   0.4615 0.3077 0.0769  plane waves:    2914
 k-point 65 :  -0.4615 0.3077 0.0769  plane waves:    2905
 k-point 66 :  -0.3846 0.3077 0.0769  plane waves:    2910
 k-point 67 :  -0.3077 0.3077 0.0769  plane waves:    2912
 k-point 68 :  -0.2308 0.3077 0.0769  plane waves:    2906
 k-point 69 :   0.4615 0.3846 0.0769  plane waves:    2908
 k-point 70 :  -0.4615 0.3846 0.0769  plane waves:    2906
 k-point 71 :  -0.3846 0.3846 0.0769  plane waves:    2905
 k-point 72 :  -0.3077 0.3846 0.0769  plane waves:    2911
 k-point 73 :  -0.4615 0.4615 0.0769  plane waves:    2913
 k-point 74 :  -0.3846 0.4615 0.0769  plane waves:    2905
 k-point 75 :   0.4615 0.3077 0.1538  plane waves:    2913
 k-point 76 :  -0.4615 0.3077 0.1538  plane waves:    2910
 k-point 77 :  -0.3846 0.3077 0.1538  plane waves:    2914
 k-point 78 :  -0.4615 0.3846 0.1538  plane waves:    2907
 k-point 79 :  -0.3846 0.3846 0.1538  plane waves:    2915
 k-point 80 :  -0.3077 0.3846 0.1538  plane waves:    2916
 k-point 81 :  -0.2308 0.3846 0.1538  plane waves:    2910
 k-point 82 :  -0.3846 0.4615 0.1538  plane waves:    2920
 k-point 83 :  -0.3077 0.4615 0.1538  plane waves:    2915
 k-point 84 :  -0.3077 0.4615 0.2308  plane waves:    2912

 maximum and minimum number of plane-waves per node :       737      707

 maximum number of plane-waves:      2920
 maximum index in each direction:
   IXMAX=   10   IYMAX=    9   IZMAX=    9
   IXMIN=  -10   IYMIN=  -10   IZMIN=  -10


 parallel 3D FFT for wavefunctions:
    minimum data exchange during FFTs selected (reduces bandwidth)
 parallel 3D FFT for charge:
    minimum data exchange during FFTs selected (reduces bandwidth)


 total amount of memory used by VASP MPI-rank0    91695. kBytes
=======================================================================

   base      :      30000. kBytes
   nonl-proj :      47516. kBytes
   fftplans  :       5205. kBytes
   grid      :       2732. kBytes
   one-center:         49. kBytes
   wavefun   :       6193. kBytes

     INWAV:  cpu time    0.0003: real time    0.0144
 Broyden mixing: mesh for mixing (old mesh)
   NGX = 19   NGY = 19   NGZ = 19
  (NGX  = 80   NGY  = 80   NGZ  = 80)
  gives a total of   6859 points

 initial charge density was supplied:
 charge density of overlapping atoms calculated
 number of electron      37.0000000 magnetization
 keeping initial charge density in first step


--------------------------------------------------------------------------------------------------------


 Maximum index for augmentation-charges        27237 (set IRDMAX)


--------------------------------------------------------------------------------------------------------


 First call to EWALD:  gamma=   0.432
 Maximum number of real-space cells 3x 3x 3
 Maximum number of reciprocal cells 3x 3x 3

    FEWALD:  cpu time    0.0054: real time    0.0060


--------------------------------------- Iteration      1(   1)  ---------------------------------------


    POTLOK:  cpu time    0.0593: real time    0.1348
    SETDIJ:  cpu time    0.0872: real time    0.0875
     EDDAV:  cpu time    1.4343: real time    1.4547
       DOS:  cpu time    0.0041: real time    0.0048
    --------------------------------------------
      LOOP:  cpu time    1.5853: real time    1.6824

 eigenvalue-minimisations  :  4032
 total energy-change (2. order) : 0.4565463E+03  (-0.2083549E+04)
 number of electron      37.0000000 magnetization
 augmentation part       37.0000000 magnetization

 Free energy of the ion-electron system (eV)
  ---------------------------------------------------
  alpha Z        PSCENC =       248.66011606
  Ewald energy   TEWEN  =     -3289.03903698
  -Hartree energ DENC   =      -689.87579553
  -exchange      EXHF   =         0.00000000
  -V(xc)+E(xc)   XCENC  =        70.06365099
  PAW double counting   =      3147.30828992    -3070.62761383
  entropy T*S    EENTRO =        -0.00024764
  eigenvalues    EBANDS =       365.38349260
  atomic energy  EATOM  =      3674.67342263
  Solvation  Ediel_sol  =         0.00000000
  ---------------------------------------------------
  free energy    TOTEN  =       456.54627823 eV

  energy without entropy =      456.54652587  energy(sigma->0) =      456.54640205


--------------------------------------------------------------------------------------------------------




--------------------------------------- Iteration      1(   2)  ---------------------------------------


     EDDAV:  cpu time    1.4396: real time    1.4842
       DOS:  cpu time    0.0031: real time    0.0033
    --------------------------------------------
      LOOP:  cpu time    1.4428: real time    1.4898

 eigenvalue-minimisations  :  4080
 total energy-change (2. order) :-0.4082554E+03  (-0.3987637E+03)
 number of electron      37.0000000 magnetization
 augmentation part       37.0000000 magnetization

 Free energy of the ion-electron system (eV)
  ---------------------------------------------------
  alpha Z        PSCENC =       248.66011606
  Ewald energy   TEWEN  =     -3289.03903698
  -Hartree energ DENC   =      -689.87579553
  -exchange      EXHF   =         0.00000000
  -V(xc)+E(xc)   XCENC  =        70.06365099
  PAW double counting   =      3147.30828992    -3070.62761383
  entropy T*S    EENTRO =        -0.00016549
  eigenvalues    EBANDS =       -42.87203688
  atomic energy  EATOM  =      3674.67342263
  Solvation  Ediel_sol  =         0.00000000
  ---------------------------------------------------
  free energy    TOTEN  =        48.29083089 eV

  energy without entropy =       48.29099638  energy(sigma->0) =       48.29091364


--------------------------------------------------------------------------------------------------------




--------------------------------------- Iteration      1(   3)  ---------------------------------------


     EDDAV:  cpu time    1.8110: real time    1.8366
       DOS:  cpu time    0.0030: real time    0.0031
    --------------------------------------------
      LOOP:  cpu time    1.8141: real time    1.8386

 eigenvalue-minimisations  :  5600
 total energy-change (2. order) :-0.6609386E+02  (-0.6534107E+02)
 number of electron      37.0000000 magnetization
 augmentation part       37.0000000 magnetization

 Free energy of the ion-electron system (eV)
  ---------------------------------------------------
  alpha Z        PSCENC =       248.66011606
  Ewald energy   TEWEN  =     -3289.03903698
  -Hartree energ DENC   =      -689.87579553
  -exchange      EXHF   =         0.00000000
  -V(xc)+E(xc)   XCENC  =        70.06365099
  PAW double counting   =      3147.30828992    -3070.62761383
  entropy T*S    EENTRO =        -0.00018356
  eigenvalues    EBANDS =      -108.96588137
  atomic energy  EATOM  =      3674.67342263
  Solvation  Ediel_sol  =         0.00000000
  ---------------------------------------------------
  free energy    TOTEN  =       -17.80303166 eV

  energy without entropy =      -17.80284811  energy(sigma->0) =      -17.80293989


--------------------------------------------------------------------------------------------------------




--------------------------------------- Iteration      1(   4)  ---------------------------------------


     EDDAV:  cpu time    2.2826: real time    2.3551
       DOS:  cpu time    0.0032: real time    0.0048
    --------------------------------------------
      LOOP:  cpu time    2.2857: real time    2.3645

 eigenvalue-minimisations  :  7256
 total energy-change (2. order) :-0.4207139E+01  (-0.4198780E+01)
 number of electron      37.0000000 magnetization
 augmentation part       37.0000000 magnetization

 Free energy of the ion-electron system (eV)
  ---------------------------------------------------
  alpha Z        PSCENC =       248.66011606
  Ewald energy   TEWEN  =     -3289.03903698
  -Hartree energ DENC   =      -689.87579553
  -exchange      EXHF   =         0.00000000
  -V(xc)+E(xc)   XCENC  =        70.06365099
  PAW double counting   =      3147.30828992    -3070.62761383
  entropy T*S    EENTRO =        -0.00027654
  eigenvalues    EBANDS =      -113.17292757
  atomic energy  EATOM  =      3674.67342263
  Solvation  Ediel_sol  =         0.00000000
  ---------------------------------------------------
  free energy    TOTEN  =       -22.01017084 eV

  energy without entropy =      -22.00989430  energy(sigma->0) =      -22.01003257


--------------------------------------------------------------------------------------------------------




--------------------------------------- Iteration      1(   5)  ---------------------------------------


     EDDAV:  cpu time    1.8830: real time    1.9130
       DOS:  cpu time    0.0030: real time    0.0031
    CHARGE:  cpu time    0.3205: real time    0.3216
    MIXING:  cpu time    0.0082: real time    0.0083
    --------------------------------------------
      LOOP:  cpu time    2.2147: real time    2.2420

 eigenvalue-minimisations  :  5664
 total energy-change (2. order) :-0.1100574E+00  (-0.1100288E+00)
 number of electron      37.0000000 magnetization
 augmentation part        5.9417331 magnetization

 Broyden mixing:
  rms(total) = 0.42677E+01    rms(broyden)= 0.42677E+01
  rms(prec ) = 0.45060E+01
  weight for this iteration     100.00

 Free energy of the ion-electron system (eV)
  ---------------------------------------------------
  alpha Z        PSCENC =       248.66011606
  Ewald energy   TEWEN  =     -3289.03903698
  -Hartree energ DENC   =      -689.87579553
  -exchange      EXHF   =         0.00000000
  -V(xc)+E(xc)   XCENC  =        70.06365099
  PAW double counting   =      3147.30828992    -3070.62761383
  entropy T*S    EENTRO =        -0.00027251
  eigenvalues    EBANDS =      -113.28298897
  atomic energy  EATOM  =      3674.67342263
  Solvation  Ediel_sol  =         0.00000000
  ---------------------------------------------------
  free energy    TOTEN  =       -22.12022822 eV

  energy without entropy =      -22.11995571  energy(sigma->0) =      -22.12009196


--------------------------------------------------------------------------------------------------------




--------------------------------------- Iteration      1(   6)  ---------------------------------------


    POTLOK:  cpu time    0.0356: real time    0.0700
    SETDIJ:  cpu time    0.0875: real time    0.0876
     EDDAV:  cpu time    1.6969: real time    1.6971
       DOS:  cpu time    0.0030: real time    0.0032
    CHARGE:  cpu time    0.2809: real time    0.2810
    MIXING:  cpu time    0.0070: real time    0.0071
    --------------------------------------------
      LOOP:  cpu time    2.1109: real time    2.1462

 eigenvalue-minimisations  :  5160
 total energy-change (2. order) : 0.7727419E+00  (-0.1393729E+00)
 number of electron      37.0000000 magnetization
 augmentation part        6.0150357 magnetization

 Broyden mixing:
  rms(total) = 0.25564E+01    rms(broyden)= 0.25564E+01
  rms(prec ) = 0.26420E+01
  weight for this iteration     100.00

 eigenvalues of (default mixing * dielectric matrix)
  average eigenvalue GAMMA=   2.4534
  2.4534

 Free energy of the ion-electron system (eV)
  ---------------------------------------------------
  alpha Z        PSCENC =       248.66011606
  Ewald energy   TEWEN  =     -3289.03903698
  -Hartree energ DENC   =      -673.80895245
  -exchange      EXHF   =         0.00000000
  -V(xc)+E(xc)   XCENC  =        69.60622085
  PAW double counting   =      3623.95181926    -3552.60052785
  entropy T*S    EENTRO =        -0.00018579
  eigenvalues    EBANDS =      -122.79036202
  atomic energy  EATOM  =      3674.67342263
  Solvation  Ediel_sol  =         0.00000000
  ---------------------------------------------------
  free energy    TOTEN  =       -21.34748629 eV

  energy without entropy =      -21.34730050  energy(sigma->0) =      -21.34739339


--------------------------------------------------------------------------------------------------------




--------------------------------------- Iteration      1(   7)  ---------------------------------------


    POTLOK:  cpu time    0.0715: real time    0.0957
    SETDIJ:  cpu time    0.0842: real time    0.0862
     EDDAV:  cpu time    1.9111: real time    1.9114
       DOS:  cpu time    0.0031: real time    0.0033
    CHARGE:  cpu time    0.2586: real time    0.2600
    MIXING:  cpu time    0.0088: real time    0.0092
    --------------------------------------------
      LOOP:  cpu time    2.3376: real time    2.3661

 eigenvalue-minimisations  :  6032
 total energy-change (2. order) : 0.1569576E+00  (-0.1669667E+00)
 number of electron      37.0000000 magnetization
 augmentation part        5.9636848 magnetization

 Broyden mixing:
  rms(total) = 0.55465E+00    rms(broyden)= 0.55465E+00
  rms(prec ) = 0.64099E+00
  weight for this iteration     100.00

 eigenvalues of (default mixing * dielectric matrix)
  average eigenvalue GAMMA=   2.0838
  1.1769  2.9907

 Free energy of the ion-electron system (eV)
  ---------------------------------------------------
  alpha Z        PSCENC =       248.66011606
  Ewald energy   TEWEN  =     -3289.03903698
  -Hartree energ DENC   =      -661.24279830
  -exchange      EXHF   =         0.00000000
  -V(xc)+E(xc)   XCENC  =        69.39480252
  PAW double counting   =      4304.41021619    -4239.32489652
  entropy T*S    EENTRO =        -0.00019021
  eigenvalues    EBANDS =      -128.72216409
  atomic energy  EATOM  =      3674.67342263
  Solvation  Ediel_sol  =         0.00000000
  ---------------------------------------------------
  free energy    TOTEN  =       -21.19052868 eV

  energy without entropy =      -21.19033848  energy(sigma->0) =      -21.19043358


--------------------------------------------------------------------------------------------------------




--------------------------------------- Iteration      1(   8)  ---------------------------------------


    POTLOK:  cpu time    0.0750: real time    0.1157
    SETDIJ:  cpu time    0.0875: real time    0.0875
     EDDAV:  cpu time    1.7694: real time    1.7695
       DOS:  cpu time    0.0031: real time    0.0033
    CHARGE:  cpu time    0.2593: real time    0.2598
    MIXING:  cpu time    0.0085: real time    0.0086
    --------------------------------------------
      LOOP:  cpu time    2.2024: real time    2.2435

 eigenvalue-minimisations  :  5568
 total energy-change (2. order) : 0.2899483E-01  (-0.3069652E-01)
 number of electron      37.0000000 magnetization
 augmentation part        5.9314874 magnetization

 Broyden mixing:
  rms(total) = 0.29259E+00    rms(broyden)= 0.29259E+00
  rms(prec ) = 0.33492E+00
  weight for this iteration     100.00

 eigenvalues of (default mixing * dielectric matrix)
  average eigenvalue GAMMA=   1.9294
  3.4417  1.6123  0.7342

 Free energy of the ion-electron system (eV)
  ---------------------------------------------------
  alpha Z        PSCENC =       248.66011606
  Ewald energy   TEWEN  =     -3289.03903698
  -Hartree energ DENC   =      -660.84205719
  -exchange      EXHF   =         0.00000000
  -V(xc)+E(xc)   XCENC  =        69.39320995
  PAW double counting   =      4370.66136171    -4305.91050907
  entropy T*S    EENTRO =        -0.00009597
  eigenvalues    EBANDS =      -128.75794501
  atomic energy  EATOM  =      3674.67342263
  Solvation  Ediel_sol  =         0.00000000
  ---------------------------------------------------
  free energy    TOTEN  =       -21.16153385 eV

  energy without entropy =      -21.16143789  energy(sigma->0) =      -21.16148587


--------------------------------------------------------------------------------------------------------




--------------------------------------- Iteration      1(   9)  ---------------------------------------


    POTLOK:  cpu time    0.0440: real time    0.1295
    SETDIJ:  cpu time    0.0879: real time    0.0879
     EDDAV:  cpu time    1.8868: real time    1.8871
       DOS:  cpu time    0.0030: real time    0.0046
    CHARGE:  cpu time    0.2603: real time    0.2604
    MIXING:  cpu time    0.0071: real time    0.0072
    --------------------------------------------
      LOOP:  cpu time    2.2891: real time    2.3776

 eigenvalue-minimisations  :  5912
 total energy-change (2. order) : 0.5182291E-02  (-0.9906274E-02)
 number of electron      37.0000000 magnetization
 augmentation part        5.9281309 magnetization

 Broyden mixing:
  rms(total) = 0.27615E+00    rms(broyden)= 0.27615E+00
  rms(prec ) = 0.28438E+00
  weight for this iteration     100.00

 eigenvalues of (default mixing * dielectric matrix)
  average eigenvalue GAMMA=   1.4617
  2.3861  1.3594  1.3594  0.7421

 Free energy of the ion-electron system (eV)
  ---------------------------------------------------
  alpha Z        PSCENC =       248.66011606
  Ewald energy   TEWEN  =     -3289.03903698
  -Hartree energ DENC   =      -662.94762944
  -exchange      EXHF   =         0.00000000
  -V(xc)+E(xc)   XCENC  =        69.41837417
  PAW double counting   =      4428.42764534    -4363.53612092
  entropy T*S    EENTRO =        -0.00009613
  eigenvalues    EBANDS =      -126.81302631
  atomic energy  EATOM  =      3674.67342263
  Solvation  Ediel_sol  =         0.00000000
  ---------------------------------------------------
  free energy    TOTEN  =       -21.15635156 eV

  energy without entropy =      -21.15625543  energy(sigma->0) =      -21.15630350


--------------------------------------------------------------------------------------------------------




--------------------------------------- Iteration      1(  10)  ---------------------------------------


    POTLOK:  cpu time    0.0863: real time    0.1331
    SETDIJ:  cpu time    0.0866: real time    0.0867
     EDDAV:  cpu time    1.8392: real time    1.8395
       DOS:  cpu time    0.0031: real time    0.0077
    CHARGE:  cpu time    0.2571: real time    0.2573
    MIXING:  cpu time    0.0107: real time    0.0107
    --------------------------------------------
      LOOP:  cpu time    2.2830: real time    2.3374

 eigenvalue-minimisations  :  5752
 total energy-change (2. order) : 0.3160987E-02  (-0.1844077E-02)
 number of electron      37.0000000 magnetization
 augmentation part        5.9309063 magnetization

 Broyden mixing:
  rms(total) = 0.70171E-01    rms(broyden)= 0.70171E-01
  rms(prec ) = 0.72165E-01
  weight for this iteration     100.00

 eigenvalues of (default mixing * dielectric matrix)
  average eigenvalue GAMMA=   1.4691
  2.0983  2.0983  1.5846  0.7820  0.7820

 Free energy of the ion-electron system (eV)
  ---------------------------------------------------
  alpha Z        PSCENC =       248.66011606
  Ewald energy   TEWEN  =     -3289.03903698
  -Hartree energ DENC   =      -663.08536161
  -exchange      EXHF   =         0.00000000
  -V(xc)+E(xc)   XCENC  =        69.40807455
  PAW double counting   =      4357.65989584    -4292.32456720
  entropy T*S    EENTRO =        -0.00009612
  eigenvalues    EBANDS =      -127.10563776
  atomic energy  EATOM  =      3674.67342263
  Solvation  Ediel_sol  =         0.00000000
  ---------------------------------------------------
  free energy    TOTEN  =       -21.15319058 eV

  energy without entropy =      -21.15309446  energy(sigma->0) =      -21.15314252


--------------------------------------------------------------------------------------------------------




--------------------------------------- Iteration      1(  11)  ---------------------------------------


    POTLOK:  cpu time    0.0534: real time    0.0916
    SETDIJ:  cpu time    0.0819: real time    0.0820
     EDDAV:  cpu time    1.7930: real time    1.7932
       DOS:  cpu time    0.0030: real time    0.0036
    CHARGE:  cpu time    0.2624: real time    0.2625
    MIXING:  cpu time    0.0062: real time    0.0063
    --------------------------------------------
      LOOP:  cpu time    2.2001: real time    2.2352

 eigenvalue-minimisations  :  5528
 total energy-change (2. order) :-0.5490288E-04  (-0.8398807E-04)
 number of electron      37.0000000 magnetization
 augmentation part        5.9316113 magnetization

 Broyden mixing:
  rms(total) = 0.45124E-01    rms(broyden)= 0.45124E-01
  rms(prec ) = 0.46656E-01
  weight for this iteration     100.00

 eigenvalues of (default mixing * dielectric matrix)
  average eigenvalue GAMMA=   1.4283
  2.5939  2.1107  1.3067  0.7216  0.9184  0.9184

 Free energy of the ion-electron system (eV)
  ---------------------------------------------------
  alpha Z        PSCENC =       248.66011606
  Ewald energy   TEWEN  =     -3289.03903698
  -Hartree energ DENC   =      -663.14545378
  -exchange      EXHF   =         0.00000000
  -V(xc)+E(xc)   XCENC  =        69.40090362
  PAW double counting   =      4367.79845065    -4302.41924572
  entropy T*S    EENTRO =        -0.00009613
  eigenvalues    EBANDS =      -127.08230584
  atomic energy  EATOM  =      3674.67342263
  Solvation  Ediel_sol  =         0.00000000
  ---------------------------------------------------
  free energy    TOTEN  =       -21.15324548 eV

  energy without entropy =      -21.15314934  energy(sigma->0) =      -21.15319741


--------------------------------------------------------------------------------------------------------




--------------------------------------- Iteration      1(  12)  ---------------------------------------


    POTLOK:  cpu time    0.0346: real time    0.0924
    SETDIJ:  cpu time    0.0817: real time    0.0818
     EDDAV:  cpu time    1.9308: real time    1.9310
       DOS:  cpu time    0.0031: real time    0.0037
    CHARGE:  cpu time    0.2597: real time    0.2598
    MIXING:  cpu time    0.0094: real time    0.0094
    --------------------------------------------
      LOOP:  cpu time    2.3192: real time    2.3799

 eigenvalue-minimisations  :  6040
 total energy-change (2. order) : 0.3997608E-04  (-0.2431330E-04)
 number of electron      37.0000000 magnetization
 augmentation part        5.9326768 magnetization

 Broyden mixing:
  rms(total) = 0.85738E-02    rms(broyden)= 0.85738E-02
  rms(prec ) = 0.89790E-02
  weight for this iteration     100.00

 eigenvalues of (default mixing * dielectric matrix)
  average eigenvalue GAMMA=   1.4484
  2.6054  2.1576  1.4625  1.1913  0.7310  0.9955  0.9955

 Free energy of the ion-electron system (eV)
  ---------------------------------------------------
  alpha Z        PSCENC =       248.66011606
  Ewald energy   TEWEN  =     -3289.03903698
  -Hartree energ DENC   =      -663.14674661
  -exchange      EXHF   =         0.00000000
  -V(xc)+E(xc)   XCENC  =        69.39846475
  PAW double counting   =      4374.26421114    -4308.86922318
  entropy T*S    EENTRO =        -0.00009615
  eigenvalues    EBANDS =      -127.09431717
  atomic energy  EATOM  =      3674.67342263
  Solvation  Ediel_sol  =         0.00000000
  ---------------------------------------------------
  free energy    TOTEN  =       -21.15320550 eV

  energy without entropy =      -21.15310935  energy(sigma->0) =      -21.15315743


--------------------------------------------------------------------------------------------------------




--------------------------------------- Iteration      1(  13)  ---------------------------------------


    POTLOK:  cpu time    0.0793: real time    0.1529
    SETDIJ:  cpu time    0.0872: real time    0.0874
     EDDAV:  cpu time    1.9457: real time    1.9460
       DOS:  cpu time    0.0032: real time    0.0034
    CHARGE:  cpu time    0.2556: real time    0.2562
    MIXING:  cpu time    0.0121: real time    0.0122
    --------------------------------------------
      LOOP:  cpu time    2.3832: real time    2.4555

 eigenvalue-minimisations  :  6232
 total energy-change (2. order) :-0.1936885E-05  (-0.3620405E-05)
 number of electron      37.0000000 magnetization
 augmentation part        5.9334308 magnetization

 Broyden mixing:
  rms(total) = 0.29901E-02    rms(broyden)= 0.29901E-02
  rms(prec ) = 0.31134E-02
  weight for this iteration     100.00

 eigenvalues of (default mixing * dielectric matrix)
  average eigenvalue GAMMA=   1.4410
  2.6212  1.8155  1.8155  1.6268  0.7389  0.9589  0.9755  0.9755

 Free energy of the ion-electron system (eV)
  ---------------------------------------------------
  alpha Z        PSCENC =       248.66011606
  Ewald energy   TEWEN  =     -3289.03903698
  -Hartree energ DENC   =      -663.13714094
  -exchange      EXHF   =         0.00000000
  -V(xc)+E(xc)   XCENC  =        69.39639008
  PAW double counting   =      4376.43740768    -4311.01866869
  entropy T*S    EENTRO =        -0.00009615
  eigenvalues    EBANDS =      -127.12560113
  atomic energy  EATOM  =      3674.67342263
  Solvation  Ediel_sol  =         0.00000000
  ---------------------------------------------------
  free energy    TOTEN  =       -21.15320744 eV

  energy without entropy =      -21.15311128  energy(sigma->0) =      -21.15315936


--------------------------------------------------------------------------------------------------------




--------------------------------------- Iteration      1(  14)  ---------------------------------------


    POTLOK:  cpu time    0.0987: real time    0.1305
    SETDIJ:  cpu time    0.0870: real time    0.0870
     EDDAV:  cpu time    1.7847: real time    1.7848
       DOS:  cpu time    0.0030: real time    0.0033
    CHARGE:  cpu time    0.2625: real time    0.2626
    MIXING:  cpu time    0.0062: real time    0.0063
    --------------------------------------------
      LOOP:  cpu time    2.2421: real time    2.2769

 eigenvalue-minimisations  :  5568
 total energy-change (2. order) : 0.3212035E-06  (-0.1764576E-06)
 number of electron      37.0000000 magnetization
 augmentation part        5.9335097 magnetization

 Broyden mixing:
  rms(total) = 0.16673E-02    rms(broyden)= 0.16673E-02
  rms(prec ) = 0.17401E-02
  weight for this iteration     100.00

 eigenvalues of (default mixing * dielectric matrix)
  average eigenvalue GAMMA=   1.4736
  2.5840  2.1837  2.1837  1.4556  0.7384  1.1223  0.9731  1.0109  1.0109

 Free energy of the ion-electron system (eV)
  ---------------------------------------------------
  alpha Z        PSCENC =       248.66011606
  Ewald energy   TEWEN  =     -3289.03903698
  -Hartree energ DENC   =      -663.14046692
  -exchange      EXHF   =         0.00000000
  -V(xc)+E(xc)   XCENC  =        69.39670923
  PAW double counting   =      4376.22031423    -4310.80030512
  entropy T*S    EENTRO =        -0.00009615
  eigenvalues    EBANDS =      -127.12386411
  atomic energy  EATOM  =      3674.67342263
  Solvation  Ediel_sol  =         0.00000000
  ---------------------------------------------------
  free energy    TOTEN  =       -21.15320712 eV

  energy without entropy =      -21.15311097  energy(sigma->0) =      -21.15315904


--------------------------------------------------------------------------------------------------------




--------------------------------------- Iteration      1(  15)  ---------------------------------------


    POTLOK:  cpu time    0.0877: real time    0.1470
    SETDIJ:  cpu time    0.0863: real time    0.0864
     EDDAV:  cpu time    2.0561: real time    2.0563
       DOS:  cpu time    0.0032: real time    0.0043
    CHARGE:  cpu time    0.2562: real time    0.2563
    MIXING:  cpu time    0.0115: real time    0.0122
    --------------------------------------------
      LOOP:  cpu time    2.5013: real time    2.5619

 eigenvalue-minimisations  :  6584
 total energy-change (2. order) : 0.2658389E-06  (-0.9154713E-07)
 number of electron      37.0000000 magnetization
 augmentation part        5.9334438 magnetization

 Broyden mixing:
  rms(total) = 0.57543E-04    rms(broyden)= 0.56994E-04
  rms(prec ) = 0.10090E-03
  weight for this iteration     100.00

 eigenvalues of (default mixing * dielectric matrix)
  average eigenvalue GAMMA=   1.4549
  2.5171  2.3965  2.1992  1.6142  1.0431  1.0431  0.7375  1.0444  0.9770  0.9770

 Free energy of the ion-electron system (eV)
  ---------------------------------------------------
  alpha Z        PSCENC =       248.66011606
  Ewald energy   TEWEN  =     -3289.03903698
  -Hartree energ DENC   =      -663.14122382
  -exchange      EXHF   =         0.00000000
  -V(xc)+E(xc)   XCENC  =        69.39691345
  PAW double counting   =      4376.10130935    -4310.68038847
  entropy T*S    EENTRO =        -0.00009615
  eigenvalues    EBANDS =      -127.12422294
  atomic energy  EATOM  =      3674.67342263
  Solvation  Ediel_sol  =         0.00000000
  ---------------------------------------------------
  free energy    TOTEN  =       -21.15320685 eV

  energy without entropy =      -21.15311070  energy(sigma->0) =      -21.15315878


--------------------------------------------------------------------------------------------------------




--------------------------------------- Iteration      1(  16)  ---------------------------------------


    POTLOK:  cpu time    0.0811: real time    0.1473
    SETDIJ:  cpu time    0.0842: real time    0.0846
     EDDAV:  cpu time    1.2890: real time    1.2891
       DOS:  cpu time    0.0029: real time    0.0053
    --------------------------------------------
      LOOP:  cpu time    1.4570: real time    1.5245

 eigenvalue-minimisations  :  3344
 total energy-change (2. order) : 0.1585840E-07  (-0.4460400E-08)
 number of electron      37.0000000 magnetization
 augmentation part        5.9334438 magnetization

 Free energy of the ion-electron system (eV)
  ---------------------------------------------------
  alpha Z        PSCENC =       248.66011606
  Ewald energy   TEWEN  =     -3289.03903698
  -Hartree energ DENC   =      -663.14214142
  -exchange      EXHF   =         0.00000000
  -V(xc)+E(xc)   XCENC  =        69.39693103
  PAW double counting   =      4376.07313619    -4310.65180281
  entropy T*S    EENTRO =        -0.00009615
  eigenvalues    EBANDS =      -127.12373539
  atomic energy  EATOM  =      3674.67342263
  Solvation  Ediel_sol  =         0.00000000
  ---------------------------------------------------
  free energy    TOTEN  =       -21.15320684 eV

  energy without entropy =      -21.15311069  energy(sigma->0) =      -21.15315876


--------------------------------------------------------------------------------------------------------




 average (electrostatic) potential at core
  the test charge radii are     1.1985  1.0856  1.2059
  (the norm of the test charge is              1.0000)
       1 -54.6131       2-100.6375       3 -64.3344



 E-fermi :  10.4252     XC(G=0): -11.7974     alpha+bet :-16.2820


 k-point     1 :       0.0000    0.0000    0.0000
  band No.  band energies     occupation
      1     -29.2149      2.00000
      2     -12.8563      2.00000
      3     -12.8563      2.00000
      4     -12.8105      2.00000
      5     -12.8105      2.00000
      6     -12.8105      2.00000
      7      -7.4659      2.00000
      8      -7.4659      2.00000
      9      -7.4659      2.00000
     10      -2.6889      2.00000
     11       5.4993      2.00000
     12       5.4993      2.00000
     13       5.4993      2.00000
     14       5.5254      2.00000
     15       5.5254      2.00000
     16       9.0809      2.00000
     17       9.0809      2.00000
     18       9.0809      2.00000
     19       9.1758      2.00000
     20      10.6051      0.00000
     21      10.6051      0.00000
     22      10.6051      0.00000
     23      11.5986      0.00000
     24      12.8391      0.00000

 k-point     2 :       0.0769    0.0000   -0.0000
  band No.  band energies     occupation
      1     -29.2140      2.00000
      2     -12.8578      2.00000
      3     -12.8578      2.00000
      4     -12.8108      2.00000
      5     -12.8102      2.00000
      6     -12.8102      2.00000
      7      -7.5031      2.00000
      8      -7.4605      2.00000
      9      -7.4605      2.00000
     10      -2.5897      2.00000
     11       5.2445      2.00000
     12       5.2445      2.00000
     13       5.3641      2.00000
     14       5.7665      2.00000
     15       5.7665      2.00000
     16       8.2821      2.00000
     17       8.9917      2.00000
     18       8.9917      2.00000
     19       9.7523      2.00000
     20      10.7171      0.00000
     21      10.7171      0.00000
     22      10.7690      0.00000
     23      11.9028      0.00000
     24      12.8434      0.00000

 k-point     3 :       0.1538   -0.0000    0.0000
  band No.  band energies     occupation
      1     -29.2118      2.00000
      2     -12.8621      2.00000
      3     -12.8621      2.00000
      4     -12.8119      2.00000
      5     -12.8094      2.00000
      6     -12.8094      2.00000
      7      -7.5986      2.00000
      8      -7.4456      2.00000
      9      -7.4456      2.00000
     10      -2.3198      2.00000
     11       5.0096      2.00000
     12       5.0096      2.00000
     13       5.0096      2.00000
     14       5.9446      2.00000
     15       5.9446      2.00000
     16       7.5177      2.00000
     17       8.8163      2.00000
     18       8.8163      2.00000
     19       9.8464      2.00000
     20      10.9819      0.00000
     21      10.9819      0.00000
     22      11.4744      0.00000
     23      12.4772      0.00000
     24      12.8479      0.00000

 k-point     4 :       0.2308   -0.0000   -0.0000
  band No.  band energies     occupation
      1     -29.2086      2.00000
      2     -12.8681      2.00000
      3     -12.8681      2.00000
      4     -12.8138      2.00000
      5     -12.8083      2.00000
      6     -12.8083      2.00000
      7      -7.7178      2.00000
      8      -7.4247      2.00000
      9      -7.4247      2.00000
     10      -1.9501      2.00000
     11       4.5550      2.00000
     12       4.8363      2.00000
     13       4.8363      2.00000
     14       5.9912      2.00000
     15       5.9912      2.00000
     16       6.9188      2.00000
     17       8.6870      2.00000
     18       8.6870      2.00000
     19       9.8552      2.00000
     20      11.3036      0.00000
     21      11.3036      0.00000
     22      12.2527      0.00000
     23      12.8303      0.00000
     24      12.8304      0.00000

 k-point     5 :       0.3077   -0.0000    0.0000
  band No.  band energies     occupation
      1     -29.2052      2.00000
      2     -12.8745      2.00000
      3     -12.8745      2.00000
      4     -12.8160      2.00000
      5     -12.8071      2.00000
      6     -12.8071      2.00000
      7      -7.8280      2.00000
      8      -7.4026      2.00000
      9      -7.4026      2.00000
     10      -1.5693      2.00000
     11       4.1247      2.00000
[...]
  212              fftbas_plan_mpi                       0.060536                     12   6
  213                dfftw_execute                         0.025857                   36   7
  214                map_backward                          0.004239                   12   7
  215                  map_gather                            0.000704                  6   8
  216                  m_alltoallv_z                         0.002049                  6   8
  217                  map_scatter                           0.001198                  6   8
  218                map_forward                           0.027343                   12   7
  219                  map_gather                            0.015342                  6   8
  220                  m_alltoallv_z                         0.005361                  6   8
  221                  map_scatter                           0.006318                  6   8
  222            M_sumb_d                              0.002140                        6   5
  223          M_sumb_d                              0.000026                          1   4
  224        setdij_                               1.390786                           20   3
  225          fft3d_mpi                             0.216343                         40   4
  226            fftbas_plan_mpi                       0.198521                       40   5
  227              dfftw_execute                         0.087642                    120   6
  228              map_backward                          0.014219                     40   6
  229                map_gather                            0.002639                   20   7
  230                m_alltoallv_z                         0.006790                   20   7
  231                map_scatter                           0.003821                   20   7
  232              map_forward                           0.086493                     40   6
  233                map_gather                            0.047867                   20   7
  234                m_alltoallv_z                         0.016633                   20   7
  235                map_scatter                           0.020928                   20   7
  236          M_sumb_d                              0.010929                         20   4
  237        set_dd_magatom                        0.000004                            1   3
  238        set_dd_paw                            0.015758                            1   3
  239          set_rsgf_all                          0.000003                          1   4
  240          M_sumb_d                              0.015614                          8   4
  241        strkin                                0.000866                            1   3
  242          M_sumb_d                              0.000291                          1   4
  243        strelo                                0.002705                            1   3
  244          M_sumb_d                              0.000580                          2   4
  245        strenl                                1.016472                            1   3
  246          spher                                 0.744362                         19   4
  247          phase                                 0.011878                        189   4
  248          proj1                                 0.234586                       1134   4
  249            crexp_mul_wave                        0.031456                     3402   5
  250            M_sumb_d                              0.073577                     1134   5
  251          M_sumb_d                              0.003934                          1   4
  252        M_sumb_d                              0.000216                            6   3
  253        fft3d_mpi                             0.015289                           11   3
  254          fftbas_plan_mpi                       0.014257                         11   4
  255            dfftw_execute                         0.005089                       33   5
  256            map_forward                           0.002830                       10   5
  257              map_gather                            0.000618                      5   6
  258              m_alltoallv_z                         0.001336                      5   6
  259              map_scatter                           0.000639                      5   6
  260            map_backward                          0.003725                       12   5
  261              map_gather                            0.000762                      6   6
  262              m_alltoallv_z                         0.001524                      6   6
  263              map_scatter                           0.001155                      6   6
  264        ggaall_grid                           0.001491                            1   3
  265        forhar                                0.006195                            2   3
  266          M_sumb_d                              0.000133                          2   4
  267        strehar                               0.002674                            1   3
  268          M_sumb_d                              0.000133                          1   4
  269        chggra                                0.006167                            1   3
  270          fft3d_mpi                             0.004083                          3   4
  271            fftbas_plan_mpi                       0.003810                        3   5
  272              dfftw_execute                         0.001330                      9   6
  273              map_backward                          0.000630                      2   6
  274                map_gather                            0.000125                    1   7
  275                m_alltoallv_z                         0.000261                    1   7
  276                map_scatter                           0.000186                    1   7
  277              map_forward                           0.001112                      4   6
  278                map_gather                            0.000243                    2   7
  279                m_alltoallv_z                         0.000524                    2   7
  280                map_scatter                           0.000249                    2   7
  281          M_sumb_d                              0.000194                          3   4
  282        brmix                                 0.013323                            1   3
  283          M_sumb_d                              0.000262                          6   4
  284          brpre                                 0.000047                          1   4
  285          setg0                                 0.001164                          1   4
  286          broyd                                 0.005724                          1   4
  287            M_sumb_d                              0.000732                       18   5
  288            brget                                 0.000305                       64   5
  289            brsav                                 0.000070                       16   5
  290          M_bcast_z                             0.005178                          1   4
  291          M_bcast_d                             0.000074                          1   4
  292        M_bcast_d                             0.000237                            2   3
  293      potlok                                0.027422                              1   2
  294        fft3d_mpi                             0.018197                           13   3
  295          fftbas_plan_mpi                       0.016865                         13   4
  296            dfftw_execute                         0.005760                       39   5
  297            map_forward                           0.004183                       14   5
  298              map_gather                            0.000825                      8   6
  299              m_alltoallv_z                         0.002004                      8   6
  300              map_scatter                           0.000999                      8   6
  301            map_backward                          0.003828                       12   5
  302              map_gather                            0.000800                      6   6
  303              m_alltoallv_z                         0.001555                      6   6
  304              map_scatter                           0.001182                      6   6
  305        ggaall_grid                           0.001628                            1   3
  306        M_sumb_d                              0.000282                            6   3
  307        M_bcast_d                             0.000126                            1   3
  308      potlok_metagga                        0.000003                              1   2
  309      set_dd_magatom                        0.000003                              1   2
  310      set_dd_paw                            0.000451                              1   2
  311        set_rsgf_all                          0.000004                            1   3
  312        M_sumb_d                              0.000265                            8   3
  313      densta                                0.002257                              1   2
  314        M_sumb_d                              0.000861                           37   3
  315      lprj_proall                           0.000008                              1   2

 Flat profile
 ============

             routine name                   CPU           calls
 ---------------------------------------------------------------
 total_time                             14.416613           1
 eddav                                   5.327140          16
 dfftw_execute                           4.912286       49704
 fftbas_plan_mpi                         3.453493       16570
 M_sumb_d                                2.712852       46139
 setdij_                                 2.440943          40
 set_charge                              1.951146          12
 elmin                                   1.916618           1
 m_alltoallv_z                           1.843752       16593
 pdssyex_zheevx                          1.491609         336
 M_alltoall_d                            1.178274       55216
 orth1                                   0.908068       11286
 proj1                                   0.889694        6754
 spher                                   0.822057          20
 gemm                                    0.777118       22530
 vhamil                                  0.760973        7510
 M_bcast_z                               0.709183        6306
 fftwav_mpi                              0.640550        8770
 map_forward                             0.626122       17818
 map_gather                              0.605777       16593
 map_scatter                             0.561731       16593
 vnlac0                                  0.504854        7510
 redis_pw                                0.458655       21228
 hamiltmu                                0.412969        3755
 redis_proj                              0.407274       26743
 crpa_reader                             0.328408           1
 w1_copy                                 0.318052       22530
 map_backward                            0.269992       15318
 fft3d_mpi                               0.266249       16568
 work_mul_crexp                          0.265270       22530
 fftext_mpi                              0.240741        7510
 crexp_mul_wave                          0.198578       20262
 eccp                                    0.181120        2016
 kinhamil                                0.151246        7510
 overl                                   0.149402       13025
 M_bcast_d                               0.122917        3787
 overl1                                  0.095363        7510
 potlok                                  0.086163          13
 pw_charge                               0.077007        1260
 apply_precond                           0.074965        5494
 setup_precond                           0.065883        2016
 force_and_stress                        0.062984           1
 w1_projall                              0.060336        2747
 lincom                                  0.055720         357
 fornl                                   0.044905           1
 phase                                   0.036214         568
 brmix                                   0.032483          12
 truncate_high_frequency_w1              0.032413        9526
 soft_charge                             0.032016          12
 densta                                  0.025313          17
 ggaall_grid                             0.021904          14
 strenl                                  0.021711           1
 setg0                                   0.014033          13
 broyd                                   0.011651          12
 forhar                                  0.006062           2
 depsum                                  0.005173          12
 forloc                                  0.002879           1
 set_dd_paw                              0.002575          14
 strehar                                 0.002541           1
 orthch                                  0.002205           1
 strelo                                  0.002125           1
 brget                                   0.001940         432
 chggra                                  0.001890           1
 choleski                                0.001652          21
 proj                                    0.001553          21
 brgrid                                  0.001225           1
 brsav                                   0.000823         128
 brpre                                   0.000635          12
 strkin                                  0.000575           1
 fordep                                  0.000117           1
 vectorpot                               0.000069          13
 set_rsgf_all                            0.000063          14
 set_dd_magatom                          0.000051          14
 potlok_metagga                          0.000050          13
 set_kineden                             0.000039          11
 rotate_active_occupied_orbital          0.000015           1
 lprj_proall                             0.000008           1
 redis_pw_over_bands                     0.000004           1
 ---------------------------------------------------------------
  summed up times    54.1070630550385

 Accumulative profile
 ====================

             routine name                   CPU           calls
 ---------------------------------------------------------------
 total_time                             54.107063           1
 elmin                                  34.998917           1
 eddav                                  28.673371          16
 fft3d_mpi                              12.446508       16568
 fftbas_plan_mpi                        12.273153       16570
 hamiltmu                                8.828239        3755
 fftwav_mpi                              6.992934        8770
 kinhamil                                5.536413        7510
 fftext_mpi                              5.385167        7510
 dfftw_execute                           4.912286       49704
 force_and_stress                        3.282173           1
 set_charge                              3.184494          12
 setdij_                                 2.926962          40
 M_sumb_d                                2.712852       46139
 map_forward                             2.298081       17818
 vnlac0                                  2.022521        7510
 m_alltoallv_z                           1.843752       16593
 map_backward                            1.609293       15318
 proj1                                   1.558302        6754
 pdssyex_zheevx                          1.491609         336
 w1_projall                              1.358284        2747
 M_alltoall_d                            1.178274       55216
 redis_pw                                1.122172       21228
 soft_charge                             1.072996          12
 strenl                                  1.016472           1
 redis_proj                              0.922030       26743
 orth1                                   0.908068       11286
 spher                                   0.822057          20
 gemm                                    0.777118       22530
 vhamil                                  0.760973        7510
 M_bcast_z                               0.709183        6306
 map_gather                              0.605777       16593
 map_scatter                             0.561731       16593
 fordep                                  0.426403           1
 potlok                                  0.344103          13
 crpa_reader                             0.328408           1
 w1_copy                                 0.318052       22530
 eccp                                    0.301060        2016
 work_mul_crexp                          0.265270       22530
 crexp_mul_wave                          0.198578       20262
 set_dd_paw                              0.157794          14
 overl                                   0.149402       13025
 M_bcast_d                               0.122917        3787
 setup_precond                           0.114784        2016
 brmix                                   0.106480          12
 overl1                                  0.095363        7510
 pw_charge                               0.077007        1260
 apply_precond                           0.074965        5494
 fornl                                   0.060898           1
 lincom                                  0.055720         357
 densta                                  0.038398          17
 phase                                   0.036214         568
 truncate_high_frequency_w1              0.032413        9526
 orthch                                  0.029958           1
 proj                                    0.027321          21
 ggaall_grid                             0.021904          14
 broyd                                   0.019347          12
 setg0                                   0.014033          13
 depsum                                  0.007934          12
 forhar                                  0.006195           2
 chggra                                  0.006167           1
 forloc                                  0.004842           1
 strelo                                  0.002705           1
 strehar                                 0.002674           1
 brget                                   0.001940         432
 choleski                                0.001652          21
 brgrid                                  0.001225           1
 strkin                                  0.000866           1
 brsav                                   0.000823         128
 brpre                                   0.000635          12
 vectorpot                               0.000069          13
 set_rsgf_all                            0.000063          14
 set_dd_magatom                          0.000051          14
 potlok_metagga                          0.000050          13
 set_kineden                             0.000039          11
 rotate_active_occupied_orbital          0.000015           1
 lprj_proall                             0.000008           1
 redis_pw_over_bands                     0.000004           1
 ---------------------------------------------------------------

Profiling took   1.312852  1.580604  0.006109  0.004642 seconds
Profiling took   1.276450 seconds
