<?xml version="1.0" encoding="ISO-8859-1"?>
<modeling>
 <generator>
  <i name="program" type="string">vasp </i>
  <i name="version" type="string">6.0.8  </i>
  <i name="subversion" type="string">29Jun18 (build Jun 13 2019 12:54:44) complex                          parallel </i>
  <i name="platform" type="string">IFC18_CrayMPICH </i>
  <i name="date" type="string">2021 12 05 </i>
  <i name="time" type="string">14:21:48 </i>
 </generator>
 <incar>
  <i type="int" name="KPAR">     4</i>
  <i type="int" name="NPAR">     4</i>
  <i type="int" name="ISTART">     0</i>
  <i type="string" name="PREC"> ACC</i>
  <i type="string" name="ALGO"> Normal</i>
  <i type="logical" name="ADDGRID"> T  </i>
  <i type="int" name="ISPIN">     1</i>
  <i type="int" name="NELMIN">     5</i>
  <i type="int" name="IBRION">    -1</i>
  <i name="EDIFF">      0.00000010</i>
  <i type="int" name="NSW">     0</i>
  <i type="int" name="ISIF">     3</i>
  <i name="ENCUT">    700.00000000</i>
  <i type="logical" name="LREAL"> F  </i>
  <i type="int" name="ISMEAR">     0</i>
  <i name="SIGMA">      0.01000000</i>
  <i type="logical" name="LWAVE"> F  </i>
  <i type="logical" name="LCHARG"> F  </i>
  <i type="logical" name="LVTOT"> F  </i>
  <i type="string" name="ALGO"> Normal</i>
  <i type="string" name="GGA"> PS</i>
  <i name="EDIFF">      0.00000010</i>
  <i type="int" name="ISPIN">     1</i>
 </incar>
 <structure name="primitive_cell" >
  <crystal>
   <varray name="basis" >
    <v>       0.00000000       3.25693317       3.25693317 </v>
    <v>       3.25693317       0.00000000       3.25693317 </v>
    <v>       3.25693317       3.25693317       0.00000000 </v>
   </varray>
   <i name="volume">     69.09657749 </i>
   <varray name="rec_basis" >
    <v>      -0.15351866       0.15351866       0.15351866 </v>
    <v>       0.15351866      -0.15351866       0.15351866 </v>
    <v>       0.15351866       0.15351866      -0.15351866 </v>
   </varray>
  </crystal>
  <varray name="positions" >
   <v>       0.25000000       0.25000000       0.25000000 </v>
   <v>       0.75000000       0.75000000       0.75000000 </v>
   <v>       0.00000000       0.00000000       0.00000000 </v>
  </varray>
 </structure>
 <varray name="primitive_index" >
  <v type="int" >        1 </v>
  <v type="int" >        2 </v>
  <v type="int" >        3 </v>
 </varray>
 <kpoints>
  <generation param="Gamma">
   <v type="int" name="divisions">      13       13       13 </v>
   <v name="usershift">      0.00000000       0.00000000       0.00000000 </v>
   <v name="genvec1">      0.07692308       0.00000000      -0.00000000 </v>
   <v name="genvec2">      0.00000000       0.07692308       0.00000000 </v>
   <v name="genvec3">     -0.00000000      -0.00000000       0.07692308 </v>
   <v name="shift">      0.00000000       0.00000000       0.00000000 </v>
  </generation>
  <varray name="kpointlist" >
   <v>       0.00000000       0.00000000       0.00000000 </v>
   <v>       0.07692308       0.00000000      -0.00000000 </v>
   <v>       0.15384615      -0.00000000       0.00000000 </v>
   <v>       0.23076923      -0.00000000      -0.00000000 </v>
   <v>       0.30769231      -0.00000000       0.00000000 </v>
   <v>       0.38461538       0.00000000      -0.00000000 </v>
   <v>       0.46153846      -0.00000000      -0.00000000 </v>
   <v>       0.07692308       0.07692308      -0.00000000 </v>
   <v>       0.15384615       0.07692308      -0.00000000 </v>
   <v>       0.23076923       0.07692308      -0.00000000 </v>
   <v>       0.30769231       0.07692308      -0.00000000 </v>
   <v>       0.38461538       0.07692308       0.00000000 </v>
   <v>       0.46153846       0.07692308      -0.00000000 </v>
   <v>      -0.46153846       0.07692308      -0.00000000 </v>
   <v>      -0.38461538       0.07692308       0.00000000 </v>
   <v>      -0.30769231       0.07692308       0.00000000 </v>
   <v>      -0.23076923       0.07692308      -0.00000000 </v>
   <v>      -0.15384615       0.07692308       0.00000000 </v>
   <v>      -0.07692308       0.07692308       0.00000000 </v>
   <v>       0.15384615       0.15384615      -0.00000000 </v>
   <v>       0.23076923       0.15384615      -0.00000000 </v>
   <v>       0.30769231       0.15384615      -0.00000000 </v>
   <v>       0.38461538       0.15384615      -0.00000000 </v>
   <v>       0.46153846       0.15384615       0.00000000 </v>
   <v>      -0.46153846       0.15384615      -0.00000000 </v>
   <v>      -0.38461538       0.15384615      -0.00000000 </v>
   <v>      -0.30769231       0.15384615       0.00000000 </v>
   <v>      -0.23076923       0.15384615       0.00000000 </v>
   <v>      -0.15384615       0.15384615      -0.00000000 </v>
   <v>       0.23076923       0.23076923      -0.00000000 </v>
   <v>       0.30769231       0.23076923      -0.00000000 </v>
   <v>       0.38461538       0.23076923      -0.00000000 </v>
   <v>       0.46153846       0.23076923      -0.00000000 </v>
   <v>      -0.46153846       0.23076923      -0.00000000 </v>
   <v>      -0.38461538       0.23076923       0.00000000 </v>
   <v>      -0.30769231       0.23076923      -0.00000000 </v>
   <v>      -0.23076923       0.23076923      -0.00000000 </v>
   <v>       0.30769231       0.30769231      -0.00000000 </v>
   <v>       0.38461538       0.30769231      -0.00000000 </v>
   <v>       0.46153846       0.30769231      -0.00000000 </v>
   <v>      -0.46153846       0.30769231      -0.00000000 </v>
   <v>      -0.38461538       0.30769231       0.00000000 </v>
   <v>      -0.30769231       0.30769231      -0.00000000 </v>
   <v>       0.38461538       0.38461538      -0.00000000 </v>
   <v>       0.46153846       0.38461538      -0.00000000 </v>
   <v>      -0.46153846       0.38461538       0.00000000 </v>
   <v>      -0.38461538       0.38461538       0.00000000 </v>
   <v>       0.46153846       0.46153846      -0.00000000 </v>
   <v>      -0.46153846       0.46153846      -0.00000000 </v>
   <v>       0.23076923       0.15384615       0.07692308 </v>
   <v>       0.30769231       0.15384615       0.07692308 </v>
   <v>       0.38461538       0.15384615       0.07692308 </v>
   <v>       0.46153846       0.15384615       0.07692308 </v>
   <v>      -0.46153846       0.15384615       0.07692308 </v>
   <v>       0.30769231       0.23076923       0.07692308 </v>
   <v>       0.38461538       0.23076923       0.07692308 </v>
   <v>       0.46153846       0.23076923       0.07692308 </v>
   <v>      -0.46153846       0.23076923       0.07692308 </v>
   <v>      -0.38461538       0.23076923       0.07692308 </v>
   <v>      -0.30769231       0.23076923       0.07692308 </v>
   <v>      -0.23076923       0.23076923       0.07692308 </v>
   <v>      -0.15384615       0.23076923       0.07692308 </v>
   <v>       0.38461538       0.30769231       0.07692308 </v>
   <v>       0.46153846       0.30769231       0.07692308 </v>
   <v>      -0.46153846       0.30769231       0.07692308 </v>
   <v>      -0.38461538       0.30769231       0.07692308 </v>
   <v>      -0.30769231       0.30769231       0.07692308 </v>
   <v>      -0.23076923       0.30769231       0.07692308 </v>
   <v>       0.46153846       0.38461538       0.07692308 </v>
   <v>      -0.46153846       0.38461538       0.07692308 </v>
   <v>      -0.38461538       0.38461538       0.07692308 </v>
   <v>      -0.30769231       0.38461538       0.07692308 </v>
   <v>      -0.46153846       0.46153846       0.07692308 </v>
   <v>      -0.38461538       0.46153846       0.07692308 </v>
   <v>       0.46153846       0.30769231       0.15384615 </v>
   <v>      -0.46153846       0.30769231       0.15384615 </v>
   <v>      -0.38461538       0.30769231       0.15384615 </v>
   <v>      -0.46153846       0.38461538       0.15384615 </v>
   <v>      -0.38461538       0.38461538       0.15384615 </v>
   <v>      -0.30769231       0.38461538       0.15384615 </v>
   <v>      -0.23076923       0.38461538       0.15384615 </v>
   <v>      -0.38461538       0.46153846       0.15384615 </v>
   <v>      -0.30769231       0.46153846       0.15384615 </v>
   <v>      -0.30769231       0.46153846       0.23076923 </v>
  </varray>
  <varray name="weights" >
   <v>       0.00045517 </v>
   <v>       0.00364133 </v>
   <v>       0.00364133 </v>
   <v>       0.00364133 </v>
   <v>       0.00364133 </v>
   <v>       0.00364133 </v>
   <v>       0.00364133 </v>
   <v>       0.00273100 </v>
   <v>       0.01092399 </v>
   <v>       0.01092399 </v>
   <v>       0.01092399 </v>
   <v>       0.01092399 </v>
   <v>       0.01092399 </v>
   <v>       0.01092399 </v>
   <v>       0.01092399 </v>
   <v>       0.01092399 </v>
   <v>       0.01092399 </v>
   <v>       0.01092399 </v>
   <v>       0.00546199 </v>
   <v>       0.00273100 </v>
   <v>       0.01092399 </v>
   <v>       0.01092399 </v>
   <v>       0.01092399 </v>
   <v>       0.01092399 </v>
   <v>       0.01092399 </v>
   <v>       0.01092399 </v>
   <v>       0.01092399 </v>
   <v>       0.01092399 </v>
   <v>       0.00546199 </v>
   <v>       0.00273100 </v>
   <v>       0.01092399 </v>
   <v>       0.01092399 </v>
   <v>       0.01092399 </v>
   <v>       0.01092399 </v>
   <v>       0.01092399 </v>
   <v>       0.01092399 </v>
   <v>       0.00546199 </v>
   <v>       0.00273100 </v>
   <v>       0.01092399 </v>
   <v>       0.01092399 </v>
   <v>       0.01092399 </v>
   <v>       0.01092399 </v>
   <v>       0.00546199 </v>
   <v>       0.00273100 </v>
   <v>       0.01092399 </v>
   <v>       0.01092399 </v>
   <v>       0.00546199 </v>
   <v>       0.00273100 </v>
   <v>       0.00546199 </v>
   <v>       0.01092399 </v>
   <v>       0.02184797 </v>
   <v>       0.02184797 </v>
   <v>       0.02184797 </v>
   <v>       0.02184797 </v>
   <v>       0.01092399 </v>
   <v>       0.02184797 </v>
   <v>       0.02184797 </v>
   <v>       0.02184797 </v>
   <v>       0.02184797 </v>
   <v>       0.02184797 </v>
   <v>       0.02184797 </v>
   <v>       0.01092399 </v>
   <v>       0.01092399 </v>
   <v>       0.02184797 </v>
   <v>       0.02184797 </v>
   <v>       0.02184797 </v>
   <v>       0.02184797 </v>
   <v>       0.01092399 </v>
   <v>       0.01092399 </v>
   <v>       0.02184797 </v>
   <v>       0.02184797 </v>
   <v>       0.01092399 </v>
   <v>       0.01092399 </v>
   <v>       0.01092399 </v>
   <v>       0.01092399 </v>
   <v>       0.02184797 </v>
   <v>       0.02184797 </v>
   <v>       0.01092399 </v>
   <v>       0.02184797 </v>
   <v>       0.02184797 </v>
   <v>       0.01092399 </v>
   <v>       0.01092399 </v>
   <v>       0.01092399 </v>
   <v>       0.01092399 </v>
  </varray>
 </kpoints>
 <parameters>
  <separator name="general" >
   <i type="string" name="SYSTEM">unknown system</i>
   <i type="logical" name="LCOMPAT"> F  </i>
  </separator>
  <separator name="electronic" >
   <i type="string" name="PREC">acc</i>
   <i name="ENMAX">    700.00000000</i>
   <i name="ENAUG">    535.43100000</i>
   <i name="EDIFF">      0.00000010</i>
   <i type="int" name="IALGO">    38</i>
   <i type="int" name="IWAVPR">    10</i>
   <i type="int" name="NBANDS">    24</i>
   <i type="int" name="NBANDSLOW">    -1</i>
   <i type="int" name="NBANDSHIGH">    -1</i>
   <i name="NELECT">     37.00000000</i>
   <i type="int" name="TURBO">     0</i>
   <i type="int" name="IRESTART">     0</i>
   <i type="int" name="NREBOOT">     0</i>
   <i type="int" name="NMIN">     0</i>
   <i name="EREF">      0.00000000</i>
   <separator name="electronic smearing" >
    <i type="int" name="ISMEAR">     0</i>
    <i name="SIGMA">      0.01000000</i>
    <i name="KSPACING">      0.50000000</i>
    <i type="logical" name="KGAMMA"> T  </i>
    <i type="logical" name="KBLOWUP"> T  </i>
   </separator>
   <separator name="electronic projectors" >
    <i type="logical" name="LREAL"> F  </i>
    <v name="ROPT">      0.00000000      0.00000000      0.00000000</v>
    <i type="int" name="LMAXPAW">  -100</i>
    <i type="int" name="LMAXMIX">     2</i>
    <i type="logical" name="NLSPLINE"> F  </i>
   </separator>
   <separator name="electronic startup" >
    <i type="int" name="ISTART">     0</i>
    <i type="int" name="ICHARG">     2</i>
    <i type="int" name="INIWAV">     1</i>
   </separator>
   <separator name="electronic spin" >
    <i type="int" name="ISPIN">     1</i>
    <i type="logical" name="LNONCOLLINEAR"> F  </i>
    <v name="MAGMOM">      1.00000000      1.00000000      1.00000000</v>
    <i name="NUPDOWN">     -1.00000000</i>
    <i type="logical" name="LSORBIT"> F  </i>
    <v name="SAXIS">      0.00000000      0.00000000      1.00000000</v>
    <i type="logical" name="LSPIRAL"> F  </i>
    <v name="QSPIRAL">      0.00000000      0.00000000      0.00000000</v>
    <i type="logical" name="LZEROZ"> F  </i>
   </separator>
   <separator name="electronic exchange-correlation" >
    <i type="logical" name="LASPH"> F  </i>
    <i type="logical" name="LMETAGGA"> F  </i>
   </separator>
   <separator name="electronic convergence" >
    <i type="int" name="NELM">    60</i>
    <i type="int" name="NELMDL">    -5</i>
    <i type="int" name="NELMIN">     5</i>
    <i name="ENINI">    700.00000000</i>
    <separator name="electronic convergence detail" >
     <i type="logical" name="LDIAG"> T  </i>
     <i type="logical" name="LSUBROT"> F  </i>
     <i name="WEIMIN">      0.00000000</i>
     <i name="EBREAK">      0.00000000</i>
     <i name="DEPER">      0.30000000</i>
     <i type="int" name="NRMM">     4</i>
     <i name="TIME">      0.40000000</i>
    </separator>
   </separator>
   <separator name="electronic mixer" >
    <i name="AMIX">      0.40000000</i>
    <i name="BMIX">      1.00000000</i>
    <i name="AMIN">      0.10000000</i>
    <i name="AMIX_MAG">      1.60000000</i>
    <i name="BMIX_MAG">      1.00000000</i>
    <separator name="electronic mixer details" >
     <i type="int" name="IMIX">     4</i>
     <i type="logical" name="MIXFIRST"> F  </i>
     <i type="int" name="MAXMIX">   -45</i>
     <i name="WC">    100.00000000</i>
     <i type="int" name="INIMIX">     1</i>
     <i type="int" name="MIXPRE">     1</i>
     <i type="int" name="MREMOVE">     5</i>
    </separator>
   </separator>
   <separator name="electronic dipolcorrection" >
    <i type="logical" name="LDIPOL"> F  </i>
    <i type="logical" name="LMONO"> F  </i>
    <i type="int" name="IDIPOL">     0</i>
    <i name="EPSILON">      1.00000000</i>
    <v name="DIPOL">   -100.00000000   -100.00000000   -100.00000000</v>
    <i name="EFIELD">      0.00000000</i>
   </separator>
  </separator>
  <separator name="grids" >
   <i type="int" name="NGX">    40</i>
   <i type="int" name="NGY">    40</i>
   <i type="int" name="NGZ">    40</i>
   <i type="int" name="NGXF">    80</i>
   <i type="int" name="NGYF">    80</i>
   <i type="int" name="NGZF">    80</i>
   <i type="logical" name="ADDGRID"> T  </i>
  </separator>
  <separator name="ionic" >
   <i type="int" name="NSW">     0</i>
   <i type="int" name="IBRION">    -1</i>
   <i type="int" name="MDALGO">     0</i>
   <i type="int" name="ISIF">     3</i>
   <i name="PSTRESS">      0.00000000</i>
   <i name="EDIFFG">      0.00000100</i>
   <i type="int" name="NFREE">     0</i>
   <i name="POTIM">      0.50000000</i>
   <i name="SMASS">     -3.00000000</i>
   <i name="SCALEE">      1.00000000</i>
  </separator>
  <separator name="ionic md" >
   <i name="TEBEG">      0.00010000</i>
   <i name="TEEND">      0.00010000</i>
   <i type="int" name="NBLOCK">     1</i>
   <i type="int" name="KBLOCK">     1</i>
   <i type="int" name="NPACO">   256</i>
   <i name="APACO">     16.00000000</i>
  </separator>
  <separator name="symmetry" >
   <i type="int" name="ISYM">     2</i>
   <i name="SYMPREC">      0.00001000</i>
  </separator>
  <separator name="dos" >
   <i type="int" name="LORBIT">     0</i>
   <v name="RWIGS">     -1.00000000     -1.00000000     -1.00000000</v>
   <i type="int" name="NEDOS">   301</i>
   <i name="EMIN">     10.00000000</i>
   <i name="EMAX">    -10.00000000</i>
   <i name="EFERMI">      0.00000000</i>
  </separator>
  <separator name="writing" >
   <i type="int" name="NWRITE">     2</i>
   <i type="logical" name="LWAVE"> F  </i>
   <i type="logical" name="LDOWNSAMPLE"> F  </i>
   <i type="logical" name="LCHARG"> F  </i>
   <i type="logical" name="LPARD"> F  </i>
   <i type="logical" name="LVTOT"> F  </i>
   <i type="logical" name="LVHAR"> F  </i>
   <i type="logical" name="LELF"> F  </i>
   <i type="logical" name="LOPTICS"> F  </i>
   <v name="STM">      0.00000000      0.00000000      0.00000000      0.00000000      0.00000000      0.00000000      0.00000000</v>
  </separator>
  <separator name="performance" >
   <i type="int" name="NPAR">     4</i>
   <i type="int" name="NSIM">     4</i>
   <i type="int" name="NBLK">    -1</i>
   <i type="logical" name="LPLANE"> T  </i>
   <i type="logical" name="LSCALAPACK"> T  </i>
   <i type="logical" name="LSCAAWARE"> F  </i>
   <i type="logical" name="LSCALU"> F  </i>
   <i type="logical" name="LASYNC"> F  </i>
   <i type="logical" name="LORBITALREAL"> F  </i>
  </separator>
  <separator name="miscellaneous" >
   <i type="int" name="IDIOT">     3</i>
   <i type="int" name="PHON_NSTRUCT">    -1</i>
   <i type="logical" name="LMUSIC"> F  </i>
   <v name="POMASS">    232.03900000    208.98000000    195.08000000</v>
   <v name="DARWINR">      0.00000000      0.00000000      0.00000000</v>
   <v name="DARWINV">      1.00000000      1.00000000      1.00000000</v>
   <i type="logical" name="LCORR"> T  </i>
  </separator>
  <i type="logical" name="GGA_COMPAT"> T  </i>
  <i type="logical" name="LBERRY"> F  </i>
  <i type="int" name="ICORELEVEL">     0</i>
  <i type="logical" name="LDAU"> F  </i>
  <i type="int" name="I_CONSTRAINED_M">     0</i>
  <separator name="electronic exchange-correlation" >
   <i type="string" name="GGA">PS</i>
   <i type="int" name="VOSKOWN">     0</i>
   <i type="logical" name="LHFCALC"> F  </i>
   <i type="string" name="PRECFOCK"></i>
   <i type="logical" name="LSYMGRAD"> F  </i>
   <i type="logical" name="LHFONE"> F  </i>
   <i type="logical" name="LRHFCALC"> F  </i>
   <i type="logical" name="LTHOMAS"> F  </i>
   <i type="logical" name="LMODELHF"> F  </i>
   <i type="logical" name="LFOCKACE"> F  </i>
   <i name="ENCUT4O">     -1.00000000</i>
   <i type="int" name="EXXOEP">     0</i>
   <i type="int" name="FOURORBIT">     0</i>
   <i name="AEXX">      0.00000000</i>
   <i name="HFALPHA">      0.00000000</i>
   <i name="MCALPHA">      0.00000000</i>
   <i name="ALDAX">      1.00000000</i>
   <i name="AGGAX">      1.00000000</i>
   <i name="ALDAC">      1.00000000</i>
   <i name="AGGAC">      1.00000000</i>
   <i type="int" name="NKREDX">     1</i>
   <i type="int" name="NKREDY">     1</i>
   <i type="int" name="NKREDZ">     1</i>
   <i type="logical" name="SHIFTRED"> F  </i>
   <i type="logical" name="ODDONLY"> F  </i>
   <i type="logical" name="EVENONLY"> F  </i>
   <i type="int" name="LMAXFOCK">     0</i>
   <i type="int" name="NMAXFOCKAE">     0</i>
   <i type="logical" name="LFOCKAEDFT"> F  </i>
   <i name="HFSCREEN">      0.00000000</i>
   <i name="HFSCREENC">      0.00000000</i>
   <i type="int" name="NBANDSGWLOW">     0</i>
  </separator>
  <separator name="vdW DFT" >
   <i type="logical" name="LUSE_VDW"> F  </i>
   <i name="Zab_VDW">     -0.84910000</i>
   <i name="PARAM1">      0.12340000</i>
   <i name="PARAM2">      1.00000000</i>
   <i name="PARAM3">      0.00000000</i>
  </separator>
  <separator name="model GW" >
   <i type="int" name="MODEL_GW">     0</i>
   <i name="MODEL_EPS0">     13.81931550</i>
   <i name="MODEL_ALPHA">      1.00000000</i>
  </separator>
  <separator name="linear response parameters" >
   <i type="logical" name="LEPSILON"> F  </i>
   <i type="logical" name="LRPA"> F  </i>
   <i type="logical" name="LNABLA"> F  </i>
   <i type="logical" name="LVEL"> F  </i>
   <i type="int" name="KINTER">     0</i>
   <i name="CSHIFT">      0.10000000</i>
   <i name="OMEGAMAX">     -1.00000000</i>
   <i name="DEG_THRESHOLD">      0.00200000</i>
   <i name="RTIME">     -0.10000000</i>
   <i name="WPLASMAI">      0.00000000</i>
   <v name="DFIELD">      0.00000000      0.00000000      0.00000000</v>
   <v name="WPLASMA">      0.00000000      0.00000000      0.00000000      0.00000000      0.00000000      0.00000000      0.00000000      0.00000000      0.00000000</v>
  </separator>
  <separator name="orbital magnetization" >
   <i type="logical" name="NUCIND"> F  </i>
   <v name="MAGPOS">      0.00000000      0.00000000      0.00000000</v>
   <i type="logical" name="LNICSALL"> T  </i>
   <i type="logical" name="ORBITALMAG"> F  </i>
   <i type="logical" name="LMAGBLOCH"> F  </i>
   <i type="logical" name="LCHIMAG"> F  </i>
   <i type="logical" name="LGAUGE"> T  </i>
   <i type="int" name="MAGATOM">     0</i>
   <v name="MAGDIPOL">      0.00000000      0.00000000      0.00000000</v>
   <v name="AVECCONST">      0.00000000      0.00000000      0.00000000</v>
  </separator>
  <separator name="response functions" >
   <i type="logical" name="LFINITE_TEMPERATURE"> F  </i>
   <i type="logical" name="LADDER"> F  </i>
   <i type="logical" name="LRPAFORCE"> F  </i>
   <i type="logical" name="LFXC"> F  </i>
   <i type="logical" name="LHARTREE"> T  </i>
   <i type="int" name="IBSE">     0</i>
   <v type="int" name="KPOINT">    -1     0     0     0</v>
   <i type="logical" name="LTCTC"> F  </i>
   <i type="logical" name="LTCTE"> F  </i>
   <i type="logical" name="LTETE"> F  </i>
   <i type="logical" name="LTRIPLET"> F  </i>
   <i type="logical" name="LFXCEPS"> F  </i>
   <i type="logical" name="LFXHEG"> F  </i>
   <i type="int" name="NATURALO">     2</i>
   <i type="logical" name="L2ORDER"> F  </i>
   <i type="logical" name="LDMP1"> F  </i>
   <i type="logical" name="LMP2LT"> F  </i>
   <i type="logical" name="LSMP2LT"> F  </i>
   <i type="logical" name="LUSEW"> F  </i>
   <i name="ENCUTGW">     -2.00000000</i>
   <i name="ENCUTGWSOFT">     -2.00000000</i>
   <i name="ENCUTLF">     -1.00000000</i>
   <i type="int" name="LMAXMP2">    -1</i>
   <i name="SCISSOR">      0.00000000</i>
   <i type="int" name="NOMEGA">     0</i>
   <i type="int" name="NOMEGAR">     0</i>
   <i type="int" name="NBANDSGW">    -1</i>
   <i type="int" name="NBANDSO">    -1</i>
   <i type="int" name="NBANDSV">    -1</i>
   <i type="int" name="NELM">     1</i>
   <i type="int" name="NELMHF">     1</i>
   <i type="int" name="DIM">     3</i>
   <i type="int" name="IESPILON">     4</i>
   <i type="int" name="ANTIRES">     0</i>
   <i name="OMEGAMAX">    -30.00000000</i>
   <i name="OMEGAMIN">    -30.00000000</i>
   <i name="OMEGATL">   -200.00000000</i>
   <i type="int" name="OMEGAGRID">   145</i>
   <i name="CSHIFT">     -0.10000000</i>
   <i type="logical" name="LSELFENERGY"> F  </i>
   <i type="logical" name="LSPECTRAL"> F  </i>
   <i type="logical" name="LSPECTRALGW"> F  </i>
   <i type="logical" name="LSINGLES"> F  </i>
   <i type="logical" name="LFERMIGW"> F  </i>
   <i type="logical" name="ODDONLYGW"> F  </i>
   <i type="logical" name="EVENONLYGW"> F  </i>
   <i type="int" name="NKREDLFX">     1</i>
   <i type="int" name="NKREDLFY">     1</i>
   <i type="int" name="NKREDLFZ">     1</i>
   <i type="int" name="MAXMEM">  2800</i>
   <i type="int" name="TELESCOPE">     0</i>
   <i type="int" name="NTAUPAR">     1</i>
   <i type="int" name="NOMEGAPAR">    -1</i>
   <i name="LAMBDA">      1.00000000</i>
  </separator>
  <separator name="External order field" >
   <i name="OFIELD_KAPPA">      0.00000000</i>
   <v name="OFIELD_K">      0.00000000      0.00000000      0.00000000</v>
   <i name="OFIELD_Q6_NEAR">      0.00000000</i>
   <i name="OFIELD_Q6_FAR">      0.00000000</i>
   <i name="OFIELD_A">      0.00000000</i>
  </separator>
 </parameters>
 <atominfo>
  <atoms>       3 </atoms>
  <types>       3 </types>
  <array name="atoms" >
   <dimension dim="1">ion</dimension>
   <field type="string">element</field>
   <field type="int">atomtype</field>
   <set>
    <rc><c>Th</c><c>   1</c></rc>
    <rc><c>Bi</c><c>   2</c></rc>
    <rc><c>Pt</c><c>   3</c></rc>
   </set>
  </array>
  <array name="atomtypes" >
   <dimension dim="1">type</dimension>
   <field type="int">atomspertype</field>
   <field type="string">element</field>
   <field>mass</field>
   <field>valence</field>
   <field type="string">pseudopotential</field>
   <set>
    <rc><c>   1</c><c>Th</c><c>    232.03900000</c><c>     12.00000000</c><c>  PAW_PBE Th 07Sep2000                  </c></rc>
    <rc><c>   1</c><c>Bi</c><c>    208.98000000</c><c>     15.00000000</c><c>  PAW_PBE Bi_d 06Sep2000                </c></rc>
    <rc><c>   1</c><c>Pt</c><c>    195.08000000</c><c>     10.00000000</c><c>  PAW_PBE Pt 04Feb2005                  </c></rc>
   </set>
  </array>
 </atominfo>
 <structure name="initialpos" >
  <crystal>
   <varray name="basis" >
    <v>       0.00000000       3.25693317       3.25693317 </v>
    <v>       3.25693317       0.00000000       3.25693317 </v>
    <v>       3.25693317       3.25693317       0.00000000 </v>
   </varray>
   <i name="volume">     69.09657749 </i>
   <varray name="rec_basis" >
    <v>      -0.15351866       0.15351866       0.15351866 </v>
    <v>       0.15351866      -0.15351866       0.15351866 </v>
    <v>       0.15351866       0.15351866      -0.15351866 </v>
   </varray>
  </crystal>
  <varray name="positions" >
   <v>       0.25000000       0.25000000       0.25000000 </v>
   <v>       0.75000000       0.75000000       0.75000000 </v>
   <v>       0.00000000       0.00000000       0.00000000 </v>
  </varray>
 </structure>
 <calculation>
  <scstep>
   <time name="dav">    1.43    1.45</time>
   <time name="total">    1.59    1.68</time>
   <energy>
    <i name="alphaZ">    248.66011606 </i>
    <i name="ewald">  -3289.03903698 </i>
    <i name="hartreedc">   -689.87579553 </i>
    <i name="XCdc">     70.06365099 </i>
    <i name="pawpsdc">   3147.30828992 </i>
    <i name="pawaedc">  -3070.62761383 </i>
    <i name="eentropy">     -0.00024764 </i>
    <i name="bandstr">    365.38349260 </i>
    <i name="atom">   3674.67342263 </i>
    <i name="e_fr_energy">    456.54627823 </i>
    <i name="e_wo_entrp">    456.54652587 </i>
    <i name="e_0_energy">    456.54640205 </i>
   </energy>
  </scstep>
  <scstep>
   <time name="dav">    1.44    1.48</time>
   <time name="total">    1.44    1.49</time>
   <energy>
    <i name="e_fr_energy">     48.29083089 </i>
    <i name="e_wo_entrp">     48.29099638 </i>
    <i name="e_0_energy">     48.29091364 </i>
   </energy>
  </scstep>
  <scstep>
   <time name="dav">    1.81    1.84</time>
   <time name="total">    1.81    1.84</time>
   <energy>
    <i name="e_fr_energy">    -17.80303166 </i>
    <i name="e_wo_entrp">    -17.80284811 </i>
    <i name="e_0_energy">    -17.80293989 </i>
   </energy>
  </scstep>
  <scstep>
   <time name="dav">    2.28    2.36</time>
   <time name="total">    2.29    2.36</time>
   <energy>
    <i name="e_fr_energy">    -22.01017084 </i>
    <i name="e_wo_entrp">    -22.00989430 </i>
    <i name="e_0_energy">    -22.01003257 </i>
   </energy>
  </scstep>
  <scstep>
   <time name="dav">    1.88    1.91</time>
   <time name="total">    2.21    2.24</time>
   <energy>
    <i name="e_fr_energy">    -22.12022822 </i>
    <i name="e_wo_entrp">    -22.11995571 </i>
    <i name="e_0_energy">    -22.12009196 </i>
   </energy>
  </scstep>
  <scstep>
   <time name="dav">    1.70    1.70</time>
   <time name="total">    2.11    2.15</time>
   <energy>
    <i name="e_fr_energy">    -21.34748629 </i>
    <i name="e_wo_entrp">    -21.34730050 </i>
    <i name="e_0_energy">    -21.34739339 </i>
   </energy>
  </scstep>
  <scstep>
   <time name="dav">    1.91    1.91</time>
   <time name="total">    2.34    2.37</time>
   <energy>
    <i name="e_fr_energy">    -21.19052868 </i>
    <i name="e_wo_entrp">    -21.19033848 </i>
    <i name="e_0_energy">    -21.19043358 </i>
   </energy>
  </scstep>
  <scstep>
   <time name="dav">    1.77    1.77</time>
   <time name="total">    2.20    2.24</time>
   <energy>
    <i name="e_fr_energy">    -21.16153385 </i>
    <i name="e_wo_entrp">    -21.16143789 </i>
    <i name="e_0_energy">    -21.16148587 </i>
   </energy>
  </scstep>
  <scstep>
   <time name="dav">    1.89    1.89</time>
   <time name="total">    2.29    2.38</time>
   <energy>
    <i name="e_fr_energy">    -21.15635156 </i>
    <i name="e_wo_entrp">    -21.15625543 </i>
    <i name="e_0_energy">    -21.15630350 </i>
   </energy>
  </scstep>
  <scstep>
   <time name="dav">    1.84    1.84</time>
   <time name="total">    2.28    2.34</time>
   <energy>
    <i name="e_fr_energy">    -21.15319058 </i>
    <i name="e_wo_entrp">    -21.15309446 </i>
    <i name="e_0_energy">    -21.15314252 </i>
   </energy>
  </scstep>
  <scstep>
   <time name="dav">    1.79    1.79</time>
   <time name="total">    2.20    2.24</time>
   <energy>
    <i name="e_fr_energy">    -21.15324548 </i>
    <i name="e_wo_entrp">    -21.15314934 </i>
    <i name="e_0_energy">    -21.15319741 </i>
   </energy>
  </scstep>
  <scstep>
   <time name="dav">    1.93    1.93</time>
   <time name="total">    2.32    2.38</time>
   <energy>
    <i name="e_fr_energy">    -21.15320550 </i>
    <i name="e_wo_entrp">    -21.15310935 </i>
    <i name="e_0_energy">    -21.15315743 </i>
   </energy>
  </scstep>
  <scstep>
   <time name="dav">    1.95    1.95</time>
   <time name="total">    2.38    2.46</time>
   <energy>
    <i name="e_fr_energy">    -21.15320744 </i>
    <i name="e_wo_entrp">    -21.15311128 </i>
    <i name="e_0_energy">    -21.15315936 </i>
   </energy>
  </scstep>
  <scstep>
   <time name="dav">    1.78    1.78</time>
   <time name="total">    2.24    2.28</time>
   <energy>
    <i name="e_fr_energy">    -21.15320712 </i>
    <i name="e_wo_entrp">    -21.15311097 </i>
    <i name="e_0_energy">    -21.15315904 </i>
   </energy>
  </scstep>
  <scstep>
   <time name="dav">    2.06    2.06</time>
   <time name="total">    2.50    2.56</time>
   <energy>
    <i name="e_fr_energy">    -21.15320685 </i>
    <i name="e_wo_entrp">    -21.15311070 </i>
    <i name="e_0_energy">    -21.15315878 </i>
   </energy>
  </scstep>
  <scstep>
   <time name="dav">    1.29    1.29</time>
   <time name="total">    1.46    1.52</time>
   <energy>
    <i name="alphaZ">    248.66011606 </i>
    <i name="ewald">  -3289.03903698 </i>
    <i name="hartreedc">   -663.14214142 </i>
    <i name="XCdc">     69.39693103 </i>
    <i name="pawpsdc">   4376.07313619 </i>
    <i name="pawaedc">  -4310.65180281 </i>
    <i name="eentropy">     -0.00009615 </i>
    <i name="bandstr">   -127.12373539 </i>
    <i name="atom">   3674.67342263 </i>
    <i name="e_fr_energy">    -21.15320684 </i>
    <i name="e_wo_entrp">    -21.15311069 </i>
    <i name="e_0_energy">    -21.15315876 </i>
   </energy>
  </scstep>
  <structure>
   <crystal>
    <varray name="basis" >
     <v>       0.00000000       3.25693317       3.25693317 </v>
     <v>       3.25693317       0.00000000       3.25693317 </v>
     <v>       3.25693317       3.25693317       0.00000000 </v>
    </varray>
    <i name="volume">     69.09657749 </i>
    <varray name="rec_basis" >
     <v>      -0.15351866       0.15351866       0.15351866 </v>
     <v>       0.15351866      -0.15351866       0.15351866 </v>
     <v>       0.15351866       0.15351866      -0.15351866 </v>
    </varray>
   </crystal>
   <varray name="positions" >
    <v>       0.25000000       0.25000000       0.25000000 </v>
    <v>       0.75000000       0.75000000       0.75000000 </v>
    <v>       0.00000000       0.00000000       0.00000000 </v>
   </varray>
  </structure>
  <varray name="forces" >
   <v>       0.00000000       0.00000000       0.00000000 </v>
   <v>       0.00000000       0.00000000       0.00000000 </v>
   <v>      -0.00000000      -0.00000000      -0.00000000 </v>
  </varray>
  <varray name="stress" >
   <v>     228.31400978       0.00000000      -0.00000000 </v>
   <v>       0.00000000     228.31400978      -0.00000000 </v>
   <v>      -0.00000000       0.00000000     228.31400978 </v>
  </varray>
  <energy>
   <i name="e_fr_energy">    -21.15320684 </i>
   <i name="e_wo_entrp">    -21.15315876 </i>
   <i name="e_0_energy">     -0.00009615 </i>
  </energy>
  <time name="totalsc">   37.23   38.50</time>
  <eigenvalues>
   <array>
    <dimension dim="1">band</dimension>
    <dimension dim="2">kpoint</dimension>
    <dimension dim="3">spin</dimension>
    <field>eigene</field>
    <field>occ</field>
    <set>
     <set comment="spin 1">
      <set comment="kpoint 1">
       <r>  -29.2149    1.0000 </r>
       <r>  -12.8563    1.0000 </r>
       <r>  -12.8563    1.0000 </r>
       <r>  -12.8105    1.0000 </r>
       <r>  -12.8105    1.0000 </r>
       <r>  -12.8105    1.0000 </r>
       <r>   -7.4659    1.0000 </r>
       <r>   -7.4659    1.0000 </r>
       <r>   -7.4659    1.0000 </r>
       <r>   -2.6889    1.0000 </r>
       <r>    5.4993    1.0000 </r>
       <r>    5.4993    1.0000 </r>
       <r>    5.4993    1.0000 </r>
       <r>    5.5254    1.0000 </r>
       <r>    5.5254    1.0000 </r>
       <r>    9.0809    1.0000 </r>
       <r>    9.0809    1.0000 </r>
       <r>    9.0809    1.0000 </r>
       <r>    9.1758    1.0000 </r>
       <r>   10.6051    0.0000 </r>
       <r>   10.6051    0.0000 </r>
       <r>   10.6051    0.0000 </r>
       <r>   11.5986    0.0000 </r>
       <r>   12.8391    0.0000 </r>
      </set>
      <set comment="kpoint 2">
       <r>  -29.2140    1.0000 </r>
       <r>  -12.8578    1.0000 </r>
       <r>  -12.8578    1.0000 </r>
       <r>  -12.8108    1.0000 </r>
       <r>  -12.8102    1.0000 </r>
       <r>  -12.8102    1.0000 </r>
       <r>   -7.5031    1.0000 </r>
       <r>   -7.4605    1.0000 </r>
       <r>   -7.4605    1.0000 </r>
       <r>   -2.5897    1.0000 </r>
       <r>    5.2445    1.0000 </r>
       <r>    5.2445    1.0000 </r>
       <r>    5.3641    1.0000 </r>
       <r>    5.7665    1.0000 </r>
       <r>    5.7665    1.0000 </r>
       <r>    8.2821    1.0000 </r>
       <r>    8.9917    1.0000 </r>
       <r>    8.9917    1.0000 </r>
       <r>    9.7523    1.0000 </r>
       <r>   10.7171    0.0000 </r>
       <r>   10.7171    0.0000 </r>
       <r>   10.7690    0.0000 </r>
       <r>   11.9028    0.0000 </r>
       <r>   12.8434    0.0000 </r>
      </set>
      <set comment="kpoint 3">
       <r>  -29.2118    1.0000 </r>
       <r>  -12.8621    1.0000 </r>
       <r>  -12.8621    1.0000 </r>
       <r>  -12.8119    1.0000 </r>
       <r>  -12.8094    1.0000 </r>
       <r>  -12.8094    1.0000 </r>
       <r>   -7.5986    1.0000 </r>
       <r>   -7.4456    1.0000 </r>
       <r>   -7.4456    1.0000 </r>
       <r>   -2.3198    1.0000 </r>
       <r>    5.0096    1.0000 </r>
       <r>    5.0096    1.0000 </r>
       <r>    5.0096    1.0000 </r>
       <r>    5.9446    1.0000 </r>
       <r>    5.9446    1.0000 </r>
       <r>    7.5177    1.0000 </r>
       <r>    8.8163    1.0000 </r>
       <r>    8.8163    1.0000 </r>
       <r>    9.8464    1.0000 </r>
       <r>   10.9819    0.0000 </r>
       <r>   10.9819    0.0000 </r>
       <r>   11.4744    0.0000 </r>
       <r>   12.4772    0.0000 </r>
       <r>   12.8479    0.0000 </r>
      </set>
      <set comment="kpoint 4">
       <r>  -29.2086    1.0000 </r>
       <r>  -12.8681    1.0000 </r>
       <r>  -12.8681    1.0000 </r>
       <r>  -12.8138    1.0000 </r>
       <r>  -12.8083    1.0000 </r>
       <r>  -12.8083    1.0000 </r>
       <r>   -7.7178    1.0000 </r>
       <r>   -7.4247    1.0000 </r>
       <r>   -7.4247    1.0000 </r>
       <r>   -1.9501    1.0000 </r>
       <r>    4.5550    1.0000 </r>
       <r>    4.8363    1.0000 </r>
       <r>    4.8363    1.0000 </r>
       <r>    5.9912    1.0000 </r>
       <r>    5.9912    1.0000 </r>
       <r>    6.9188    1.0000 </r>
       <r>    8.6870    1.0000 </r>
       <r>    8.6870    1.0000 </r>
       <r>    9.8552    1.0000 </r>
       <r>   11.3036    0.0000 </r>
       <r>   11.3036    0.0000 </r>
       <r>   12.2527    0.0000 </r>
       <r>   12.8303    0.0000 </r>
       <r>   12.8304    0.0000 </r>
      </set>
      <set comment="kpoint 5">
       <r>  -29.2052    1.0000 </r>
       <r>  -12.8745    1.0000 </r>
       <r>  -12.8745    1.0000 </r>
       <r>  -12.8160    1.0000 </r>
       <r>  -12.8071    1.0000 </r>
       <r>  -12.8071    1.0000 </r>
       <r>   -7.8280    1.0000 </r>
       <r>   -7.4026    1.0000 </r>
       <r>   -7.4026    1.0000 </r>
       <r>   -1.5693    1.0000 </r>
       <r>    4.1247    1.0000 </r>
       <r>    4.7369    1.0000 </r>
       <r>    4.7369    1.0000 </r>
       <r>    5.9043    1.0000 </r>
       <r>    5.9043    1.0000 </r>
       <r>    6.5011    1.0000 </r>
       <r>    8.6491    1.0000 </r>
       <r>    8.6491    1.0000 </r>
       <r>    9.9434    1.0000 </r>
       <r>   11.6236    0.0000 </r>
       <r>   11.6236    0.0000 </r>
       <r>   12.7506    0.0000 </r>
       <r>   12.7977    0.0000 </r>
       <r>   12.7977    0.0000 </r>
      </set>
      <set comment="kpoint 6">
       <r>  -29.2024    1.0000 </r>
       <r>  -12.8798    1.0000 </r>
       <r>  -12.8798    1.0000 </r>
       <r>  -12.8182    1.0000 </r>
       <r>  -12.8060    1.0000 </r>
       <r>  -12.8060    1.0000 </r>
       <r>   -7.9089    1.0000 </r>
       <r>   -7.3844    1.0000 </r>
       <r>   -7.3844    1.0000 </r>
       <r>   -1.2632    1.0000 </r>
       <r>    3.8076    1.0000 </r>
       <r>    4.7048    1.0000 </r>
       <r>    4.7048    1.0000 </r>
       <r>    5.7532    1.0000 </r>
       <r>    5.7532    1.0000 </r>
       <r>    6.2480    1.0000 </r>
       <r>    8.6680    1.0000 </r>
       <r>    8.6680    1.0000 </r>
       <r>   10.1170    1.0000 </r>
       <r>   11.8869    0.0000 </r>
       <r>   11.8869    0.0000 </r>
       <r>   12.7653    0.0000 </r>
       <r>   12.7653    0.0000 </r>
       <r>   12.8684    0.0000 </r>
      </set>
      <set comment="kpoint 7">
       <r>  -29.2008    1.0000 </r>
       <r>  -12.8828    1.0000 </r>
       <r>  -12.8828    1.0000 </r>
       <r>  -12.8195    1.0000 </r>
       <r>  -12.8054    1.0000 </r>
       <r>  -12.8054    1.0000 </r>
       <r>   -7.9509    1.0000 </r>
       <r>   -7.3742    1.0000 </r>
       <r>   -7.3742    1.0000 </r>
       <r>   -1.0950    1.0000 </r>
       <r>    3.6447    1.0000 </r>
       <r>    4.7093    1.0000 </r>
       <r>    4.7093    1.0000 </r>
       <r>    5.6377    1.0000 </r>
       <r>    5.6377    1.0000 </r>
       <r>    6.1324    1.0000 </r>
       <r>    8.6919    1.0000 </r>
       <r>    8.6919    1.0000 </r>
       <r>   10.2972    1.0000 </r>
       <r>   12.0368    0.0000 </r>
       <r>   12.0368    0.0000 </r>
       <r>   12.6365    0.0000 </r>
       <r>   12.7429    0.0000 </r>
       <r>   12.7429    0.0000 </r>
      </set>
      <set comment="kpoint 8">
       <r>  -29.2138    1.0000 </r>
       <r>  -12.8606    1.0000 </r>
       <r>  -12.8557    1.0000 </r>
       <r>  -12.8111    1.0000 </r>
       <r>  -12.8100    1.0000 </r>
       <r>  -12.8100    1.0000 </r>
       <r>   -7.4960    1.0000 </r>
       <r>   -7.4685    1.0000 </r>
       <r>   -7.4685    1.0000 </r>
       <r>   -2.5592    1.0000 </r>
       <r>    4.9520    1.0000 </r>
       <r>    5.5098    1.0000 </r>
       <r>    5.5098    1.0000 </r>
       <r>    5.5428    1.0000 </r>
       <r>    5.8225    1.0000 </r>
       <r>    8.2832    1.0000 </r>
       <r>    8.8525    1.0000 </r>
       <r>    8.8525    1.0000 </r>
       <r>   10.0376    1.0000 </r>
       <r>   10.4009    0.9997 </r>
       <r>   10.9118    0.0000 </r>
       <r>   10.9118    0.0000 </r>
       <r>   11.9576    0.0000 </r>
       <r>   12.8011    0.0000 </r>
      </set>
      <set comment="kpoint 9">
       <r>  -29.2120    1.0000 </r>
       <r>  -12.8654    1.0000 </r>
       <r>  -12.8568    1.0000 </r>
       <r>  -12.8121    1.0000 </r>
       <r>  -12.8094    1.0000 </r>
       <r>  -12.8093    1.0000 </r>
       <r>   -7.5667    1.0000 </r>
       <r>   -7.4654    1.0000 </r>
       <r>   -7.4534    1.0000 </r>
       <r>   -2.3546    1.0000 </r>
       <r>    4.6335    1.0000 </r>
       <r>    5.3001    1.0000 </r>
       <r>    5.3411    1.0000 </r>
       <r>    5.7487    1.0000 </r>
       <r>    5.9651    1.0000 </r>
       <r>    7.7469    1.0000 </r>
       <r>    8.6761    1.0000 </r>
       <r>    8.6855    1.0000 </r>
       <r>   10.2366    1.0000 </r>
       <r>   10.4896    0.0000 </r>
       <r>   11.1928    0.0000 </r>
       <r>   11.3946    0.0000 </r>
       <r>   12.3728    0.0000 </r>
       <r>   12.7662    0.0000 </r>
      </set>
      <set comment="kpoint 10">
       <r>  -29.2091    1.0000 </r>
       <r>  -12.8711    1.0000 </r>
       <r>  -12.8608    1.0000 </r>
       <r>  -12.8135    1.0000 </r>
       <r>  -12.8087    1.0000 </r>
       <r>  -12.8082    1.0000 </r>
       <r>   -7.6763    1.0000 </r>
       <r>   -7.4521    1.0000 </r>
       <r>   -7.4300    1.0000 </r>
       <r>   -2.0331    1.0000 </r>
       <r>    4.3444    1.0000 </r>
       <r>    5.0227    1.0000 </r>
       <r>    5.1169    1.0000 </r>
       <r>    5.8430    1.0000 </r>
       <r>    6.0721    1.0000 </r>
       <r>    7.1650    1.0000 </r>
       <r>    8.5291    1.0000 </r>
       <r>    8.5708    1.0000 </r>
       <r>   10.1525    1.0000 </r>
       <r>   10.9116    0.0000 </r>
       <r>   11.4814    0.0000 </r>
       <r>   12.0677    0.0000 </r>
       <r>   12.7386    0.0000 </r>
       <r>   12.8200    0.0000 </r>
      </set>
      <set comment="kpoint 11">
       <r>  -29.2058    1.0000 </r>
       <r>  -12.8764    1.0000 </r>
       <r>  -12.8669    1.0000 </r>
       <r>  -12.8153    1.0000 </r>
       <r>  -12.8078    1.0000 </r>
       <r>  -12.8069    1.0000 </r>
       <r>   -7.7867    1.0000 </r>
       <r>   -7.4317    1.0000 </r>
       <r>   -7.4088    1.0000 </r>
       <r>   -1.6777    1.0000 </r>
       <r>    4.0860    1.0000 </r>
       <r>    4.7572    1.0000 </r>
       <r>    4.9853    1.0000 </r>
       <r>    5.7981    1.0000 </r>
       <r>    6.0600    1.0000 </r>
       <r>    6.6949    1.0000 </r>
       <r>    8.4611    1.0000 </r>
       <r>    8.5649    1.0000 </r>
       <r>   10.1063    1.0000 </r>
       <r>   11.3642    0.0000 </r>
       <r>   11.7472    0.0000 </r>
       <r>   12.5834    0.0000 </r>
       <r>   12.7223    0.0000 </r>
       <r>   12.8599    0.0000 </r>
      </set>
      <set comment="kpoint 12">
       <r>  -29.2028    1.0000 </r>
       <r>  -12.8801    1.0000 </r>
       <r>  -12.8734    1.0000 </r>
       <r>  -12.8173    1.0000 </r>
       <r>  -12.8068    1.0000 </r>
       <r>  -12.8058    1.0000 </r>
       <r>   -7.8744    1.0000 </r>
       <r>   -7.4089    1.0000 </r>
       <r>   -7.3946    1.0000 </r>
       <r>   -1.3722    1.0000 </r>
       <r>    3.8725    1.0000 </r>
       <r>    4.6346    1.0000 </r>
       <r>    4.8910    1.0000 </r>
       <r>    5.6892    1.0000 </r>
       <r>    5.9443    1.0000 </r>
       <r>    6.3705    1.0000 </r>
       <r>    8.4747    1.0000 </r>
       <r>    8.6097    1.0000 </r>
       <r>   10.1691    1.0000 </r>
       <r>   11.7325    0.0000 </r>
       <r>   11.9629    0.0000 </r>
       <r>   12.6976    0.0000 </r>
       <r>   12.7147    0.0000 </r>
       <r>   12.9329    0.0000 </r>
      </set>
      <set comment="kpoint 13">
       <r>  -29.2008    1.0000 </r>
       <r>  -12.8814    1.0000 </r>
       <r>  -12.8790    1.0000 </r>
       <r>  -12.8187    1.0000 </r>
       <r>  -12.8061    1.0000 </r>
       <r>  -12.8052    1.0000 </r>
       <r>   -7.9270    1.0000 </r>
       <r>   -7.3904    1.0000 </r>
       <r>   -7.3887    1.0000 </r>
       <r>   -1.1786    1.0000 </r>
       <r>    3.7398    1.0000 </r>
       <r>    4.6444    1.0000 </r>
       <r>    4.7951    1.0000 </r>
       <r>    5.6318    1.0000 </r>
       <r>    5.7882    1.0000 </r>
       <r>    6.1944    1.0000 </r>
       <r>    8.5149    1.0000 </r>
       <r>    8.6461    1.0000 </r>
       <r>   10.3149    1.0000 </r>
       <r>   11.9172    0.0000 </r>
       <r>   12.0879    0.0000 </r>
       <r>   12.6466    0.0000 </r>
       <r>   12.7089    0.0000 </r>
       <r>   12.8728    0.0000 </r>
      </set>
      <set comment="kpoint 14">
       <r>  -29.2003    1.0000 </r>
       <r>  -12.8824    1.0000 </r>
       <r>  -12.8800    1.0000 </r>
       <r>  -12.8191    1.0000 </r>
       <r>  -12.8058    1.0000 </r>
       <r>  -12.8052    1.0000 </r>
       <r>   -7.9402    1.0000 </r>
       <r>   -7.3969    1.0000 </r>
       <r>   -7.3759    1.0000 </r>
       <r>   -1.1263    1.0000 </r>
       <r>    3.7047    1.0000 </r>
       <r>    4.6805    1.0000 </r>
       <r>    4.7350    1.0000 </r>
       <r>    5.6684    1.0000 </r>
       <r>    5.6920    1.0000 </r>
       <r>    6.1542    1.0000 </r>
       <r>    8.5279    1.0000 </r>
       <r>    8.6502    1.0000 </r>
       <r>   10.3927    1.0000 </r>
       <r>   11.9417    0.0000 </r>
       <r>   12.0806    0.0000 </r>
       <r>   12.6444    0.0000 </r>
       <r>   12.7107    0.0000 </r>
       <r>   12.8073    0.0000 </r>
      </set>
      <set comment="kpoint 15">
       <r>  -29.2014    1.0000 </r>
       <r>  -12.8828    1.0000 </r>
       <r>  -12.8762    1.0000 </r>
       <r>  -12.8182    1.0000 </r>
       <r>  -12.8060    1.0000 </r>
       <r>  -12.8057    1.0000 </r>
       <r>   -7.9132    1.0000 </r>
       <r>   -7.4124    1.0000 </r>
       <r>   -7.3731    1.0000 </r>
       <r>   -1.2220    1.0000 </r>
       <r>    3.7751    1.0000 </r>
       <r>    4.5843    1.0000 </r>
       <r>    4.8520    1.0000 </r>
       <r>    5.6448    1.0000 </r>
       <r>    5.8432    1.0000 </r>
       <r>    6.2415    1.0000 </r>
       <r>    8.4843    1.0000 </r>
       <r>    8.6331    1.0000 </r>
       <r>   10.2941    1.0000 </r>
       <r>   11.9197    0.0000 </r>
       <r>   11.9878    0.0000 </r>
       <r>   12.6673    0.0000 </r>
       <r>   12.7287    0.0000 </r>
       <r>   12.9094    0.0000 </r>
      </set>
      <set comment="kpoint 16">
       <r>  -29.2038    1.0000 </r>
       <r>  -12.8802    1.0000 </r>
       <r>  -12.8708    1.0000 </r>
       <r>  -12.8164    1.0000 </r>
       <r>  -12.8068    1.0000 </r>
       <r>  -12.8067    1.0000 </r>
       <r>   -7.8483    1.0000 </r>
       <r>   -7.4330    1.0000 </r>
       <r>   -7.3813    1.0000 </r>
       <r>   -1.4555    1.0000 </r>
       <r>    3.9646    1.0000 </r>
       <r>    4.5508    1.0000 </r>
       <r>    4.9744    1.0000 </r>
       <r>    5.7158    1.0000 </r>
       <r>    6.0142    1.0000 </r>
       <r>    6.4633    1.0000 </r>
       <r>    8.3911    1.0000 </r>
       <r>    8.6309    1.0000 </r>
       <r>   10.1766    1.0000 </r>
       <r>   11.6319    0.0000 </r>
       <r>   11.8734    0.0000 </r>
       <r>   12.6670    0.0000 </r>
       <r>   12.7550    0.0000 </r>
       <r>   12.9146    0.0000 </r>
      </set>
      <set comment="kpoint 17">
       <r>  -29.2069    1.0000 </r>
       <r>  -12.8752    1.0000 </r>
       <r>  -12.8651    1.0000 </r>
       <r>  -12.8144    1.0000 </r>
       <r>  -12.8080    1.0000 </r>
       <r>  -12.8077    1.0000 </r>
       <r>   -7.7524    1.0000 </r>
       <r>   -7.4538    1.0000 </r>
       <r>   -7.3985    1.0000 </r>
       <r>   -1.7867    1.0000 </r>
       <r>    4.2678    1.0000 </r>
       <r>    4.6032    1.0000 </r>
       <r>    5.1298    1.0000 </r>
       <r>    5.7950    1.0000 </r>
       <r>    6.1240    1.0000 </r>
       <r>    6.8332    1.0000 </r>
       <r>    8.3044    1.0000 </r>
       <r>    8.6908    1.0000 </r>
       <r>   10.1436    1.0000 </r>
       <r>   11.2824    0.0000 </r>
       <r>   11.5767    0.0000 </r>
       <r>   12.4596    0.0000 </r>
       <r>   12.7812    0.0000 </r>
       <r>   12.8193    0.0000 </r>
      </set>
      <set comment="kpoint 18">
       <r>  -29.2102    1.0000 </r>
       <r>  -12.8688    1.0000 </r>
       <r>  -12.8603    1.0000 </r>
       <r>  -12.8127    1.0000 </r>
       <r>  -12.8091    1.0000 </r>
       <r>  -12.8087    1.0000 </r>
       <r>   -7.6425    1.0000 </r>
       <r>   -7.4689    1.0000 </r>
       <r>   -7.4209    1.0000 </r>
       <r>   -2.1429    1.0000 </r>
       <r>    4.6352    1.0000 </r>
       <r>    4.7465    1.0000 </r>
       <r>    5.3404    1.0000 </r>
       <r>    5.7748    1.0000 </r>
       <r>    6.1130    1.0000 </r>
       <r>    7.3408    1.0000 </r>
       <r>    8.3271    1.0000 </r>
       <r>    8.8294    1.0000 </r>
       <r>   10.1854    1.0000 </r>
       <r>   10.9495    0.0000 </r>
       <r>   11.1196    0.0000 </r>
       <r>   11.9382    0.0000 </r>
       <r>   12.6958    0.0000 </r>
       <r>   12.8165    0.0000 </r>
      </set>
      <set comment="kpoint 19">
       <r>  -29.2127    1.0000 </r>
       <r>  -12.8626    1.0000 </r>
       <r>  -12.8577    1.0000 </r>
       <r>  -12.8115    1.0000 </r>
       <r>  -12.8099    1.0000 </r>
       <r>  -12.8096    1.0000 </r>
       <r>   -7.5484    1.0000 </r>
       <r>   -7.4717    1.0000 </r>
       <r>   -7.4433    1.0000 </r>
       <r>   -2.4365    1.0000 </r>
       <r>    4.9693    1.0000 </r>
       <r>    4.9985    1.0000 </r>
       <r>    5.5190    1.0000 </r>
       <r>    5.6630    1.0000 </r>
       <r>    5.9792    1.0000 </r>
       <r>    7.8857    1.0000 </r>
       <r>    8.5846    1.0000 </r>
       <r>    8.9752    1.0000 </r>
       <r>   10.1140    1.0000 </r>
       <r>   10.6997    0.0000 </r>
       <r>   10.7269    0.0000 </r>
       <r>   11.3420    0.0000 </r>
       <r>   12.2358    0.0000 </r>
       <r>   12.8323    0.0000 </r>
      </set>
      <set comment="kpoint 20">
       <r>  -29.2108    1.0000 </r>
       <r>  -12.8695    1.0000 </r>
       <r>  -12.8542    1.0000 </r>
       <r>  -12.8131    1.0000 </r>
       <r>  -12.8087    1.0000 </r>
       <r>  -12.8087    1.0000 </r>
       <r>   -7.5699    1.0000 </r>
       <r>   -7.4757    1.0000 </r>
       <r>   -7.4757    1.0000 </r>
       <r>   -2.2398    1.0000 </r>
       <r>    4.2912    1.0000 </r>
       <r>    5.5180    1.0000 </r>
       <r>    5.5180    1.0000 </r>
       <r>    5.5918    1.0000 </r>
       <r>    5.8715    1.0000 </r>
       <r>    7.7299    1.0000 </r>
       <r>    8.5162    1.0000 </r>
       <r>    8.5162    1.0000 </r>
       <r>   10.0319    1.0000 </r>
       <r>   10.8848    0.0000 </r>
       <r>   11.4613    0.0000 </r>
       <r>   11.4613    0.0000 </r>
       <r>   12.5119    0.0000 </r>
       <r>   12.6880    0.0000 </r>
      </set>
      <set comment="kpoint 21">
       <r>  -29.2085    1.0000 </r>
       <r>  -12.8732    1.0000 </r>
       <r>  -12.8550    1.0000 </r>
       <r>  -12.8145    1.0000 </r>
       <r>  -12.8079    1.0000 </r>
       <r>  -12.8076    1.0000 </r>
       <r>   -7.6445    1.0000 </r>
       <r>   -7.4743    1.0000 </r>
       <r>   -7.4631    1.0000 </r>
       <r>   -2.0152    1.0000 </r>
       <r>    4.0357    1.0000 </r>
       <r>    5.3148    1.0000 </r>
       <r>    5.3772    1.0000 </r>
       <r>    5.7075    1.0000 </r>
       <r>    5.9457    1.0000 </r>
       <r>    7.4285    1.0000 </r>
       <r>    8.3328    1.0000 </r>
       <r>    8.4339    1.0000 </r>
       <r>   10.1457    1.0000 </r>
       <r>   10.9933    0.0000 </r>
       <r>   11.7094    0.0000 </r>
       <r>   11.9348    0.0000 </r>
       <r>   12.6255    0.0000 </r>
       <r>   12.7876    0.0000 </r>
      </set>
      <set comment="kpoint 22">
       <r>  -29.2055    1.0000 </r>
       <r>  -12.8758    1.0000 </r>
       <r>  -12.8590    1.0000 </r>
       <r>  -12.8158    1.0000 </r>
       <r>  -12.8073    1.0000 </r>
       <r>  -12.8063    1.0000 </r>
       <r>   -7.7403    1.0000 </r>
       <r>   -7.4616    1.0000 </r>
       <r>   -7.4441    1.0000 </r>
       <r>   -1.7493    1.0000 </r>
       <r>    3.8981    1.0000 </r>
       <r>    4.9971    1.0000 </r>
       <r>    5.2348    1.0000 </r>
       <r>    5.7177    1.0000 </r>
       <r>    6.0311    1.0000 </r>
       <r>    7.0301    1.0000 </r>
       <r>    8.1749    1.0000 </r>
       <r>    8.4537    1.0000 </r>
       <r>   10.2758    1.0000 </r>
       <r>   11.2423    0.0000 </r>
       <r>   11.9179    0.0000 </r>
       <r>   12.4172    0.0000 </r>
       <r>   12.5994    0.0000 </r>
       <r>   12.8987    0.0000 </r>
      </set>
      <set comment="kpoint 23">
       <r>  -29.2027    1.0000 </r>
       <r>  -12.8768    1.0000 </r>
       <r>  -12.8651    1.0000 </r>
       <r>  -12.8169    1.0000 </r>
       <r>  -12.8071    1.0000 </r>
       <r>  -12.8052    1.0000 </r>
       <r>   -7.8228    1.0000 </r>
       <r>   -7.4407    1.0000 </r>
       <r>   -7.4346    1.0000 </r>
       <r>   -1.5113    1.0000 </r>
       <r>    3.8779    1.0000 </r>
       <r>    4.7547    1.0000 </r>
       <r>    5.0907    1.0000 </r>
       <r>    5.6710    1.0000 </r>
       <r>    6.0283    1.0000 </r>
       <r>    6.6528    1.0000 </r>
       <r>    8.1294    1.0000 </r>
       <r>    8.5180    1.0000 </r>
       <r>   10.2884    1.0000 </r>
       <r>   11.6397    0.0000 </r>
       <r>   12.0845    0.0000 </r>
       <r>   12.6138    0.0000 </r>
       <r>   12.6143    0.0000 </r>
       <r>   12.9578    0.0000 </r>
      </set>
      <set comment="kpoint 24">
       <r>  -29.2005    1.0000 </r>
       <r>  -12.8759    1.0000 </r>
       <r>  -12.8720    1.0000 </r>
       <r>  -12.8177    1.0000 </r>
       <r>  -12.8070    1.0000 </r>
       <r>  -12.8045    1.0000 </r>
       <r>   -7.8768    1.0000 </r>
       <r>   -7.4380    1.0000 </r>
       <r>   -7.4161    1.0000 </r>
       <r>   -1.3454    1.0000 </r>
       <r>    3.9207    1.0000 </r>
       <r>    4.6527    1.0000 </r>
       <r>    4.9111    1.0000 </r>
       <r>    5.6784    1.0000 </r>
       <r>    5.9435    1.0000 </r>
       <r>    6.3857    1.0000 </r>
       <r>    8.1471    1.0000 </r>
       <r>    8.5580    1.0000 </r>
       <r>   10.3638    1.0000 </r>
       <r>   11.8219    0.0000 </r>
       <r>   12.1909    0.0000 </r>
       <r>   12.6246    0.0000 </r>
       <r>   12.6412    0.0000 </r>
       <r>   12.9716    0.0000 </r>
      </set>
      <set comment="kpoint 25">
       <r>  -29.1996    1.0000 </r>
       <r>  -12.8780    1.0000 </r>
       <r>  -12.8735    1.0000 </r>
       <r>  -12.8177    1.0000 </r>
       <r>  -12.8070    1.0000 </r>
       <r>  -12.8045    1.0000 </r>
       <r>   -7.8970    1.0000 </r>
       <r>   -7.4526    1.0000 </r>
       <r>   -7.3934    1.0000 </r>
       <r>   -1.2655    1.0000 </r>
       <r>    3.9411    1.0000 </r>
       <r>    4.7026    1.0000 </r>
       <r>    4.7141    1.0000 </r>
       <r>    5.7773    1.0000 </r>
       <r>    5.8167    1.0000 </r>
       <r>    6.2841    1.0000 </r>
       <r>    8.1549    1.0000 </r>
       <r>    8.5526    1.0000 </r>
       <r>   10.4972    0.0000 </r>
       <r>   11.7376    0.0000 </r>
       <r>   12.1981    0.0000 </r>
       <r>   12.6586    0.0000 </r>
       <r>   12.6992    0.0000 </r>
       <r>   12.9111    0.0000 </r>
      </set>
      <set comment="kpoint 26">
       <r>  -29.2001    1.0000 </r>
       <r>  -12.8819    1.0000 </r>
       <r>  -12.8700    1.0000 </r>
       <r>  -12.8170    1.0000 </r>
       <r>  -12.8072    1.0000 </r>
       <r>  -12.8050    1.0000 </r>
       <r>   -7.8837    1.0000 </r>
       <r>   -7.4733    1.0000 </r>
       <r>   -7.3778    1.0000 </r>
       <r>   -1.2761    1.0000 </r>
       <r>    3.9204    1.0000 </r>
       <r>    4.5494    1.0000 </r>
       <r>    4.8558    1.0000 </r>
       <r>    5.7115    1.0000 </r>
       <r>    5.9377    1.0000 </r>
       <r>    6.3538    1.0000 </r>
       <r>    8.0956    1.0000 </r>
       <r>    8.5247    1.0000 </r>
       <r>   10.5425    0.0000 </r>
       <r>   11.7859    0.0000 </r>
       <r>   12.0616    0.0000 </r>
       <r>   12.6761    0.0000 </r>
       <r>   12.7152    0.0000 </r>
       <r>   12.9292    0.0000 </r>
      </set>
      <set comment="kpoint 27">
       <r>  -29.2019    1.0000 </r>
       <r>  -12.8827    1.0000 </r>
       <r>  -12.8661    1.0000 </r>
       <r>  -12.8158    1.0000 </r>
       <r>  -12.8074    1.0000 </r>
       <r>  -12.8060    1.0000 </r>
       <r>   -7.8405    1.0000 </r>
       <r>   -7.4928    1.0000 </r>
       <r>   -7.3727    1.0000 </r>
       <r>   -1.3877    1.0000 </r>
       <r>    3.9252    1.0000 </r>
       <r>    4.4556    1.0000 </r>
       <r>    5.0574    1.0000 </r>
       <r>    5.6653    1.0000 </r>
       <r>    6.1042    1.0000 </r>
       <r>    6.5681    1.0000 </r>
       <r>    7.9579    1.0000 </r>
       <r>    8.5197    1.0000 </r>
       <r>   10.5213    0.0000 </r>
       <r>   11.7891    0.0000 </r>
       <r>   11.8780    0.0000 </r>
       <r>   12.6675    0.0000 </r>
       <r>   12.7015    0.0000 </r>
       <r>   12.9845    0.0000 </r>
      </set>
      <set comment="kpoint 28">
       <r>  -29.2046    1.0000 </r>
       <r>  -12.8804    1.0000 </r>
       <r>  -12.8627    1.0000 </r>
       <r>  -12.8146    1.0000 </r>
       <r>  -12.8077    1.0000 </r>
       <r>  -12.8072    1.0000 </r>
       <r>   -7.7751    1.0000 </r>
       <r>   -7.5029    1.0000 </r>
       <r>   -7.3797    1.0000 </r>
       <r>   -1.6006    1.0000 </r>
       <r>    4.0376    1.0000 </r>
       <r>    4.4546    1.0000 </r>
       <r>    5.2768    1.0000 </r>
       <r>    5.6540    1.0000 </r>
       <r>    6.2115    1.0000 </r>
       <r>    6.8924    1.0000 </r>
       <r>    7.8048    1.0000 </r>
       <r>    8.5824    1.0000 </r>
       <r>   10.5281    0.0000 </r>
       <r>   11.4491    0.0000 </r>
       <r>   11.7285    0.0000 </r>
       <r>   12.5878    0.0000 </r>
       <r>   12.7310    0.0000 </r>
       <r>   12.9419    0.0000 </r>
      </set>
      <set comment="kpoint 29">
       <r>  -29.2076    1.0000 </r>
       <r>  -12.8754    1.0000 </r>
       <r>  -12.8606    1.0000 </r>
       <r>  -12.8136    1.0000 </r>
       <r>  -12.8083    1.0000 </r>
       <r>  -12.8081    1.0000 </r>
       <r>   -7.7028    1.0000 </r>
       <r>   -7.4952    1.0000 </r>
       <r>   -7.3971    1.0000 </r>
       <r>   -1.8768    1.0000 </r>
       <r>    4.2871    1.0000 </r>
       <r>    4.5539    1.0000 </r>
       <r>    5.4737    1.0000 </r>
       <r>    5.6193    1.0000 </r>
       <r>    6.2138    1.0000 </r>
       <r>    7.2032    1.0000 </r>
       <r>    7.8524    1.0000 </r>
       <r>    8.7136    1.0000 </r>
       <r>   10.4962    0.0000 </r>
       <r>   11.1338    0.0000 </r>
       <r>   11.3636    0.0000 </r>
       <r>   12.3624    0.0000 </r>
       <r>   12.7646    0.0000 </r>
       <r>   12.8074    0.0000 </r>
      </set>
      <set comment="kpoint 30">
       <r>  -29.2068    1.0000 </r>
       <r>  -12.8739    1.0000 </r>
       <r>  -12.8520    1.0000 </r>
       <r>  -12.8161    1.0000 </r>
       <r>  -12.8066    1.0000 </r>
       <r>  -12.8066    1.0000 </r>
       <r>   -7.6560    1.0000 </r>
       <r>   -7.4863    1.0000 </r>
       <r>   -7.4863    1.0000 </r>
       <r>   -1.9166    1.0000 </r>
       <r>    3.8465    1.0000 </r>
       <r>    5.4757    1.0000 </r>
       <r>    5.4757    1.0000 </r>
       <r>    5.6635    1.0000 </r>
       <r>    5.7129    1.0000 </r>
       <r>    7.4289    1.0000 </r>
       <r>    8.3706    1.0000 </r>
       <r>    8.3706    1.0000 </r>
       <r>    9.8877    1.0000 </r>
       <r>   11.4001    0.0000 </r>
       <r>   11.9106    0.0000 </r>
       <r>   11.9106    0.0000 </r>
       <r>   12.5171    0.0000 </r>
       <r>   12.8705    0.0000 </r>
      </set>
      <set comment="kpoint 31">
       <r>  -29.2044    1.0000 </r>
       <r>  -12.8729    1.0000 </r>
       <r>  -12.8527    1.0000 </r>
       <r>  -12.8175    1.0000 </r>
       <r>  -12.8057    1.0000 </r>
       <r>  -12.8054    1.0000 </r>
       <r>   -7.7149    1.0000 </r>
       <r>   -7.4855    1.0000 </r>
       <r>   -7.4826    1.0000 </r>
       <r>   -1.7814    1.0000 </r>
       <r>    3.8169    1.0000 </r>
       <r>    5.2202    1.0000 </r>
       <r>    5.3800    1.0000 </r>
       <r>    5.7018    1.0000 </r>
       <r>    5.7866    1.0000 </r>
       <r>    7.2470    1.0000 </r>
       <r>    8.2290    1.0000 </r>
       <r>    8.4087    1.0000 </r>
       <r>   10.0526    1.0000 </r>
       <r>   11.4801    0.0000 </r>
       <r>   12.0673    0.0000 </r>
       <r>   12.2420    0.0000 </r>
       <r>   12.4548    0.0000 </r>
       <r>   12.9399    0.0000 </r>
      </set>
      <set comment="kpoint 32">
       <r>  -29.2019    1.0000 </r>
       <r>  -12.8706    1.0000 </r>
       <r>  -12.8569    1.0000 </r>
       <r>  -12.8183    1.0000 </r>
       <r>  -12.8056    1.0000 </r>
       <r>  -12.8042    1.0000 </r>
       <r>   -7.7778    1.0000 </r>
       <r>   -7.4811    1.0000 </r>
       <r>   -7.4723    1.0000 </r>
       <r>   -1.6517    1.0000 </r>
       <r>    3.9412    1.0000 </r>
       <r>    4.9284    1.0000 </r>
       <r>    5.2271    1.0000 </r>
       <r>    5.7126    1.0000 </r>
       <r>    5.8957    1.0000 </r>
       <r>    6.9665    1.0000 </r>
       <r>    8.0208    1.0000 </r>
       <r>    8.4850    1.0000 </r>
       <r>   10.2525    1.0000 </r>
       <r>   11.6606    0.0000 </r>
       <r>   12.1899    0.0000 </r>
       <r>   12.4766    0.0000 </r>
       <r>   12.5174    0.0000 </r>
       <r>   12.9796    0.0000 </r>
      </set>
      <set comment="kpoint 33">
       <r>  -29.1998    1.0000 </r>
       <r>  -12.8675    1.0000 </r>
       <r>  -12.8634    1.0000 </r>
       <r>  -12.8182    1.0000 </r>
       <r>  -12.8063    1.0000 </r>
       <r>  -12.8035    1.0000 </r>
       <r>   -7.8200    1.0000 </r>
       <r>   -7.4951    1.0000 </r>
       <r>   -7.4497    1.0000 </r>
       <r>   -1.5475    1.0000 </r>
       <r>    4.1501    1.0000 </r>
       <r>    4.7450    1.0000 </r>
       <r>    5.0229    1.0000 </r>
       <r>    5.7580    1.0000 </r>
       <r>    5.9370    1.0000 </r>
       <r>    6.6727    1.0000 </r>
       <r>    7.8888    1.0000 </r>
       <r>    8.5167    1.0000 </r>
       <r>   10.3492    1.0000 </r>
       <r>   11.8104    0.0000 </r>
       <r>   12.2809    0.0000 </r>
       <r>   12.5562    0.0000 </r>
       <r>   12.5841    0.0000 </r>
       <r>   12.9935    0.0000 </r>
      </set>
      <set comment="kpoint 34">
       <r>  -29.1987    1.0000 </r>
       <r>  -12.8707    1.0000 </r>
       <r>  -12.8645    1.0000 </r>
       <r>  -12.8172    1.0000 </r>
       <r>  -12.8075    1.0000 </r>
       <r>  -12.8034    1.0000 </r>
       <r>   -7.8347    1.0000 </r>
       <r>   -7.5224    1.0000 </r>
       <r>   -7.4226    1.0000 </r>
       <r>   -1.4680    1.0000 </r>
       <r>    4.2983    1.0000 </r>
       <r>    4.6988    1.0000 </r>
       <r>    4.7978    1.0000 </r>
       <r>    5.8633    1.0000 </r>
       <r>    5.8916    1.0000 </r>
       <r>    6.5056    1.0000 </r>
       <r>    7.8022    1.0000 </r>
       <r>    8.4839    1.0000 </r>
       <r>   10.4904    0.0000 </r>
       <r>   11.6845    0.0000 </r>
       <r>   12.3180    0.0000 </r>
       <r>   12.6180    0.0000 </r>
       <r>   12.6620    0.0000 </r>
       <r>   12.9632    0.0000 </r>
      </set>
      <set comment="kpoint 35">
       <r>  -29.1988    1.0000 </r>
       <r>  -12.8772    1.0000 </r>
       <r>  -12.8624    1.0000 </r>
       <r>  -12.8154    1.0000 </r>
       <r>  -12.8088    1.0000 </r>
       <r>  -12.8040    1.0000 </r>
       <r>   -7.8263    1.0000 </r>
       <r>   -7.5518    1.0000 </r>
       <r>   -7.3971    1.0000 </r>
       <r>   -1.4130    1.0000 </r>
       <r>    4.2569    1.0000 </r>
       <r>    4.5973    1.0000 </r>
       <r>    4.7810    1.0000 </r>
       <r>    5.8002    1.0000 </r>
       <r>    6.0072    1.0000 </r>
       <r>    6.5529    1.0000 </r>
       <r>    7.7037    1.0000 </r>
       <r>    8.4259    1.0000 </r>
       <r>   10.6752    0.0000 </r>
       <r>   11.5730    0.0000 </r>
       <r>   12.2466    0.0000 </r>
       <r>   12.6387    0.0000 </r>
       <r>   12.7254    0.0000 </r>
       <r>   12.9449    0.0000 </r>
      </set>
      <set comment="kpoint 36">
       <r>  -29.2000    1.0000 </r>
       <r>  -12.8815    1.0000 </r>
       <r>  -12.8613    1.0000 </r>
       <r>  -12.8141    1.0000 </r>
       <r>  -12.8093    1.0000 </r>
       <r>  -12.8050    1.0000 </r>
       <r>   -7.8069    1.0000 </r>
       <r>   -7.5656    1.0000 </r>
       <r>   -7.3790    1.0000 </r>
       <r>   -1.4000    1.0000 </r>
       <r>    4.0951    1.0000 </r>
       <r>    4.4584    1.0000 </r>
       <r>    4.9404    1.0000 </r>
       <r>    5.7287    1.0000 </r>
       <r>    6.1447    1.0000 </r>
       <r>    6.7566    1.0000 </r>
       <r>    7.5657    1.0000 </r>
       <r>    8.4023    1.0000 </r>
       <r>   10.7755    0.0000 </r>
       <r>   11.6365    0.0000 </r>
       <r>   12.0310    0.0000 </r>
       <r>   12.6593    0.0000 </r>
       <r>   12.7555    0.0000 </r>
       <r>   12.9631    0.0000 </r>
      </set>
      <set comment="kpoint 37">
       <r>  -29.2021    1.0000 </r>
       <r>  -12.8826    1.0000 </r>
       <r>  -12.8615    1.0000 </r>
       <r>  -12.8142    1.0000 </r>
       <r>  -12.8085    1.0000 </r>
       <r>  -12.8061    1.0000 </r>
       <r>   -7.7899    1.0000 </r>
       <r>   -7.5478    1.0000 </r>
       <r>   -7.3727    1.0000 </r>
       <r>   -1.4592    1.0000 </r>
       <r>    3.9829    1.0000 </r>
       <r>    4.4064    1.0000 </r>
       <r>    5.1388    1.0000 </r>
       <r>    5.6770    1.0000 </r>
       <r>    6.2224    1.0000 </r>
       <r>    6.9450    1.0000 </r>
       <r>    7.5056    1.0000 </r>
       <r>    8.4579    1.0000 </r>
       <r>   10.7416    0.0000 </r>
       <r>   11.7157    0.0000 </r>
       <r>   11.7325    0.0000 </r>
       <r>   12.6910    0.0000 </r>
       <r>   12.7078    0.0000 </r>
       <r>   13.0051    0.0000 </r>
      </set>
      <set comment="kpoint 38">
       <r>  -29.2026    1.0000 </r>
       <r>  -12.8682    1.0000 </r>
       <r>  -12.8497    1.0000 </r>
       <r>  -12.8193    1.0000 </r>
       <r>  -12.8042    1.0000 </r>
       <r>  -12.8042    1.0000 </r>
       <r>   -7.7310    1.0000 </r>
       <r>   -7.4981    1.0000 </r>
       <r>   -7.4981    1.0000 </r>
       <r>   -1.7861    1.0000 </r>
       <r>    3.9014    1.0000 </r>
       <r>    5.3699    1.0000 </r>
       <r>    5.3699    1.0000 </r>
       <r>    5.4723    1.0000 </r>
       <r>    5.7432    1.0000 </r>
       <r>    7.1893    1.0000 </r>
       <r>    8.4677    1.0000 </r>
       <r>    8.4677    1.0000 </r>
       <r>    9.8851    1.0000 </r>
       <r>   11.7412    0.0000 </r>
       <r>   12.1804    0.0000 </r>
       <r>   12.1804    0.0000 </r>
       <r>   12.3270    0.0000 </r>
       <r>   12.9783    0.0000 </r>
      </set>
      <set comment="kpoint 39">
       <r>  -29.2007    1.0000 </r>
       <r>  -12.8627    1.0000 </r>
       <r>  -12.8506    1.0000 </r>
       <r>  -12.8204    1.0000 </r>
       <r>  -12.8035    1.0000 </r>
       <r>  -12.8031    1.0000 </r>
       <r>   -7.7667    1.0000 </r>
       <r>   -7.5048    1.0000 </r>
       <r>   -7.4967    1.0000 </r>
       <r>   -1.7726    1.0000 </r>
       <r>    4.1373    1.0000 </r>
       <r>    5.0912    1.0000 </r>
       <r>    5.2719    1.0000 </r>
       <r>    5.5934    1.0000 </r>
       <r>    5.7752    1.0000 </r>
       <r>    7.0018    1.0000 </r>
       <r>    8.3673    1.0000 </r>
       <r>    8.5652    1.0000 </r>
       <r>   10.0634    1.0000 </r>
       <r>   11.8268    0.0000 </r>
       <r>   12.2560    0.0000 </r>
       <r>   12.3112    0.0000 </r>
       <r>   12.3811    0.0000 </r>
       <r>   13.0086    0.0000 </r>
      </set>
      <set comment="kpoint 40">
       <r>  -29.1990    1.0000 </r>
       <r>  -12.8579    1.0000 </r>
       <r>  -12.8551    1.0000 </r>
       <r>  -12.8204    1.0000 </r>
       <r>  -12.8040    1.0000 </r>
       <r>  -12.8024    1.0000 </r>
       <r>   -7.7889    1.0000 </r>
       <r>   -7.5276    1.0000 </r>
       <r>   -7.4816    1.0000 </r>
       <r>   -1.7388    1.0000 </r>
       <r>    4.4412    1.0000 </r>
       <r>    4.8740    1.0000 </r>
       <r>    5.1102    1.0000 </r>
       <r>    5.7438    1.0000 </r>
       <r>    5.8238    1.0000 </r>
       <r>    6.7531    1.0000 </r>
       <r>    8.0802    1.0000 </r>
       <r>    8.5932    1.0000 </r>
       <r>   10.2453    1.0000 </r>
       <r>   11.9047    0.0000 </r>
       <r>   12.3164    0.0000 </r>
       <r>   12.4336    0.0000 </r>
       <r>   12.5117    0.0000 </r>
       <r>   12.9885    0.0000 </r>
      </set>
      <set comment="kpoint 41">
       <r>  -29.1980    1.0000 </r>
       <r>  -12.8620    1.0000 </r>
       <r>  -12.8551    1.0000 </r>
       <r>  -12.8189    1.0000 </r>
       <r>  -12.8057    1.0000 </r>
       <r>  -12.8023    1.0000 </r>
       <r>   -7.7848    1.0000 </r>
       <r>   -7.5715    1.0000 </r>
       <r>   -7.4564    1.0000 </r>
       <r>   -1.6768    1.0000 </r>
       <r>    4.6077    1.0000 </r>
       <r>    4.8448    1.0000 </r>
       <r>    4.9100    1.0000 </r>
       <r>    5.8381    1.0000 </r>
       <r>    5.9119    1.0000 </r>
       <r>    6.5598    1.0000 </r>
       <r>    7.7852    1.0000 </r>
       <r>    8.5235    1.0000 </r>
       <r>   10.3766    1.0000 </r>
       <r>   11.8033    0.0000 </r>
       <r>   12.3691    0.0000 </r>
       <r>   12.5691    0.0000 </r>
       <r>   12.5806    0.0000 </r>
       <r>   12.9637    0.0000 </r>
      </set>
      <set comment="kpoint 42">
       <r>  -29.1978    1.0000 </r>
       <r>  -12.8698    1.0000 </r>
       <r>  -12.8549    1.0000 </r>
       <r>  -12.8162    1.0000 </r>
       <r>  -12.8082    1.0000 </r>
       <r>  -12.8028    1.0000 </r>
       <r>   -7.7616    1.0000 </r>
       <r>   -7.6214    1.0000 </r>
       <r>   -7.4264    1.0000 </r>
       <r>   -1.5850    1.0000 </r>
       <r>    4.6046    1.0000 </r>
       <r>    4.7110    1.0000 </r>
       <r>    4.8248    1.0000 </r>
       <r>    5.8274    1.0000 </r>
       <r>    6.0222    1.0000 </r>
       <r>    6.6076    1.0000 </r>
       <r>    7.5402    1.0000 </r>
       <r>    8.4191    1.0000 </r>
       <r>   10.5713    0.0000 </r>
       <r>   11.6251    0.0000 </r>
       <r>   12.3737    0.0000 </r>
       <r>   12.6179    0.0000 </r>
       <r>   12.6366    0.0000 </r>
       <r>   12.9584    0.0000 </r>
      </set>
      <set comment="kpoint 43">
       <r>  -29.1985    1.0000 </r>
       <r>  -12.8768    1.0000 </r>
       <r>  -12.8573    1.0000 </r>
       <r>  -12.8133    1.0000 </r>
       <r>  -12.8106    1.0000 </r>
       <r>  -12.8038    1.0000 </r>
       <r>   -7.7648    1.0000 </r>
       <r>   -7.6249    1.0000 </r>
       <r>   -7.3985    1.0000 </r>
       <r>   -1.4800    1.0000 </r>
       <r>    4.4054    1.0000 </r>
       <r>    4.5505    1.0000 </r>
       <r>    4.8158    1.0000 </r>
       <r>    5.7834    1.0000 </r>
       <r>    6.1136    1.0000 </r>
       <r>    6.7930    1.0000 </r>
       <r>    7.4016    1.0000 </r>
       <r>    8.3623    1.0000 </r>
       <r>   10.7812    0.0000 </r>
       <r>   11.5271    0.0000 </r>
       <r>   12.2602    0.0000 </r>
       <r>   12.6359    0.0000 </r>
       <r>   12.6939    0.0000 </r>
       <r>   12.9414    0.0000 </r>
      </set>
      <set comment="kpoint 44">
       <r>  -29.1994    1.0000 </r>
       <r>  -12.8551    1.0000 </r>
       <r>  -12.8478    1.0000 </r>
       <r>  -12.8220    1.0000 </r>
       <r>  -12.8020    1.0000 </r>
       <r>  -12.8020    1.0000 </r>
       <r>   -7.7843    1.0000 </r>
       <r>   -7.5083    1.0000 </r>
       <r>   -7.5083    1.0000 </r>
       <r>   -1.8551    1.0000 </r>
       <r>    4.4560    1.0000 </r>
       <r>    5.2493    1.0000 </r>
       <r>    5.2493    1.0000 </r>
       <r>    5.2664    1.0000 </r>
       <r>    5.8124    1.0000 </r>
       <r>    6.8298    1.0000 </r>
       <r>    8.7068    1.0000 </r>
       <r>    8.7068    1.0000 </r>
       <r>    9.9781    1.0000 </r>
       <r>   11.9994    0.0000 </r>
       <r>   12.1647    0.0000 </r>
       <r>   12.3232    0.0000 </r>
       <r>   12.3232    0.0000 </r>
       <r>   12.9508    0.0000 </r>
      </set>
      <set comment="kpoint 45">
       <r>  -29.1982    1.0000 </r>
       <r>  -12.8495    1.0000 </r>
       <r>  -12.8491    1.0000 </r>
       <r>  -12.8225    1.0000 </r>
       <r>  -12.8018    1.0000 </r>
       <r>  -12.8014    1.0000 </r>
       <r>   -7.7970    1.0000 </r>
       <r>   -7.5225    1.0000 </r>
       <r>   -7.5049    1.0000 </r>
       <r>   -1.8828    1.0000 </r>
       <r>    4.7901    1.0000 </r>
       <r>    5.0324    1.0000 </r>
       <r>    5.1647    1.0000 </r>
       <r>    5.4458    1.0000 </r>
       <r>    5.8473    1.0000 </r>
       <r>    6.5711    1.0000 </r>
       <r>    8.5941    1.0000 </r>
       <r>    8.7694    1.0000 </r>
       <r>   10.1133    1.0000 </r>
       <r>   12.0700    0.0000 </r>
       <r>   12.1936    0.0000 </r>
       <r>   12.3794    0.0000 </r>
       <r>   12.4279    0.0000 </r>
       <r>   12.8779    0.0000 </r>
      </set>
      <set comment="kpoint 46">
       <r>  -29.1974    1.0000 </r>
       <r>  -12.8540    1.0000 </r>
       <r>  -12.8474    1.0000 </r>
       <r>  -12.8215    1.0000 </r>
       <r>  -12.8031    1.0000 </r>
       <r>  -12.8013    1.0000 </r>
       <r>   -7.7853    1.0000 </r>
       <r>   -7.5627    1.0000 </r>
       <r>   -7.4871    1.0000 </r>
       <r>   -1.8448    1.0000 </r>
       <r>    4.7469    1.0000 </r>
       <r>    5.0269    1.0000 </r>
       <r>    5.1930    1.0000 </r>
       <r>    5.6577    1.0000 </r>
       <r>    5.9075    1.0000 </r>
       <r>    6.3379    1.0000 </r>
       <r>    8.2042    1.0000 </r>
       <r>    8.6822    1.0000 </r>
       <r>   10.2367    1.0000 </r>
       <r>   12.0008    0.0000 </r>
       <r>   12.3293    0.0000 </r>
       <r>   12.4857    0.0000 </r>
       <r>   12.4887    0.0000 </r>
       <r>   12.9151    0.0000 </r>
      </set>
      <set comment="kpoint 47">
       <r>  -29.1973    1.0000 </r>
       <r>  -12.8615    1.0000 </r>
       <r>  -12.8494    1.0000 </r>
       <r>  -12.8191    1.0000 </r>
       <r>  -12.8056    1.0000 </r>
       <r>  -12.8018    1.0000 </r>
       <r>   -7.7533    1.0000 </r>
       <r>   -7.6180    1.0000 </r>
       <r>   -7.4589    1.0000 </r>
       <r>   -1.7406    1.0000 </r>
       <r>    4.6657    1.0000 </r>
       <r>    4.8645    1.0000 </r>
       <r>    5.1456    1.0000 </r>
       <r>    5.7927    1.0000 </r>
       <r>    5.9787    1.0000 </r>
       <r>    6.3913    1.0000 </r>
       <r>    7.7793    1.0000 </r>
       <r>    8.5255    1.0000 </r>
       <r>   10.3808    1.0000 </r>
       <r>   11.8154    0.0000 </r>
       <r>   12.3880    0.0000 </r>
       <r>   12.5316    0.0000 </r>
       <r>   12.6198    0.0000 </r>
       <r>   12.9423    0.0000 </r>
      </set>
      <set comment="kpoint 48">
       <r>  -29.1976    1.0000 </r>
       <r>  -12.8467    1.0000 </r>
       <r>  -12.8443    1.0000 </r>
       <r>  -12.8235    1.0000 </r>
       <r>  -12.8008    1.0000 </r>
       <r>  -12.8008    1.0000 </r>
       <r>   -7.8117    1.0000 </r>
       <r>   -7.5143    1.0000 </r>
       <r>   -7.5143    1.0000 </r>
       <r>   -1.9546    1.0000 </r>
       <r>    5.0965    1.0000 </r>
       <r>    5.1729    1.0000 </r>
       <r>    5.1729    1.0000 </r>
       <r>    5.2679    1.0000 </r>
       <r>    5.8528    1.0000 </r>
       <r>    6.2981    1.0000 </r>
       <r>    8.9071    1.0000 </r>
       <r>    8.9071    1.0000 </r>
       <r>   10.0765    1.0000 </r>
       <r>   12.0714    0.0000 </r>
       <r>   12.2053    0.0000 </r>
       <r>   12.3893    0.0000 </r>
       <r>   12.3893    0.0000 </r>
       <r>   12.6276    0.0000 </r>
      </set>
      <set comment="kpoint 49">
       <r>  -29.1973    1.0000 </r>
       <r>  -12.8485    1.0000 </r>
       <r>  -12.8435    1.0000 </r>
       <r>  -12.8232    1.0000 </r>
       <r>  -12.8012    1.0000 </r>
       <r>  -12.8007    1.0000 </r>
       <r>   -7.8069    1.0000 </r>
       <r>   -7.5293    1.0000 </r>
       <r>   -7.5079    1.0000 </r>
       <r>   -1.9420    1.0000 </r>
       <r>    4.9093    1.0000 </r>
       <r>    5.1232    1.0000 </r>
       <r>    5.3777    1.0000 </r>
       <r>    5.4490    1.0000 </r>
       <r>    5.8751    1.0000 </r>
       <r>    6.1442    1.0000 </r>
       <r>    8.7055    1.0000 </r>
       <r>    8.8631    1.0000 </r>
       <r>   10.1363    1.0000 </r>
       <r>   12.1629    0.0000 </r>
       <r>   12.1769    0.0000 </r>
       <r>   12.4155    0.0000 </r>
       <r>   12.4288    0.0000 </r>
       <r>   12.7414    0.0000 </r>
      </set>
      <set comment="kpoint 50">
       <r>  -29.2099    1.0000 </r>
       <r>  -12.8706    1.0000 </r>
       <r>  -12.8572    1.0000 </r>
       <r>  -12.8131    1.0000 </r>
       <r>  -12.8087    1.0000 </r>
       <r>  -12.8085    1.0000 </r>
       <r>   -7.6257    1.0000 </r>
       <r>   -7.4808    1.0000 </r>
       <r>   -7.4349    1.0000 </r>
       <r>   -2.1342    1.0000 </r>
       <r>    4.3220    1.0000 </r>
       <r>    5.0500    1.0000 </r>
       <r>    5.5205    1.0000 </r>
       <r>    5.6432    1.0000 </r>
       <r>    6.0681    1.0000 </r>
       <r>    7.4906    1.0000 </r>
       <r>    8.2196    1.0000 </r>
       <r>    8.6990    1.0000 </r>
       <r>   10.4001    0.9998 </r>
       <r>   10.6612    0.0000 </r>
       <r>   11.3584    0.0000 </r>
       <r>   11.9024    0.0000 </r>
       <r>   12.6659    0.0000 </r>
       <r>   12.7253    0.0000 </r>
      </set>
      <set comment="kpoint 51">
       <r>  -29.2070    1.0000 </r>
       <r>  -12.8756    1.0000 </r>
       <r>  -12.8600    1.0000 </r>
       <r>  -12.8144    1.0000 </r>
       <r>  -12.8080    1.0000 </r>
       <r>  -12.8075    1.0000 </r>
       <r>   -7.7151    1.0000 </r>
       <r>   -7.4822    1.0000 </r>
       <r>   -7.4118    1.0000 </r>
       <r>   -1.8406    1.0000 </r>
       <r>    4.0829    1.0000 </r>
       <r>    4.7977    1.0000 </r>
       <r>    5.3502    1.0000 </r>
       <r>    5.6969    1.0000 </r>
       <r>    6.1367    1.0000 </r>
       <r>    7.1089    1.0000 </r>
       <r>    8.0363    1.0000 </r>
       <r>    8.6153    1.0000 </r>
       <r>   10.3903    1.0000 </r>
       <r>   11.0667    0.0000 </r>
       <r>   11.6584    0.0000 </r>
       <r>   12.3550    0.0000 </r>
       <r>   12.6901    0.0000 </r>
       <r>   12.8637    0.0000 </r>
      </set>
      <set comment="kpoint 52">
       <r>  -29.2040    1.0000 </r>
       <r>  -12.8792    1.0000 </r>
       <r>  -12.8647    1.0000 </r>
       <r>  -12.8158    1.0000 </r>
       <r>  -12.8074    1.0000 </r>
       <r>  -12.8063    1.0000 </r>
       <r>   -7.8042    1.0000 </r>
       <r>   -7.4698    1.0000 </r>
       <r>   -7.3949    1.0000 </r>
       <r>   -1.5540    1.0000 </r>
       <r>    3.9350    1.0000 </r>
       <r>    4.6224    1.0000 </r>
       <r>    5.1582    1.0000 </r>
       <r>    5.6796    1.0000 </r>
       <r>    6.1061    1.0000 </r>
       <r>    6.7081    1.0000 </r>
       <r>    8.0794    1.0000 </r>
       <r>    8.5650    1.0000 </r>
       <r>   10.3481    1.0000 </r>
       <r>   11.4939    0.0000 </r>
       <r>   11.9270    0.0000 </r>
       <r>   12.5847    0.0000 </r>
       <r>   12.7042    0.0000 </r>
       <r>   12.9321    0.0000 </r>
      </set>
      <set comment="kpoint 53">
       <r>  -29.2014    1.0000 </r>
       <r>  -12.8808    1.0000 </r>
[...]
       <r>   10.8698    0.0000 </r>
       <r>   11.3126    0.0000 </r>
       <r>   12.3309    0.0000 </r>
       <r>   12.5318    0.0000 </r>
       <r>   12.7039    0.0000 </r>
       <r>   12.9017    0.0000 </r>
      </set>
      <set comment="kpoint 81">
       <r>  -29.1980    1.0000 </r>
       <r>  -12.8726    1.0000 </r>
       <r>  -12.8527    1.0000 </r>
       <r>  -12.8149    1.0000 </r>
       <r>  -12.8106    1.0000 </r>
       <r>  -12.8021    1.0000 </r>
       <r>   -7.7534    1.0000 </r>
       <r>   -7.6082    1.0000 </r>
       <r>   -7.4440    1.0000 </r>
       <r>   -1.5808    1.0000 </r>
       <r>    4.4543    1.0000 </r>
       <r>    4.6944    1.0000 </r>
       <r>    5.0204    1.0000 </r>
       <r>    5.7838    1.0000 </r>
       <r>    6.0590    1.0000 </r>
       <r>    6.7601    1.0000 </r>
       <r>    7.1245    1.0000 </r>
       <r>    8.7007    1.0000 </r>
       <r>   10.9205    0.0000 </r>
       <r>   11.2841    0.0000 </r>
       <r>   12.3171    0.0000 </r>
       <r>   12.5310    0.0000 </r>
       <r>   12.7182    0.0000 </r>
       <r>   12.8985    0.0000 </r>
      </set>
      <set comment="kpoint 82">
       <r>  -29.1973    1.0000 </r>
       <r>  -12.8618    1.0000 </r>
       <r>  -12.8451    1.0000 </r>
       <r>  -12.8196    1.0000 </r>
       <r>  -12.8064    1.0000 </r>
       <r>  -12.8006    1.0000 </r>
       <r>   -7.7589    1.0000 </r>
       <r>   -7.5686    1.0000 </r>
       <r>   -7.5072    1.0000 </r>
       <r>   -1.7812    1.0000 </r>
       <r>    4.5631    1.0000 </r>
       <r>    5.1426    1.0000 </r>
       <r>    5.2099    1.0000 </r>
       <r>    5.6688    1.0000 </r>
       <r>    6.0192    1.0000 </r>
       <r>    6.3763    1.0000 </r>
       <r>    7.4590    1.0000 </r>
       <r>    8.9699    1.0000 </r>
       <r>   10.5175    0.0000 </r>
       <r>   11.7458    0.0000 </r>
       <r>   12.2265    0.0000 </r>
       <r>   12.4119    0.0000 </r>
       <r>   12.5901    0.0000 </r>
       <r>   12.9306    0.0000 </r>
      </set>
      <set comment="kpoint 83">
       <r>  -29.1971    1.0000 </r>
       <r>  -12.8664    1.0000 </r>
       <r>  -12.8451    1.0000 </r>
       <r>  -12.8174    1.0000 </r>
       <r>  -12.8091    1.0000 </r>
       <r>  -12.8006    1.0000 </r>
       <r>   -7.7290    1.0000 </r>
       <r>   -7.6080    1.0000 </r>
       <r>   -7.4978    1.0000 </r>
       <r>   -1.7291    1.0000 </r>
       <r>    4.4962    1.0000 </r>
       <r>    5.0960    1.0000 </r>
       <r>    5.2451    1.0000 </r>
       <r>    5.7246    1.0000 </r>
       <r>    6.0919    1.0000 </r>
       <r>    6.4162    1.0000 </r>
       <r>    7.1064    1.0000 </r>
       <r>    8.9481    1.0000 </r>
       <r>   10.7099    0.0000 </r>
       <r>   11.5420    0.0000 </r>
       <r>   12.2693    0.0000 </r>
       <r>   12.4350    0.0000 </r>
       <r>   12.6562    0.0000 </r>
       <r>   12.9479    0.0000 </r>
      </set>
      <set comment="kpoint 84">
       <r>  -29.1971    1.0000 </r>
       <r>  -12.8689    1.0000 </r>
       <r>  -12.8452    1.0000 </r>
       <r>  -12.8155    1.0000 </r>
       <r>  -12.8113    1.0000 </r>
       <r>  -12.8005    1.0000 </r>
       <r>   -7.7161    1.0000 </r>
       <r>   -7.6151    1.0000 </r>
       <r>   -7.5015    1.0000 </r>
       <r>   -1.6982    1.0000 </r>
       <r>    4.4564    1.0000 </r>
       <r>    5.1114    1.0000 </r>
       <r>    5.2012    1.0000 </r>
       <r>    5.7259    1.0000 </r>
       <r>    6.1338    1.0000 </r>
       <r>    6.5703    1.0000 </r>
       <r>    6.8237    1.0000 </r>
       <r>    8.9764    1.0000 </r>
       <r>   10.9895    0.0000 </r>
       <r>   11.2641    0.0000 </r>
       <r>   12.2499    0.0000 </r>
       <r>   12.4290    0.0000 </r>
       <r>   12.7100    0.0000 </r>
       <r>   12.8900    0.0000 </r>
      </set>
     </set>
    </set>
   </array>
  </eigenvalues>
  <separator name="orbital magnetization" >
   <v name="MAGDIPOLOUT">      0.00000000      0.00000000      0.00000000</v>
  </separator>
  <dos>
   <i name="efermi">     10.42522556 </i>
   <total>
    <array>
     <dimension dim="1">gridpoints</dimension>
     <dimension dim="2">spin</dimension>
     <field>energy</field>
     <field>total</field>
     <field>integrated</field>
     <set>
      <set comment="spin 1">
       <r>   -31.3260     0.0000     0.0000 </r>
       <r>   -31.1712     0.0000     0.0000 </r>
       <r>   -31.0164     0.0000     0.0000 </r>
       <r>   -30.8616     0.0000     0.0000 </r>
       <r>   -30.7068     0.0000     0.0000 </r>
       <r>   -30.5519     0.0000     0.0000 </r>
       <r>   -30.3971     0.0000     0.0000 </r>
       <r>   -30.2423     0.0000     0.0000 </r>
       <r>   -30.0875     0.0000     0.0000 </r>
       <r>   -29.9327     0.0000     0.0000 </r>
       <r>   -29.7778     0.0000     0.0000 </r>
       <r>   -29.6230     0.0000     0.0000 </r>
       <r>   -29.4682     0.0000     0.0000 </r>
       <r>   -29.3134     0.0000     0.0000 </r>
       <r>   -29.1586    12.9183     2.0000 </r>
       <r>   -29.0037     0.0000     2.0000 </r>
       <r>   -28.8489     0.0000     2.0000 </r>
       <r>   -28.6941     0.0000     2.0000 </r>
       <r>   -28.5393     0.0000     2.0000 </r>
       <r>   -28.3845     0.0000     2.0000 </r>
       <r>   -28.2297     0.0000     2.0000 </r>
       <r>   -28.0748     0.0000     2.0000 </r>
       <r>   -27.9200     0.0000     2.0000 </r>
       <r>   -27.7652     0.0000     2.0000 </r>
       <r>   -27.6104     0.0000     2.0000 </r>
       <r>   -27.4556     0.0000     2.0000 </r>
       <r>   -27.3007     0.0000     2.0000 </r>
       <r>   -27.1459     0.0000     2.0000 </r>
       <r>   -26.9911     0.0000     2.0000 </r>
       <r>   -26.8363     0.0000     2.0000 </r>
       <r>   -26.6815     0.0000     2.0000 </r>
       <r>   -26.5266     0.0000     2.0000 </r>
       <r>   -26.3718     0.0000     2.0000 </r>
       <r>   -26.2170     0.0000     2.0000 </r>
       <r>   -26.0622     0.0000     2.0000 </r>
       <r>   -25.9074     0.0000     2.0000 </r>
       <r>   -25.7525     0.0000     2.0000 </r>
       <r>   -25.5977     0.0000     2.0000 </r>
       <r>   -25.4429     0.0000     2.0000 </r>
       <r>   -25.2881     0.0000     2.0000 </r>
       <r>   -25.1333     0.0000     2.0000 </r>
       <r>   -24.9784     0.0000     2.0000 </r>
       <r>   -24.8236     0.0000     2.0000 </r>
       <r>   -24.6688     0.0000     2.0000 </r>
       <r>   -24.5140     0.0000     2.0000 </r>
       <r>   -24.3592     0.0000     2.0000 </r>
       <r>   -24.2043     0.0000     2.0000 </r>
       <r>   -24.0495     0.0000     2.0000 </r>
       <r>   -23.8947     0.0000     2.0000 </r>
       <r>   -23.7399     0.0000     2.0000 </r>
       <r>   -23.5851     0.0000     2.0000 </r>
       <r>   -23.4303     0.0000     2.0000 </r>
       <r>   -23.2754     0.0000     2.0000 </r>
       <r>   -23.1206     0.0000     2.0000 </r>
       <r>   -22.9658     0.0000     2.0000 </r>
       <r>   -22.8110     0.0000     2.0000 </r>
       <r>   -22.6562     0.0000     2.0000 </r>
       <r>   -22.5013     0.0000     2.0000 </r>
       <r>   -22.3465     0.0000     2.0000 </r>
       <r>   -22.1917     0.0000     2.0000 </r>
       <r>   -22.0369     0.0000     2.0000 </r>
       <r>   -21.8821     0.0000     2.0000 </r>
       <r>   -21.7272     0.0000     2.0000 </r>
       <r>   -21.5724     0.0000     2.0000 </r>
       <r>   -21.4176     0.0000     2.0000 </r>
       <r>   -21.2628     0.0000     2.0000 </r>
       <r>   -21.1080     0.0000     2.0000 </r>
       <r>   -20.9531     0.0000     2.0000 </r>
       <r>   -20.7983     0.0000     2.0000 </r>
       <r>   -20.6435     0.0000     2.0000 </r>
       <r>   -20.4887     0.0000     2.0000 </r>
       <r>   -20.3339     0.0000     2.0000 </r>
       <r>   -20.1790     0.0000     2.0000 </r>
       <r>   -20.0242     0.0000     2.0000 </r>
       <r>   -19.8694     0.0000     2.0000 </r>
       <r>   -19.7146     0.0000     2.0000 </r>
       <r>   -19.5598     0.0000     2.0000 </r>
       <r>   -19.4050     0.0000     2.0000 </r>
       <r>   -19.2501     0.0000     2.0000 </r>
       <r>   -19.0953     0.0000     2.0000 </r>
       <r>   -18.9405     0.0000     2.0000 </r>
       <r>   -18.7857     0.0000     2.0000 </r>
       <r>   -18.6309     0.0000     2.0000 </r>
       <r>   -18.4760     0.0000     2.0000 </r>
       <r>   -18.3212     0.0000     2.0000 </r>
       <r>   -18.1664     0.0000     2.0000 </r>
       <r>   -18.0116     0.0000     2.0000 </r>
       <r>   -17.8568     0.0000     2.0000 </r>
       <r>   -17.7019     0.0000     2.0000 </r>
       <r>   -17.5471     0.0000     2.0000 </r>
       <r>   -17.3923     0.0000     2.0000 </r>
       <r>   -17.2375     0.0000     2.0000 </r>
       <r>   -17.0827     0.0000     2.0000 </r>
       <r>   -16.9278     0.0000     2.0000 </r>
       <r>   -16.7730     0.0000     2.0000 </r>
       <r>   -16.6182     0.0000     2.0000 </r>
       <r>   -16.4634     0.0000     2.0000 </r>
       <r>   -16.3086     0.0000     2.0000 </r>
       <r>   -16.1537     0.0000     2.0000 </r>
       <r>   -15.9989     0.0000     2.0000 </r>
       <r>   -15.8441     0.0000     2.0000 </r>
       <r>   -15.6893     0.0000     2.0000 </r>
       <r>   -15.5345     0.0000     2.0000 </r>
       <r>   -15.3797     0.0000     2.0000 </r>
       <r>   -15.2248     0.0000     2.0000 </r>
       <r>   -15.0700     0.0000     2.0000 </r>
       <r>   -14.9152     0.0000     2.0000 </r>
       <r>   -14.7604     0.0000     2.0000 </r>
       <r>   -14.6056     0.0000     2.0000 </r>
       <r>   -14.4507     0.0000     2.0000 </r>
       <r>   -14.2959     0.0000     2.0000 </r>
       <r>   -14.1411     0.0000     2.0000 </r>
       <r>   -13.9863     0.0000     2.0000 </r>
       <r>   -13.8315     0.0000     2.0000 </r>
       <r>   -13.6766     0.0000     2.0000 </r>
       <r>   -13.5218     0.0000     2.0000 </r>
       <r>   -13.3670     0.0000     2.0000 </r>
       <r>   -13.2122     0.0000     2.0000 </r>
       <r>   -13.0574     0.0000     2.0000 </r>
       <r>   -12.9025     0.0043     2.0007 </r>
       <r>   -12.7477    38.7549    12.0000 </r>
       <r>   -12.5929     0.0000    12.0000 </r>
       <r>   -12.4381     0.0000    12.0000 </r>
       <r>   -12.2833     0.0000    12.0000 </r>
       <r>   -12.1284     0.0000    12.0000 </r>
       <r>   -11.9736     0.0000    12.0000 </r>
       <r>   -11.8188     0.0000    12.0000 </r>
       <r>   -11.6640     0.0000    12.0000 </r>
       <r>   -11.5092     0.0000    12.0000 </r>
       <r>   -11.3544     0.0000    12.0000 </r>
       <r>   -11.1995     0.0000    12.0000 </r>
       <r>   -11.0447     0.0000    12.0000 </r>
       <r>   -10.8899     0.0000    12.0000 </r>
       <r>   -10.7351     0.0000    12.0000 </r>
       <r>   -10.5803     0.0000    12.0000 </r>
       <r>   -10.4254     0.0000    12.0000 </r>
       <r>   -10.2706     0.0000    12.0000 </r>
       <r>   -10.1158     0.0000    12.0000 </r>
       <r>    -9.9610     0.0000    12.0000 </r>
       <r>    -9.8062     0.0000    12.0000 </r>
       <r>    -9.6513     0.0000    12.0000 </r>
       <r>    -9.4965     0.0000    12.0000 </r>
       <r>    -9.3417     0.0000    12.0000 </r>
       <r>    -9.1869     0.0000    12.0000 </r>
       <r>    -9.0321     0.0000    12.0000 </r>
       <r>    -8.8772     0.0000    12.0000 </r>
       <r>    -8.7224     0.0000    12.0000 </r>
       <r>    -8.5676     0.0000    12.0000 </r>
       <r>    -8.4128     0.0000    12.0000 </r>
       <r>    -8.2580     0.0000    12.0000 </r>
       <r>    -8.1031     0.0000    12.0000 </r>
       <r>    -7.9483     0.0479    12.0074 </r>
       <r>    -7.7935     4.0759    12.8422 </r>
       <r>    -7.6387     1.3244    13.9256 </r>
       <r>    -7.4839     7.9124    15.6592 </r>
       <r>    -7.3290     4.7275    18.0000 </r>
       <r>    -7.1742     0.0000    18.0000 </r>
       <r>    -7.0194     0.0000    18.0000 </r>
       <r>    -6.8646     0.0000    18.0000 </r>
       <r>    -6.7098     0.0000    18.0000 </r>
       <r>    -6.5550     0.0000    18.0000 </r>
       <r>    -6.4001     0.0000    18.0000 </r>
       <r>    -6.2453     0.0000    18.0000 </r>
       <r>    -6.0905     0.0000    18.0000 </r>
       <r>    -5.9357     0.0000    18.0000 </r>
       <r>    -5.7809     0.0000    18.0000 </r>
       <r>    -5.6260     0.0000    18.0000 </r>
       <r>    -5.4712     0.0000    18.0000 </r>
       <r>    -5.3164     0.0000    18.0000 </r>
       <r>    -5.1616     0.0000    18.0000 </r>
       <r>    -5.0068     0.0000    18.0000 </r>
       <r>    -4.8519     0.0000    18.0000 </r>
       <r>    -4.6971     0.0000    18.0000 </r>
       <r>    -4.5423     0.0000    18.0000 </r>
       <r>    -4.3875     0.0000    18.0000 </r>
       <r>    -4.2327     0.0000    18.0000 </r>
       <r>    -4.0778     0.0000    18.0000 </r>
       <r>    -3.9230     0.0000    18.0000 </r>
       <r>    -3.7682     0.0000    18.0000 </r>
       <r>    -3.6134     0.0000    18.0000 </r>
       <r>    -3.4586     0.0000    18.0000 </r>
       <r>    -3.3037     0.0000    18.0000 </r>
       <r>    -3.1489     0.0000    18.0000 </r>
       <r>    -2.9941     0.0000    18.0000 </r>
       <r>    -2.8393     0.0000    18.0000 </r>
       <r>    -2.6845     0.0043    18.0007 </r>
       <r>    -2.5297     0.0823    18.0137 </r>
       <r>    -2.3748     0.0709    18.0246 </r>
       <r>    -2.2200     0.0352    18.0592 </r>
       <r>    -2.0652     0.2822    18.1029 </r>
       <r>    -1.9104     0.1934    18.1765 </r>
       <r>    -1.7556     1.1922    18.5077 </r>
       <r>    -1.6007     2.2804    19.0203 </r>
       <r>    -1.4459     1.7911    19.5417 </r>
       <r>    -1.2911     0.7080    19.8329 </r>
       <r>    -1.1363     0.1522    19.9726 </r>
       <r>    -0.9815     0.0000    20.0000 </r>
       <r>    -0.8266     0.0000    20.0000 </r>
       <r>    -0.6718     0.0000    20.0000 </r>
       <r>    -0.5170     0.0000    20.0000 </r>
       <r>    -0.3622     0.0000    20.0000 </r>
       <r>    -0.2074     0.0000    20.0000 </r>
       <r>    -0.0525     0.0000    20.0000 </r>
       <r>     0.1023     0.0000    20.0000 </r>
       <r>     0.2571     0.0000    20.0000 </r>
       <r>     0.4119     0.0000    20.0000 </r>
       <r>     0.5667     0.0000    20.0000 </r>
       <r>     0.7216     0.0000    20.0000 </r>
       <r>     0.8764     0.0000    20.0000 </r>
       <r>     1.0312     0.0000    20.0000 </r>
       <r>     1.1860     0.0000    20.0000 </r>
       <r>     1.3408     0.0000    20.0000 </r>
       <r>     1.4956     0.0000    20.0000 </r>
       <r>     1.6505     0.0000    20.0000 </r>
       <r>     1.8053     0.0000    20.0000 </r>
       <r>     1.9601     0.0000    20.0000 </r>
       <r>     2.1149     0.0000    20.0000 </r>
       <r>     2.2697     0.0000    20.0000 </r>
       <r>     2.4246     0.0000    20.0000 </r>
       <r>     2.5794     0.0000    20.0000 </r>
       <r>     2.7342     0.0000    20.0000 </r>
       <r>     2.8890     0.0000    20.0000 </r>
       <r>     3.0438     0.0000    20.0000 </r>
       <r>     3.1987     0.0000    20.0000 </r>
       <r>     3.3535     0.0000    20.0000 </r>
       <r>     3.5083     0.0000    20.0000 </r>
       <r>     3.6631     0.0468    20.0072 </r>
       <r>     3.8179     0.4048    20.0918 </r>
       <r>     3.9728     1.8665    20.5930 </r>
       <r>     4.1276     1.0411    20.8749 </r>
       <r>     4.2824     0.5849    21.1393 </r>
       <r>     4.4372     0.9766    21.3692 </r>
       <r>     4.5920     2.2804    22.1227 </r>
       <r>     4.7469     2.7832    23.0490 </r>
       <r>     4.9017     2.2728    23.7893 </r>
       <r>     5.0565     2.2852    24.6087 </r>
       <r>     5.2113     2.0221    25.3599 </r>
       <r>     5.3661     1.6140    25.8466 </r>
       <r>     5.5209     0.9212    26.0525 </r>
       <r>     5.6758     2.6896    26.5438 </r>
       <r>     5.8306     5.6904    28.0990 </r>
       <r>     5.9854     3.1452    28.9175 </r>
       <r>     6.1402     2.2850    29.8622 </r>
       <r>     6.2950     0.8291    30.1793 </r>
       <r>     6.4499     1.3090    30.4521 </r>
       <r>     6.6047     2.1984    30.9139 </r>
       <r>     6.7595     1.3680    31.2878 </r>
       <r>     6.9143     0.5760    31.5748 </r>
       <r>     7.0691     0.8996    31.7742 </r>
       <r>     7.2240     0.4649    31.9691 </r>
       <r>     7.3788     0.3036    32.0698 </r>
       <r>     7.5336     1.2574    32.4086 </r>
       <r>     7.6884     0.7071    32.6038 </r>
       <r>     7.8432     1.1088    32.8681 </r>
       <r>     7.9981     0.1412    33.1225 </r>
       <r>     8.1529     1.0131    33.3667 </r>
       <r>     8.3077     0.6021    33.6089 </r>
       <r>     8.4625     1.2458    33.9179 </r>
       <r>     8.6173     4.2715    35.1511 </r>
       <r>     8.7722     1.1425    35.6534 </r>
       <r>     8.9270     0.3825    35.8890 </r>
       <r>     9.0818     0.0097    35.9988 </r>
       <r>     9.2366     0.0059    36.0009 </r>
       <r>     9.3914     0.0000    36.0009 </r>
       <r>     9.5463     0.0000    36.0009 </r>
       <r>     9.7011     0.0000    36.0009 </r>
       <r>     9.8559     0.0680    36.0187 </r>
       <r>    10.0107     0.0824    36.0464 </r>
       <r>    10.1655     0.9609    36.2553 </r>
       <r>    10.3203     0.9950    36.5956 </r>
       <r>    10.4752     1.2080    37.1492 </r>
       <r>    10.6300     0.9787    37.5452 </r>
       <r>    10.7848     1.1671    37.9376 </r>
       <r>    10.9396     0.6812    38.1137 </r>
       <r>    11.0944     0.2823    38.2358 </r>
       <r>    11.2493     0.4029    38.3309 </r>
       <r>    11.4041     0.9666    38.6075 </r>
       <r>    11.5589     2.1466    39.0761 </r>
       <r>    11.7137     1.8649    39.6269 </r>
       <r>    11.8685     1.6109    40.1174 </r>
       <r>    12.0234     0.9396    40.6252 </r>
       <r>    12.1782     1.2060    41.1125 </r>
       <r>    12.3330     4.2368    42.0369 </r>
       <r>    12.4878     3.0836    42.9453 </r>
       <r>    12.6426     6.8568    44.4762 </r>
       <r>    12.7975     3.4012    46.0896 </r>
       <r>    12.9523     5.8913    47.2516 </r>
       <r>    13.1071     0.0000    48.0000 </r>
       <r>    13.2619     0.0000    48.0000 </r>
       <r>    13.4167     0.0000    48.0000 </r>
       <r>    13.5716     0.0000    48.0000 </r>
       <r>    13.7264     0.0000    48.0000 </r>
       <r>    13.8812     0.0000    48.0000 </r>
       <r>    14.0360     0.0000    48.0000 </r>
       <r>    14.1908     0.0000    48.0000 </r>
       <r>    14.3456     0.0000    48.0000 </r>
       <r>    14.5005     0.0000    48.0000 </r>
       <r>    14.6553     0.0000    48.0000 </r>
       <r>    14.8101     0.0000    48.0000 </r>
       <r>    14.9649     0.0000    48.0000 </r>
       <r>    15.1197     0.0000    48.0000 </r>
      </set>
     </set>
    </array>
   </total>
  </dos>
 </calculation>
 <structure name="finalpos" >
  <crystal>
   <varray name="basis" >
    <v>       0.00000000       3.25693317       3.25693317 </v>
    <v>       3.25693317       0.00000000       3.25693317 </v>
    <v>       3.25693317       3.25693317       0.00000000 </v>
   </varray>
   <i name="volume">     69.09657749 </i>
   <varray name="rec_basis" >
    <v>      -0.15351866       0.15351866       0.15351866 </v>
    <v>       0.15351866      -0.15351866       0.15351866 </v>
    <v>       0.15351866       0.15351866      -0.15351866 </v>
   </varray>
  </crystal>
  <varray name="positions" >
   <v>       0.25000000       0.25000000       0.25000000 </v>
   <v>       0.75000000       0.75000000       0.75000000 </v>
   <v>       0.00000000       0.00000000       0.00000000 </v>
  </varray>
 </structure>
</modeling>
