   2   2   0   0
  0.2173432E+02  0.3946666E-09  0.3946666E-09  0.3946666E-09  0.0000000E+00
   1.0000000000000000E-004
  CAR 
 unknown system                          
     22.22290176    -23.41389429  301     -0.54683004      1.00000000
    -23.414  0.0000E+00  0.0000E+00
    -23.262  0.0000E+00  0.0000E+00
    -23.110  0.0000E+00  0.0000E+00
    -22.958  0.0000E+00  0.0000E+00
    -22.805  0.0000E+00  0.0000E+00
    -22.653  0.0000E+00  0.0000E+00
    -22.501  0.0000E+00  0.0000E+00
    -22.349  0.0000E+00  0.0000E+00
    -22.197  0.0000E+00  0.0000E+00
    -22.045  0.0000E+00  0.0000E+00
    -21.893  0.0000E+00  0.0000E+00
    -21.741  0.0000E+00  0.0000E+00
    -21.588  0.0000E+00  0.0000E+00
    -21.436  0.0000E+00  0.0000E+00
    -21.284  0.3944E+02  0.6000E+01
    -21.132  0.0000E+00  0.6000E+01
    -20.980  0.0000E+00  0.6000E+01
    -20.828  0.0000E+00  0.6000E+01
    -20.676  0.0000E+00  0.6000E+01
    -20.524  0.0000E+00  0.6000E+01
    -20.371  0.0000E+00  0.6000E+01
    -20.219  0.0000E+00  0.6000E+01
    -20.067  0.0000E+00  0.6000E+01
    -19.915  0.0000E+00  0.6000E+01
    -19.763  0.0000E+00  0.6000E+01
    -19.611  0.0000E+00  0.6000E+01
    -19.459  0.0000E+00  0.6000E+01
    -19.307  0.0000E+00  0.6000E+01
    -19.154  0.0000E+00  0.6000E+01
    -19.002  0.0000E+00  0.6000E+01
    -18.850  0.0000E+00  0.6000E+01
    -18.698  0.0000E+00  0.6000E+01
    -18.546  0.0000E+00  0.6000E+01
    -18.394  0.0000E+00  0.6000E+01
    -18.242  0.0000E+00  0.6000E+01
    -18.090  0.0000E+00  0.6000E+01
    -17.937  0.0000E+00  0.6000E+01
    -17.785  0.0000E+00  0.6000E+01
    -17.633  0.0000E+00  0.6000E+01
    -17.481  0.0000E+00  0.6000E+01
    -17.329  0.0000E+00  0.6000E+01
    -17.177  0.0000E+00  0.6000E+01
    -17.025  0.0000E+00  0.6000E+01
    -16.873  0.0000E+00  0.6000E+01
    -16.720  0.0000E+00  0.6000E+01
    -16.568  0.0000E+00  0.6000E+01
    -16.416  0.0000E+00  0.6000E+01
    -16.264  0.0000E+00  0.6000E+01
    -16.112  0.0000E+00  0.6000E+01
    -15.960  0.0000E+00  0.6000E+01
    -15.808  0.0000E+00  0.6000E+01
    -15.656  0.0000E+00  0.6000E+01
    -15.504  0.0000E+00  0.6000E+01
    -15.351  0.0000E+00  0.6000E+01
    -15.199  0.0000E+00  0.6000E+01
    -15.047  0.0000E+00  0.6000E+01
    -14.895  0.0000E+00  0.6000E+01
    -14.743  0.0000E+00  0.6000E+01
    -14.591  0.0000E+00  0.6000E+01
    -14.439  0.0000E+00  0.6000E+01
    -14.287  0.0000E+00  0.6000E+01
    -14.134  0.0000E+00  0.6000E+01
    -13.982  0.0000E+00  0.6000E+01
    -13.830  0.0000E+00  0.6000E+01
    -13.678  0.0000E+00  0.6000E+01
    -13.526  0.0000E+00  0.6000E+01
    -13.374  0.0000E+00  0.6000E+01
    -13.222  0.7229E+00  0.6021E+01
    -13.070  0.2797E+01  0.6222E+01
    -12.917  0.1136E+02  0.6866E+01
    -12.765  0.5847E+01  0.8000E+01
    -12.613  0.0000E+00  0.8000E+01
    -12.461  0.0000E+00  0.8000E+01
    -12.309  0.0000E+00  0.8000E+01
    -12.157  0.0000E+00  0.8000E+01
    -12.005  0.0000E+00  0.8000E+01
    -11.853  0.0000E+00  0.8000E+01
    -11.700  0.0000E+00  0.8000E+01
    -11.548  0.0000E+00  0.8000E+01
    -11.396  0.0000E+00  0.8000E+01
    -11.244  0.0000E+00  0.8000E+01
    -11.092  0.0000E+00  0.8000E+01
    -10.940  0.0000E+00  0.8000E+01
    -10.788  0.0000E+00  0.8000E+01
    -10.636  0.0000E+00  0.8000E+01
    -10.483  0.0000E+00  0.8000E+01
    -10.331  0.0000E+00  0.8000E+01
    -10.179  0.0000E+00  0.8000E+01
    -10.027  0.0000E+00  0.8000E+01
     -9.875  0.0000E+00  0.8000E+01
     -9.723  0.0000E+00  0.8000E+01
     -9.571  0.0000E+00  0.8000E+01
     -9.419  0.0000E+00  0.8000E+01
     -9.266  0.0000E+00  0.8000E+01
     -9.114  0.0000E+00  0.8000E+01
     -8.962  0.0000E+00  0.8000E+01
     -8.810  0.0000E+00  0.8000E+01
     -8.658  0.0000E+00  0.8000E+01
     -8.506  0.0000E+00  0.8000E+01
     -8.354  0.0000E+00  0.8000E+01
     -8.202  0.0000E+00  0.8000E+01
     -8.050  0.0000E+00  0.8000E+01
     -7.897  0.0000E+00  0.8000E+01
     -7.745  0.0000E+00  0.8000E+01
     -7.593  0.0000E+00  0.8000E+01
     -7.441  0.0000E+00  0.8000E+01
     -7.289  0.0000E+00  0.8000E+01
     -7.137  0.0000E+00  0.8000E+01
     -6.985  0.0000E+00  0.8000E+01
     -6.833  0.0000E+00  0.8000E+01
     -6.680  0.0000E+00  0.8000E+01
     -6.528  0.0000E+00  0.8000E+01
     -6.376  0.0000E+00  0.8000E+01
     -6.224  0.0000E+00  0.8000E+01
     -6.072  0.0000E+00  0.8000E+01
     -5.920  0.0000E+00  0.8000E+01
     -5.768  0.0000E+00  0.8000E+01
     -5.616  0.0000E+00  0.8000E+01
     -5.463  0.0000E+00  0.8000E+01
     -5.311  0.0000E+00  0.8000E+01
     -5.159  0.0000E+00  0.8000E+01
     -5.007  0.0000E+00  0.8000E+01
     -4.855  0.0000E+00  0.8000E+01
     -4.703  0.0000E+00  0.8000E+01
     -4.551  0.0000E+00  0.8000E+01
     -4.399  0.0000E+00  0.8000E+01
     -4.246  0.0000E+00  0.8000E+01
     -4.094  0.0000E+00  0.8000E+01
     -3.942  0.0000E+00  0.8000E+01
     -3.790  0.0000E+00  0.8000E+01
     -3.638  0.0000E+00  0.8000E+01
     -3.486  0.0000E+00  0.8000E+01
     -3.334  0.0000E+00  0.8000E+01
     -3.182  0.0000E+00  0.8000E+01
     -3.029  0.0000E+00  0.8000E+01
     -2.877  0.0000E+00  0.8000E+01
     -2.725  0.0000E+00  0.8000E+01
     -2.573  0.0000E+00  0.8000E+01
     -2.421  0.1067E+01  0.8074E+01
     -2.269  0.2030E+01  0.8271E+01
     -2.117  0.7117E+01  0.8884E+01
     -1.965  0.2849E+01  0.9519E+01
     -1.812  0.8259E+00  0.9713E+01
     -1.660  0.1833E+01  0.9920E+01
     -1.508  0.2166E+01  0.1023E+02
     -1.356  0.2509E+01  0.1058E+02
     -1.204  0.4284E+01  0.1105E+02
     -1.052  0.7238E+01  0.1188E+02
     -0.900  0.7260E+01  0.1280E+02
     -0.748  0.4774E+01  0.1363E+02
     -0.595  0.1886E+01  0.1397E+02
     -0.443  0.7181E-01  0.1400E+02
     -0.291  0.0000E+00  0.1400E+02
     -0.139  0.0000E+00  0.1400E+02
      0.013  0.0000E+00  0.1400E+02
      0.165  0.0000E+00  0.1400E+02
      0.317  0.0000E+00  0.1400E+02
      0.469  0.0000E+00  0.1400E+02
      0.621  0.0000E+00  0.1400E+02
      0.774  0.0000E+00  0.1400E+02
      0.926  0.0000E+00  0.1400E+02
      1.078  0.0000E+00  0.1400E+02
      1.230  0.0000E+00  0.1400E+02
      1.382  0.0000E+00  0.1400E+02
      1.534  0.0000E+00  0.1400E+02
      1.686  0.0000E+00  0.1400E+02
      1.838  0.0000E+00  0.1400E+02
      1.991  0.0000E+00  0.1400E+02
      2.143  0.0000E+00  0.1400E+02
      2.295  0.0000E+00  0.1400E+02
      2.447  0.0000E+00  0.1400E+02
      2.599  0.0000E+00  0.1400E+02
      2.751  0.0000E+00  0.1400E+02
      2.903  0.0000E+00  0.1400E+02
      3.055  0.0000E+00  0.1400E+02
      3.208  0.0000E+00  0.1400E+02
      3.360  0.0000E+00  0.1400E+02
      3.512  0.0000E+00  0.1400E+02
      3.664  0.0000E+00  0.1400E+02
      3.816  0.0000E+00  0.1400E+02
      3.968  0.0000E+00  0.1400E+02
      4.120  0.0000E+00  0.1400E+02
      4.272  0.0000E+00  0.1400E+02
      4.425  0.0000E+00  0.1400E+02
      4.577  0.0000E+00  0.1400E+02
      4.729  0.1833E-02  0.1400E+02
      4.881  0.3583E-01  0.1400E+02
      5.033  0.4633E-01  0.1401E+02
      5.185  0.6417E-01  0.1402E+02
      5.337  0.8124E-01  0.1403E+02
      5.489  0.9757E-01  0.1404E+02
      5.642  0.1166E+00  0.1406E+02
      5.794  0.1371E+00  0.1408E+02
      5.946  0.1608E+00  0.1410E+02
      6.098  0.1890E+00  0.1413E+02
      6.250  0.2219E+00  0.1416E+02
      6.402  0.2606E+00  0.1419E+02
      6.554  0.3239E+00  0.1424E+02
      6.706  0.4126E+00  0.1429E+02
      6.859  0.7149E+00  0.1438E+02
      7.011  0.7282E+00  0.1449E+02
      7.163  0.9051E+00  0.1461E+02
      7.315  0.1251E+01  0.1477E+02
      7.467  0.1297E+01  0.1497E+02
      7.619  0.1488E+01  0.1518E+02
      7.771  0.1499E+01  0.1541E+02
      7.923  0.1468E+01  0.1563E+02
      8.075  0.1412E+01  0.1585E+02
      8.228  0.1212E+01  0.1605E+02
      8.380  0.1148E+01  0.1623E+02
      8.532  0.8447E+00  0.1638E+02
      8.684  0.9696E+00  0.1651E+02
      8.836  0.1978E+01  0.1671E+02
      8.988  0.1463E+01  0.1698E+02
      9.140  0.1586E+01  0.1719E+02
      9.292  0.1719E+01  0.1744E+02
      9.445  0.2223E+01  0.1773E+02
      9.597  0.2235E+01  0.1808E+02
      9.749  0.2649E+01  0.1844E+02
      9.901  0.2119E+01  0.1881E+02
     10.053  0.1780E+01  0.1910E+02
     10.205  0.1317E+01  0.1934E+02
     10.357  0.1098E+01  0.1952E+02
     10.509  0.7543E+00  0.1967E+02
     10.662  0.1055E+01  0.1980E+02
     10.814  0.1387E+01  0.1998E+02
     10.966  0.1438E+01  0.2024E+02
     11.118  0.1143E+01  0.2042E+02
     11.270  0.1409E+01  0.2062E+02
     11.422  0.1859E+01  0.2087E+02
     11.574  0.2060E+01  0.2114E+02
     11.726  0.1353E+01  0.2138E+02
     11.879  0.1224E+01  0.2157E+02
     12.031  0.1119E+01  0.2175E+02
     12.183  0.9547E+00  0.2191E+02
     12.335  0.8410E+00  0.2204E+02
     12.487  0.7672E+00  0.2216E+02
     12.639  0.7519E+00  0.2228E+02
     12.791  0.8696E+00  0.2240E+02
     12.943  0.8700E+00  0.2254E+02
     13.096  0.8259E+00  0.2266E+02
     13.248  0.8682E+00  0.2279E+02
     13.400  0.1037E+01  0.2294E+02
     13.552  0.1278E+01  0.2311E+02
     13.704  0.1873E+01  0.2336E+02
     13.856  0.1750E+01  0.2365E+02
     14.008  0.1343E+01  0.2388E+02
     14.160  0.1073E+01  0.2407E+02
     14.313  0.1087E+01  0.2422E+02
     14.465  0.8923E+00  0.2438E+02
     14.617  0.8326E+00  0.2451E+02
     14.769  0.8676E+00  0.2464E+02
     14.921  0.8920E+00  0.2477E+02
     15.073  0.1065E+01  0.2491E+02
     15.225  0.1833E+01  0.2515E+02
     15.377  0.2215E+01  0.2547E+02
     15.530  0.1468E+01  0.2575E+02
     15.682  0.1498E+01  0.2598E+02
     15.834  0.1073E+01  0.2617E+02
     15.986  0.5602E+00  0.2629E+02
     16.138  0.7401E+00  0.2639E+02
     16.290  0.1675E+01  0.2655E+02
     16.442  0.2508E+01  0.2688E+02
     16.594  0.2367E+01  0.2724E+02
     16.746  0.1581E+01  0.2752E+02
     16.899  0.1937E+01  0.2779E+02
     17.051  0.1516E+01  0.2804E+02
     17.203  0.1567E+01  0.2827E+02
     17.355  0.1700E+01  0.2851E+02
     17.507  0.1754E+01  0.2877E+02
     17.659  0.1721E+01  0.2904E+02
     17.811  0.1799E+01  0.2930E+02
     17.963  0.1858E+01  0.2958E+02
     18.116  0.1808E+01  0.2986E+02
     18.268  0.1795E+01  0.3014E+02
     18.420  0.1589E+01  0.3040E+02
     18.572  0.1298E+01  0.3061E+02
     18.724  0.1888E+01  0.3083E+02
     18.876  0.2263E+01  0.3116E+02
     19.028  0.1934E+01  0.3148E+02
     19.180  0.1444E+01  0.3174E+02
     19.333  0.6295E+00  0.3190E+02
     19.485  0.2142E+00  0.3196E+02
     19.637  0.1045E+00  0.3198E+02
     19.789  0.6203E-01  0.3199E+02
     19.941  0.2654E-01  0.3200E+02
     20.093  0.2023E-02  0.3200E+02
     20.245  0.0000E+00  0.3200E+02
     20.397  0.0000E+00  0.3200E+02
     20.550  0.0000E+00  0.3200E+02
     20.702  0.0000E+00  0.3200E+02
     20.854  0.0000E+00  0.3200E+02
     21.006  0.0000E+00  0.3200E+02
     21.158  0.0000E+00  0.3200E+02
     21.310  0.0000E+00  0.3200E+02
     21.462  0.0000E+00  0.3200E+02
     21.614  0.0000E+00  0.3200E+02
     21.767  0.0000E+00  0.3200E+02
     21.919  0.0000E+00  0.3200E+02
     22.071  0.0000E+00  0.3200E+02
     22.223  0.0000E+00  0.3200E+02
