Automatically generated mesh
     104
Reciprocal lattice
    0.00000000000000    0.00000000000000    0.00000000000000             1
    0.07142857142857    0.00000000000000    0.00000000000000             8
    0.14285714285715    0.00000000000000    0.00000000000000             8
    0.21428571428572    0.00000000000000    0.00000000000000             8
    0.28571428571429    0.00000000000000    0.00000000000000             8
    0.35714285714286    0.00000000000000    0.00000000000000             8
    0.42857142857143    0.00000000000000    0.00000000000000             8
    0.50000000000000    0.00000000000000    0.00000000000000             4
    0.07142857142857    0.07142857142857    0.00000000000000             6
    0.14285714285715    0.07142857142857    0.00000000000000            24
    0.21428571428572    0.07142857142857    0.00000000000000            24
    0.28571428571429    0.07142857142857    0.00000000000000            24
    0.35714285714286    0.07142857142857    0.00000000000000            24
    0.42857142857143    0.07142857142857    0.00000000000000            24
    0.50000000000000    0.07142857142857    0.00000000000000            24
   -0.42857142857143    0.07142857142857    0.00000000000000            24
   -0.35714285714285    0.07142857142857    0.00000000000000            24
   -0.28571428571428    0.07142857142857    0.00000000000000            24
   -0.21428571428571    0.07142857142857    0.00000000000000            24
   -0.14285714285714    0.07142857142857    0.00000000000000            24
   -0.07142857142857    0.07142857142857    0.00000000000000            12
    0.14285714285715    0.14285714285715    0.00000000000000             6
    0.21428571428572    0.14285714285715    0.00000000000000            24
    0.28571428571429    0.14285714285715    0.00000000000000            24
    0.35714285714286    0.14285714285715    0.00000000000000            24
    0.42857142857143    0.14285714285715    0.00000000000000            24
    0.50000000000000    0.14285714285715    0.00000000000000            24
   -0.42857142857143    0.14285714285715    0.00000000000000            24
   -0.35714285714285    0.14285714285715    0.00000000000000            24
   -0.28571428571428    0.14285714285715    0.00000000000000            24
   -0.21428571428571    0.14285714285715    0.00000000000000            24
   -0.14285714285714    0.14285714285715    0.00000000000000            12
    0.21428571428572    0.21428571428572    0.00000000000000             6
    0.28571428571429    0.21428571428572    0.00000000000000            24
    0.35714285714286    0.21428571428572    0.00000000000000            24
    0.42857142857143    0.21428571428572    0.00000000000000            24
    0.50000000000000    0.21428571428572    0.00000000000000            24
   -0.42857142857143    0.21428571428572    0.00000000000000            24
   -0.35714285714285    0.21428571428572    0.00000000000000            24
   -0.28571428571428    0.21428571428572    0.00000000000000            24
   -0.21428571428571    0.21428571428572    0.00000000000000            12
    0.28571428571429    0.28571428571429    0.00000000000000             6
    0.35714285714286    0.28571428571429    0.00000000000000            24
    0.42857142857143    0.28571428571429    0.00000000000000            24
    0.50000000000000    0.28571428571429    0.00000000000000            24
   -0.42857142857143    0.28571428571429    0.00000000000000            24
   -0.35714285714285    0.28571428571429    0.00000000000000            24
   -0.28571428571428    0.28571428571429    0.00000000000000            12
    0.35714285714286    0.35714285714286    0.00000000000000             6
    0.42857142857143    0.35714285714286    0.00000000000000            24
    0.50000000000000    0.35714285714286    0.00000000000000            24
   -0.42857142857143    0.35714285714286    0.00000000000000            24
   -0.35714285714285    0.35714285714286    0.00000000000000            12
    0.42857142857143    0.42857142857143    0.00000000000000             6
    0.50000000000000    0.42857142857143    0.00000000000000            24
   -0.42857142857143    0.42857142857143    0.00000000000000            12
    0.50000000000000    0.50000000000000    0.00000000000000             3
    0.21428571428572    0.14285714285715    0.07142857142857            24
    0.28571428571429    0.14285714285715    0.07142857142857            48
    0.35714285714286    0.14285714285715    0.07142857142857            48
    0.42857142857143    0.14285714285715    0.07142857142857            48
    0.50000000000000    0.14285714285715    0.07142857142857            48
   -0.42857142857143    0.14285714285715    0.07142857142857            24
    0.28571428571429    0.21428571428572    0.07142857142857            24
    0.35714285714286    0.21428571428572    0.07142857142857            48
    0.42857142857143    0.21428571428572    0.07142857142857            48
    0.50000000000000    0.21428571428572    0.07142857142857            48
   -0.42857142857143    0.21428571428572    0.07142857142857            48
   -0.35714285714285    0.21428571428572    0.07142857142857            48
   -0.28571428571428    0.21428571428572    0.07142857142857            48
   -0.21428571428571    0.21428571428572    0.07142857142857            48
   -0.14285714285714    0.21428571428572    0.07142857142857            24
    0.35714285714286    0.28571428571429    0.07142857142857            24
    0.42857142857143    0.28571428571429    0.07142857142857            48
    0.50000000000000    0.28571428571429    0.07142857142857            48
   -0.42857142857143    0.28571428571429    0.07142857142857            48
   -0.35714285714285    0.28571428571429    0.07142857142857            48
   -0.28571428571428    0.28571428571429    0.07142857142857            48
   -0.21428571428571    0.28571428571429    0.07142857142857            24
    0.42857142857143    0.35714285714286    0.07142857142857            24
    0.50000000000000    0.35714285714286    0.07142857142857            48
   -0.42857142857143    0.35714285714286    0.07142857142857            48
   -0.35714285714285    0.35714285714286    0.07142857142857            48
   -0.28571428571428    0.35714285714286    0.07142857142857            24
    0.50000000000000    0.42857142857143    0.07142857142857            24
   -0.42857142857143    0.42857142857143    0.07142857142857            48
   -0.35714285714285    0.42857142857143    0.07142857142857            24
   -0.42857142857143    0.50000000000000    0.07142857142857            12
    0.42857142857143    0.28571428571429    0.14285714285715            24
    0.50000000000000    0.28571428571429    0.14285714285715            48
   -0.42857142857143    0.28571428571429    0.14285714285715            48
   -0.35714285714285    0.28571428571429    0.14285714285715            24
    0.50000000000000    0.35714285714286    0.14285714285715            24
   -0.42857142857143    0.35714285714286    0.14285714285715            48
   -0.35714285714285    0.35714285714286    0.14285714285715            48
   -0.28571428571428    0.35714285714286    0.14285714285715            48
   -0.21428571428571    0.35714285714286    0.14285714285715            24
   -0.42857142857143    0.42857142857143    0.14285714285715            24
   -0.35714285714285    0.42857142857143    0.14285714285715            48
   -0.28571428571428    0.42857142857143    0.14285714285715            24
   -0.35714285714285    0.50000000000000    0.14285714285715            12
   -0.35714285714285    0.42857142857143    0.21428571428572            24
   -0.28571428571428    0.42857142857143    0.21428571428572            24
   -0.28571428571428    0.50000000000000    0.21428571428572            12
Tetrahedra
       389    0.00006073858115
        48         2         3        10        21
        48        10        20        21        58
        24        20        20        21        58
        48         3        10        20        21
        48        20        32        58        59
        48        19        20        32        59
        24        20        20        32        58
        48        19        31        59        60
        48        18        19        31        60
        48        19        31        32        59
        48        18        30        60        61
        48        17        18        30        61
        48        18        30        31        60
        48        17        29        61        62
        48        16        17        29        62
        48        17        29        30        61
        48        16        28        62        63
        48        15        16        28        63
        48        16        28        29        62
        48        15        27        62        63
        48        14        15        27        62
        48        15        27        28        63
        48        14        26        61        62
        48        13        14        26        61
        48        14        26        27        62
        48        13        25        60        61
        48        12        13        25        60
        48        13        25        26        61
        48        12        24        59        60
        48        11        12        24        59
        48        12        24        25        60
        48        11        23        58        59
        48        10        11        23        58
        48        11        23        24        59
        24        10        10        22        58
        24         9        10        10        22
        48        10        22        23        58
        24         9        10        10        21
        48         2         9        10        21
        48        10        11        20        58
        48         3        10        11        20
        48        23        58        59        64
        24        58        59        59        64
        24        32        58        59        59
        48        11        20        58        59
        48        59        64        65        72
        48        59        60        65        72
        48        31        59        60        72
        24        59        59        64        72
        24        32        59        59        72
        48        31        32        59        72
        48        60        65        66        71
        48        60        61        66        71
        48        30        60        61        71
        48        60        65        71        72
        48        31        60        71        72
        48        30        31        60        71
        48        61        66        67        70
        48        61        62        67        70
        48        29        61        62        70
        48        61        66        70        71
        48        30        61        70        71
        48        29        30        61        70
        48        62        67        68        69
        48        62        63        68        69
        48        28        62        63        69
        48        62        67        69        70
        48        29        62        69        70
        48        28        29        62        69
        48        63        68        68        69
        48        27        62        63        68
        48        28        63        68        69
        48        27        28        63        68
        48        26        61        62        67
        48        27        62        67        68
        48        26        27        62        67
        48        25        60        61        66
        48        26        61        66        67
        48        25        26        61        66
        48        24        59        60        65
        48        25        60        65        66
        48        24        25        60        65
        48        24        59        64        65
        48        23        24        59        64
        24        23        23        58        64
        24        22        23        23        58
        24        10        10        21        58
        48        23        24        34        64
        48        34        64        65        73
        24        64        65        65        73
        24        64        65        65        72
        48        24        34        64        65
        48        65        73        74        89
        48        65        66        74        89
        48        65        66        71        89
        24        65        65        73        89
        24        65        65        72        89
        48        65        71        72        89
        48        66        74        75        90
        48        66        67        75        90
        48        66        67        70        90
        48        66        74        89        90
        48        66        71        89        90
        48        66        70        71        90
        48        67        75        76        91
        48        67        68        76        91
        48        67        68        69        91
        48        67        75        90        91
        48        67        70        90        91
        48        67        69        70        91
        48        68        76        77        92
        48        68        69        77        92
        48        68        68        69        92
        48        68        76        91        92
        48        68        69        91        92
        48        69        77        78        91
        48        69        70        78        91
        48        69        77        91        92
        48        70        78        79        90
        48        70        71        79        90
        48        70        78        90        91
        24        71        71        79        89
        24        71        71        72        89
        48        71        79        89        90
        48        11        12        19        59
        48        11        19        20        59
        48        34        35        43        73
        48        34        35        65        73
        48        24        34        35        65
        48        43        73        74        80
        24        73        74        74        80
        24        73        74        74        89
        48        35        43        73        74
        48        35        65        73        74
        48        74        80        81        93
        48        74        75        81        93
        48        74        75        90        93
        24        74        74        80        93
        24        74        74        89        93
        48        74        89        90        93
        48        75        81        82        94
        48        75        76        82        94
        48        75        76        91        94
        48        75        81        93        94
        48        75        90        93        94
        48        75        90        91        94
        48        76        82        83        95
        48        76        77        83        95
        48        76        77        92        95
        48        76        82        94        95
        48        76        91        94        95
        48        76        91        92        95
        48        77        83        84        96
        48        77        78        84        96
        48        77        78        91        96
        48        77        83        95        96
        48        77        92        95        96
        48        77        91        92        96
        24        78        78        84        97
        24        78        78        79        97
        48        78        79        90        97
        48        78        84        96        97
        48        78        91        96        97
        48        78        90        91        97
        24        79        90        90        97
        24        79        89        90        90
        48        12        13        18        60
        48        12        18        19        60
        48        12        19        59        60
        48        43        44        50        80
        48        43        44        74        80
        48        35        43        44        74
        48        50        80        81        85
        24        80        81        81        85
        24        80        81        81        93
        48        44        50        80        81
        48        44        74        80        81
        48        81        85        86        98
        48        81        82        86        98
        48        81        82        94        98
        24        81        81        85        98
        24        81        81        93        98
        48        81        93        94        98
        48        82        86        87        99
        48        82        83        87        99
        48        82        83        95        99
        48        82        86        98        99
        48        82        94        98        99
        48        82        94        95        99
        24        83        83        87       100
        24        83        83        84       100
        48        83        84        96       100
        48        83        87        99       100
        48        83        95        99       100
        48        83        95        96       100
        24        84        96        96       100
        24        84        96        96        97
        48        13        14        17        61
        48        13        17        18        61
        48        13        18        60        61
        48        50        51        55        85
        48        50        51        81        85
        48        44        50        51        81
        48        55        85        86        88
        24        85        86        86        88
        24        85        86        86        98
        48        51        55        85        86
        48        51        81        85        86
        48        86        86        88       101
        24        86        86        87       101
        48        86        87        99       101
        24        86        86        98       101
        48        86        98        99       101
        24        87        99        99       101
        24        87        99        99       100
        48        14        15        16        62
        48        14        16        17        62
        48        14        17        61        62
        24        55        55        56        88
        48        55        56        86        88
        48        51        55        56        86
        24        56        86        86        88
        48        15        15        16        63
        48        15        16        62        63
        24         2         2         9        21
        48         3         4        11        20
        48         4        11        19        20
        24        31        31        32        72
        48        31        41        71        72
        48        30        31        41        71
        24        31        31        41        72
        48        30        40        70        71
        48        29        30        40        70
        48        30        40        41        71
        48        29        39        69        70
        48        28        29        39        69
        48        29        39        40        70
        48        28        38        68        69
        48        27        28        38        68
        48        28        38        39        69
        48        27        37        67        68
        48        26        27        37        67
        48        27        37        38        68
        48        26        36        66        67
        48        25        26        36        66
        48        26        36        37        67
        48        25        35        65        66
        48        24        25        35        65
        48        25        35        36        66
        24        23        23        33        64
        24        22        23        23        33
        48        23        33        34        64
        48         4        11        12        19
        24        41        71        71        72
        48        40        70        71        79
        24        41        71        71        79
        48        40        41        71        79
        48        39        69        70        78
        48        40        70        78        79
        48        39        40        70        78
        48        38        68        69        77
        48        39        69        77        78
        48        38        39        69        77
        48        37        67        68        76
        48        38        68        76        77
        48        37        38        68        76
        48        36        66        67        75
        48        37        67        75        76
        48        36        37        67        75
        48        35        65        66        74
        48        36        66        74        75
        48        35        36        66        74
        24        34        34        64        73
        24        33        34        34        64
        24        89        90        90        93
        48        90        93        94        97
        48        90        91        94        97
        24        90        90        93        97
        48        91        94        95        96
        48        91        92        95        96
        48        91        94        96        97
        48        92        95        95        96
        48        35        36        44        74
        48        44        74        75        81
        48        36        44        74        75
        24        93        94        94        98
        24        93        94        94        97
        48        94        98        99       102
        48        94        95        99       102
        48        94        95        96       102
        24        94        94        98       102
        24        94        94        97       102
        48        94        96        97       102
        48        95        99       100       103
        48        95        96       100       103
        48        95        95        96       103
        48        95        99       102       103
        48        95        96       102       103
        24        96        96       100       102
        24        96        96        97       102
        48        96       100       102       103
        48        44        45        51        81
        48        44        45        75        81
        48        36        44        45        75
        48        51        81        82        86
        48        45        51        81        82
        48        45        75        81        82
        24        98        99        99       101
        24        98        99        99       102
        48        99        99       101       104
        24        99        99       100       104
        48        99       100       103       104
        24        99        99       102       104
        48        99       102       103       104
        24       100       103       103       104
        24       100       102       103       103
        48        51        52        56        86
        48        51        52        82        86
        48        45        51        52        82
        24        56        86        86        87
        48        52        56        86        87
        48        52        82        86        87
        24        52        52        56        87
        48         4         5        12        19
        48         5        12        18        19
        24        40        40        41        79
        48        40        48        78        79
        48        39        40        48        78
        24        40        40        48        79
        48        39        47        77        78
        48        38        39        47        77
        48        39        47        48        78
        48        38        46        76        77
        48        37        38        46        76
        48        38        46        47        77
        48        37        45        75        76
        48        36        37        45        75
        48        37        45        46        76
        24        34        34        42        73
        24        33        34        34        42
        48        34        42        43        73
        48         5        12        13        18
        24        48        78        78        79
        48        47        77        78        84
        24        48        78        78        84
        48        47        48        78        84
        48        46        76        77        83
        48        47        77        83        84
        48        46        47        77        83
        48        45        75        76        82
        48        46        76        82        83
        48        45        46        76        82
        24        43        43        73        80
        24        42        43        43        73
        24       102       103       103       104
        24       103       103       104       104
        48        45        46        52        82
        48        52        82        83        87
        48        46        52        82        83
        24        52        52        53        87
        48        52        53        83        87
        48        46        52        53        83
        24        53        83        83        87
        48         5         6        13        18
        48         6        13        17        18
        24        47        47        48        84
        48        47        53        83        84
        48        46        47        53        83
        24        47        47        53        84
        24        43        43        49        80
        24        42        43        43        49
        48        43        49        50        80
        48         6        13        14        17
        24        53        83        83        84
        24        50        50        80        85
        24        49        50        50        80
        48         6         7        14        17
        48         7        14        16        17
        24        50        50        54        85
        24        49        50        50        54
        48        50        54        55        85
        48         7        14        15        16
        24        55        55        85        88
        24        54        55        55        85
        48         7         8        15        16
        48         8        15        15        16
        48        55        55        57        88
        24        54        55        55        57
        24         1         2         2         9
