   2   2   0   0
  0.1564460E+02  0.3537011E-09  0.3537011E-09  0.3537011E-09  0.0000000E+00
  1.000000000000000E-004
  CAR 
 unknown system                          
     16.03766841    -10.68634478  301      4.81636662      1.00000000
    -10.686  0.0000E+00  0.0000E+00
    -10.597  0.0000E+00  0.0000E+00
    -10.508  0.0000E+00  0.0000E+00
    -10.419  0.0000E+00  0.0000E+00
    -10.330  0.0000E+00  0.0000E+00
    -10.241  0.0000E+00  0.0000E+00
    -10.152  0.0000E+00  0.0000E+00
    -10.063  0.0000E+00  0.0000E+00
     -9.974  0.0000E+00  0.0000E+00
     -9.885  0.0000E+00  0.0000E+00
     -9.796  0.0000E+00  0.0000E+00
     -9.706  0.0000E+00  0.0000E+00
     -9.617  0.0000E+00  0.0000E+00
     -9.528  0.0000E+00  0.0000E+00
     -9.439  0.5184E-01  0.7016E-03
     -9.350  0.9772E-01  0.7437E-02
     -9.261  0.1354E+00  0.1799E-01
     -9.172  0.1640E+00  0.3125E-01
     -9.083  0.1875E+00  0.4699E-01
     -8.994  0.2117E+00  0.6474E-01
     -8.905  0.2313E+00  0.8453E-01
     -8.816  0.2519E+00  0.1060E+00
     -8.727  0.2718E+00  0.1294E+00
     -8.638  0.2897E+00  0.1544E+00
     -8.548  0.3094E+00  0.1811E+00
     -8.459  0.3274E+00  0.2095E+00
     -8.370  0.3455E+00  0.2395E+00
     -8.281  0.3650E+00  0.2711E+00
     -8.192  0.3838E+00  0.3045E+00
     -8.103  0.4031E+00  0.3395E+00
     -8.014  0.4236E+00  0.3763E+00
     -7.925  0.4451E+00  0.4150E+00
     -7.836  0.4674E+00  0.4556E+00
     -7.747  0.4915E+00  0.4983E+00
     -7.658  0.5175E+00  0.5432E+00
     -7.569  0.5466E+00  0.5906E+00
     -7.479  0.5796E+00  0.6407E+00
     -7.390  0.6177E+00  0.6940E+00
     -7.301  0.6626E+00  0.7510E+00
     -7.212  0.7241E+00  0.8126E+00
     -7.123  0.8211E+00  0.8810E+00
     -7.034  0.9567E+00  0.9627E+00
     -6.945  0.9627E+00  0.1047E+01
     -6.856  0.9328E+00  0.1131E+01
     -6.767  0.9059E+00  0.1213E+01
     -6.678  0.9011E+00  0.1293E+01
     -6.589  0.8881E+00  0.1373E+01
     -6.500  0.8715E+00  0.1451E+01
     -6.411  0.8727E+00  0.1529E+01
     -6.321  0.8690E+00  0.1607E+01
     -6.232  0.8749E+00  0.1684E+01
     -6.143  0.9066E+00  0.1763E+01
     -6.054  0.9742E+00  0.1846E+01
     -5.965  0.1268E+01  0.1946E+01
     -5.876  0.7770E-01  0.2000E+01
     -5.787  0.0000E+00  0.2000E+01
     -5.698  0.0000E+00  0.2000E+01
     -5.609  0.0000E+00  0.2000E+01
     -5.520  0.0000E+00  0.2000E+01
     -5.431  0.0000E+00  0.2000E+01
     -5.342  0.0000E+00  0.2000E+01
     -5.252  0.0000E+00  0.2000E+01
     -5.163  0.0000E+00  0.2000E+01
     -5.074  0.0000E+00  0.2000E+01
     -4.985  0.0000E+00  0.2000E+01
     -4.896  0.0000E+00  0.2000E+01
     -4.807  0.0000E+00  0.2000E+01
     -4.718  0.0000E+00  0.2000E+01
     -4.629  0.0000E+00  0.2000E+01
     -4.540  0.0000E+00  0.2000E+01
     -4.451  0.0000E+00  0.2000E+01
     -4.362  0.0000E+00  0.2000E+01
     -4.273  0.0000E+00  0.2000E+01
     -4.184  0.0000E+00  0.2000E+01
     -4.094  0.0000E+00  0.2000E+01
     -4.005  0.0000E+00  0.2000E+01
     -3.916  0.0000E+00  0.2000E+01
     -3.827  0.0000E+00  0.2000E+01
     -3.738  0.0000E+00  0.2000E+01
     -3.649  0.0000E+00  0.2000E+01
     -3.560  0.0000E+00  0.2000E+01
     -3.471  0.0000E+00  0.2000E+01
     -3.382  0.0000E+00  0.2000E+01
     -3.293  0.0000E+00  0.2000E+01
     -3.204  0.0000E+00  0.2000E+01
     -3.115  0.0000E+00  0.2000E+01
     -3.025  0.2675E+00  0.2010E+01
     -2.936  0.5565E+00  0.2048E+01
     -2.847  0.8688E+00  0.2111E+01
     -2.758  0.1301E+01  0.2206E+01
     -2.669  0.2223E+01  0.2361E+01
     -2.580  0.1766E+01  0.2580E+01
     -2.491  0.1250E+01  0.2710E+01
     -2.402  0.9779E+00  0.2808E+01
     -2.313  0.8458E+00  0.2889E+01
     -2.224  0.7418E+00  0.2960E+01
     -2.135  0.6540E+00  0.3022E+01
     -2.046  0.6024E+00  0.3078E+01
     -1.957  0.5523E+00  0.3129E+01
     -1.867  0.5003E+00  0.3176E+01
     -1.778  0.4703E+00  0.3219E+01
     -1.689  0.4431E+00  0.3260E+01
     -1.600  0.4148E+00  0.3298E+01
     -1.511  0.3846E+00  0.3334E+01
     -1.422  0.3634E+00  0.3367E+01
     -1.333  0.3466E+00  0.3398E+01
     -1.244  0.3302E+00  0.3429E+01
     -1.155  0.3114E+00  0.3457E+01
     -1.066  0.2914E+00  0.3484E+01
     -0.977  0.2781E+00  0.3509E+01
     -0.888  0.2674E+00  0.3534E+01
     -0.798  0.2564E+00  0.3557E+01
     -0.709  0.2440E+00  0.3579E+01
     -0.620  0.2316E+00  0.3600E+01
     -0.531  0.2172E+00  0.3620E+01
     -0.442  0.3928E+00  0.3641E+01
     -0.353  0.5723E+00  0.3682E+01
     -0.264  0.7122E+00  0.3738E+01
     -0.175  0.9846E+00  0.3813E+01
     -0.086  0.1086E+01  0.3909E+01
      0.003  0.1010E+01  0.4002E+01
      0.092  0.9414E+00  0.4088E+01
      0.181  0.9164E+00  0.4171E+01
      0.271  0.8774E+00  0.4250E+01
      0.360  0.8650E+00  0.4328E+01
      0.449  0.8740E+00  0.4405E+01
      0.538  0.9092E+00  0.4485E+01
      0.627  0.9111E+00  0.4566E+01
      0.716  0.9449E+00  0.4649E+01
      0.805  0.9590E+00  0.4733E+01
      0.894  0.1022E+01  0.4822E+01
      0.983  0.1052E+01  0.4915E+01
      1.072  0.1096E+01  0.5011E+01
      1.161  0.1272E+01  0.5115E+01
      1.250  0.1344E+01  0.5233E+01
      1.339  0.1340E+01  0.5353E+01
      1.429  0.1311E+01  0.5470E+01
      1.518  0.1295E+01  0.5586E+01
      1.607  0.1270E+01  0.5701E+01
      1.696  0.1259E+01  0.5813E+01
      1.785  0.1245E+01  0.5925E+01
      1.874  0.1220E+01  0.6035E+01
      1.963  0.1208E+01  0.6143E+01
      2.052  0.1187E+01  0.6249E+01
      2.141  0.1173E+01  0.6354E+01
      2.230  0.1159E+01  0.6458E+01
      2.319  0.1145E+01  0.6561E+01
      2.408  0.1123E+01  0.6662E+01
      2.498  0.1107E+01  0.6761E+01
      2.587  0.1098E+01  0.6859E+01
      2.676  0.1084E+01  0.6956E+01
      2.765  0.1071E+01  0.7052E+01
      2.854  0.1057E+01  0.7147E+01
      2.943  0.1052E+01  0.7241E+01
      3.032  0.1034E+01  0.7334E+01
      3.121  0.9939E+00  0.7425E+01
      3.210  0.7767E+00  0.7502E+01
      3.299  0.6734E+00  0.7566E+01
      3.388  0.6007E+00  0.7623E+01
      3.477  0.5361E+00  0.7673E+01
      3.566  0.4852E+00  0.7719E+01
      3.656  0.4416E+00  0.7760E+01
      3.745  0.3974E+00  0.7797E+01
      3.834  0.3566E+00  0.7831E+01
      3.923  0.3190E+00  0.7861E+01
      4.012  0.2846E+00  0.7888E+01
      4.101  0.2542E+00  0.7912E+01
      4.190  0.2211E+00  0.7933E+01
      4.279  0.1884E+00  0.7951E+01
      4.368  0.1665E+00  0.7967E+01
      4.457  0.1327E+00  0.7980E+01
      4.546  0.1023E+00  0.7991E+01
      4.635  0.5451E-01  0.7998E+01
      4.725  0.6068E-03  0.8000E+01
      4.814  0.0000E+00  0.8000E+01
      4.903  0.0000E+00  0.8000E+01
      4.992  0.0000E+00  0.8000E+01
      5.081  0.0000E+00  0.8000E+01
      5.170  0.0000E+00  0.8000E+01
      5.259  0.0000E+00  0.8000E+01
      5.348  0.0000E+00  0.8000E+01
      5.437  0.0000E+00  0.8000E+01
      5.526  0.0000E+00  0.8000E+01
      5.615  0.0000E+00  0.8000E+01
      5.704  0.0000E+00  0.8000E+01
      5.793  0.0000E+00  0.8000E+01
      5.883  0.0000E+00  0.8000E+01
      5.972  0.0000E+00  0.8000E+01
      6.061  0.7679E-02  0.8000E+01
      6.150  0.9471E-01  0.8004E+01
      6.239  0.1543E+00  0.8016E+01
      6.328  0.2159E+00  0.8032E+01
      6.417  0.2803E+00  0.8054E+01
      6.506  0.3516E+00  0.8082E+01
      6.595  0.3890E+00  0.8115E+01
      6.684  0.4325E+00  0.8152E+01
      6.773  0.5172E+00  0.8194E+01
      6.862  0.6353E+00  0.8245E+01
      6.952  0.7104E+00  0.8304E+01
      7.041  0.8016E+00  0.8372E+01
      7.130  0.8819E+00  0.8447E+01
      7.219  0.9796E+00  0.8529E+01
      7.308  0.1102E+01  0.8622E+01
      7.397  0.1257E+01  0.8727E+01
      7.486  0.1506E+01  0.8849E+01
      7.575  0.2042E+01  0.9005E+01
      7.664  0.1834E+01  0.9186E+01
      7.753  0.1468E+01  0.9330E+01
      7.842  0.1361E+01  0.9457E+01
      7.931  0.1303E+01  0.9575E+01
      8.020  0.1284E+01  0.9690E+01
      8.110  0.1222E+01  0.9801E+01
      8.199  0.1021E+01  0.9901E+01
      8.288  0.9288E+00  0.9985E+01
      8.377  0.8879E+00  0.1007E+02
      8.466  0.8471E+00  0.1015E+02
      8.555  0.8179E+00  0.1022E+02
      8.644  0.8317E+00  0.1029E+02
      8.733  0.9040E+00  0.1037E+02
      8.822  0.9155E+00  0.1045E+02
      8.911  0.1012E+01  0.1054E+02
      9.000  0.1166E+01  0.1063E+02
      9.089  0.1675E+01  0.1075E+02
      9.179  0.2103E+01  0.1092E+02
      9.268  0.1964E+01  0.1111E+02
      9.357  0.1633E+01  0.1128E+02
      9.446  0.1406E+01  0.1142E+02
      9.535  0.1349E+01  0.1154E+02
      9.624  0.1285E+01  0.1166E+02
      9.713  0.1284E+01  0.1177E+02
      9.802  0.1210E+01  0.1189E+02
      9.891  0.1091E+01  0.1199E+02
      9.980  0.1042E+01  0.1208E+02
     10.069  0.1005E+01  0.1217E+02
     10.158  0.9720E+00  0.1226E+02
     10.247  0.9141E+00  0.1235E+02
     10.337  0.1040E+01  0.1243E+02
     10.426  0.1162E+01  0.1253E+02
     10.515  0.1303E+01  0.1264E+02
     10.604  0.1436E+01  0.1276E+02
     10.693  0.1306E+01  0.1288E+02
     10.782  0.1352E+01  0.1300E+02
     10.871  0.1306E+01  0.1312E+02
     10.960  0.1281E+01  0.1323E+02
     11.049  0.1354E+01  0.1335E+02
     11.138  0.1220E+01  0.1346E+02
     11.227  0.1200E+01  0.1357E+02
     11.316  0.1147E+01  0.1368E+02
     11.406  0.1071E+01  0.1378E+02
     11.495  0.1104E+01  0.1387E+02
     11.584  0.1037E+01  0.1397E+02
     11.673  0.8084E+00  0.1405E+02
     11.762  0.7914E+00  0.1412E+02
     11.851  0.7682E+00  0.1419E+02
     11.940  0.7594E+00  0.1425E+02
     12.029  0.7587E+00  0.1432E+02
     12.118  0.7770E+00  0.1439E+02
     12.207  0.8210E+00  0.1446E+02
     12.296  0.8583E+00  0.1454E+02
     12.385  0.8880E+00  0.1461E+02
     12.474  0.9369E+00  0.1469E+02
     12.564  0.1014E+01  0.1478E+02
     12.653  0.1115E+01  0.1487E+02
     12.742  0.1372E+01  0.1498E+02
     12.831  0.1590E+01  0.1512E+02
     12.920  0.1179E+01  0.1525E+02
     13.009  0.9973E+00  0.1535E+02
     13.098  0.9288E+00  0.1543E+02
     13.187  0.8376E+00  0.1551E+02
     13.276  0.1148E+01  0.1559E+02
     13.365  0.4519E+00  0.1566E+02
     13.454  0.4144E+00  0.1570E+02
     13.543  0.3920E+00  0.1573E+02
     13.633  0.3685E+00  0.1577E+02
     13.722  0.3416E+00  0.1580E+02
     13.811  0.3134E+00  0.1583E+02
     13.900  0.2846E+00  0.1585E+02
     13.989  0.2574E+00  0.1588E+02
     14.078  0.2332E+00  0.1590E+02
     14.167  0.2134E+00  0.1592E+02
     14.256  0.1943E+00  0.1594E+02
     14.345  0.1765E+00  0.1595E+02
     14.434  0.1422E+00  0.1597E+02
     14.523  0.1144E+00  0.1598E+02
     14.612  0.9067E-01  0.1599E+02
     14.701  0.7532E-01  0.1600E+02
     14.791  0.5355E-02  0.1600E+02
     14.880  0.0000E+00  0.1600E+02
     14.969  0.0000E+00  0.1600E+02
     15.058  0.0000E+00  0.1600E+02
     15.147  0.0000E+00  0.1600E+02
     15.236  0.0000E+00  0.1600E+02
     15.325  0.0000E+00  0.1600E+02
     15.414  0.0000E+00  0.1600E+02
     15.503  0.0000E+00  0.1600E+02
     15.592  0.0000E+00  0.1600E+02
     15.681  0.0000E+00  0.1600E+02
     15.770  0.0000E+00  0.1600E+02
     15.860  0.0000E+00  0.1600E+02
     15.949  0.0000E+00  0.1600E+02
     16.038  0.0000E+00  0.1600E+02
