    2    2    1    1
  0.1564460E+02  0.3537011E-09  0.3537011E-09  0.3537011E-09  0.0000000E+00
  1.000000000000000E-004
  CAR 
 unknown system                          
      8    328      8
 
  0.0000000E+00  0.0000000E+00  0.0000000E+00  0.9391435E-04
    1       -9.471617   1.000000
    2        4.733610   1.000000
    3        4.733610   1.000000
    4        4.733610   1.000000
    5        7.770305   0.000000
    6        7.842129   0.000000
    7        7.842129   0.000000
    8        7.842129   0.000000
 
  0.4545455E-01  0.0000000E+00  0.0000000E+00  0.7513148E-03
    1       -9.441783   1.000000
    2        4.378155   1.000000
    3        4.674498   1.000000
    4        4.674498   1.000000
    5        7.712687   0.000000
    6        7.920332   0.000000
    7        7.920332   0.000000
    8        8.191792   0.000000
 
  0.9090909E-01  0.0000000E+00  0.0000000E+00  0.7513148E-03
    1       -9.352580   1.000000
    2        3.578283   1.000000
    3        4.517273   1.000000
    4        4.517273   1.000000
    5        7.613964   0.000000
    6        8.129944   0.000000
    7        8.129944   0.000000
    8        8.909780   0.000000
 
  0.1363636E+00  0.0000000E+00  0.0000000E+00  0.7513148E-03
    1       -9.205207   1.000000
    2        2.626068   1.000000
    3        4.303682   1.000000
    4        4.303682   1.000000
    5        7.477782   0.000000
    6        8.414538   0.000000
    7        8.414538   0.000000
    8        9.725534   0.000000
 
  0.1818182E+00  0.0000000E+00  0.0000000E+00  0.7513148E-03
    1       -9.001824   1.000000
    2        1.638947   1.000000
    3        4.071037   1.000000
    4        4.071037   1.000000
    5        7.323905   0.000000
    6        8.713694   0.000000
    7        8.713694   0.000000
    8       10.534173   0.000000
 
  0.2272727E+00  0.0000000E+00  0.0000000E+00  0.7513148E-03
    1       -8.746205   1.000000
    2        0.666835   1.000000
    3        3.844379   1.000000
    4        3.844379   1.000000
    5        7.169858   0.000000
    6        8.976235   0.000000
    7        8.976235   0.000000
    8       11.297737   0.000000
 
  0.2727273E+00  0.0000000E+00  0.0000000E+00  0.7513148E-03
    1       -8.444659   1.000000
    2       -0.261447   1.000000
    3        3.638888   1.000000
    4        3.638888   1.000000
    5        7.027861   0.000000
    6        9.168528   0.000000
    7        9.168528   0.000000
    8       11.988528   0.000000
 
  0.3181818E+00  0.0000000E+00  0.0000000E+00  0.7513148E-03
    1       -8.108071   1.000000
    2       -1.122317   1.000000
    3        3.463491   1.000000
    4        3.463491   1.000000
    5        6.905578   0.000000
    6        9.282037   0.000000
    7        9.282037   0.000000
    8       12.561526   0.000000
 
  0.3636364E+00  0.0000000E+00  0.0000000E+00  0.7513148E-03
    1       -7.755801   1.000000
    2       -1.888566   1.000000
    3        3.323446   1.000000
    4        3.323447   1.000000
    5        6.807582   0.000000
    6        9.331386   0.000000
    7        9.331386   0.000000
    8       12.958101   0.000000
 
  0.4090909E+00  0.0000000E+00  0.0000000E+00  0.7513148E-03
    1       -7.422783   1.000000
    2       -2.520289   1.000000
    3        3.221787   1.000000
    4        3.221788   1.000000
    5        6.736365   0.000000
    6        9.342125   0.000000
    7        9.342125   0.000000
    8       13.165424   0.000000
 
  0.4545455E+00  0.0000000E+00  0.0000000E+00  0.7513148E-03
    1       -7.168577   1.000000
    2       -2.954866   1.000000
    3        3.160227   1.000000
    4        3.160227   1.000000
    5        6.693245   0.000000
    6        9.338170   0.000000
    7        9.338170   0.000000
    8       13.245261   0.000000
 
  0.5000000E+00  0.0000000E+00  0.0000000E+00  0.3756574E-03
    1       -7.070179   1.000000
    2       -3.113536   1.000000
    3        3.139642   1.000000
    4        3.139642   1.000000
    5        6.678837   0.000000
    6        9.335104   0.000000
    7        9.335104   0.000000
    8       13.263930   0.000000
 
  0.4545455E-01  0.4545455E-01  0.0000000E+00  0.5634861E-03
    1       -9.431822   1.000000
    2        4.451215   1.000000
    3        4.555752   1.000000
    4        4.555752   1.000000
    5        7.662317   0.000000
    6        8.063501   0.000000
    7        8.063501   0.000000
    8        8.112324   0.000000
 
  0.9090909E-01  0.4545455E-01  0.0000000E+00  0.2253944E-02
    1       -9.362367   1.000000
    2        3.815184   1.000000
    3        4.357404   1.000000
    4        4.493593   1.000000
    5        7.637407   0.000000
    6        8.045181   0.000000
    7        8.321404   0.000000
    8        8.735578   0.000000
 
  0.1363636E+00  0.4545455E-01  0.0000000E+00  0.2253944E-02
    1       -9.234325   1.000000
    2        2.920125   1.000000
    3        4.121661   1.000000
    4        4.354231   1.000000
    5        7.630767   0.000000
    6        8.111442   0.000000
    7        8.638415   0.000000
    8        9.513395   0.000000
 
  0.1818182E+00  0.4545455E-01  0.0000000E+00  0.2253944E-02
    1       -9.049458   1.000000
    2        1.953887   1.000000
    3        3.881035   1.000000
    4        4.148950   1.000000
    5        7.536092   0.000000
    6        8.331990   0.000000
    7        8.959475   0.000000
    8       10.288987   0.000000
 
  0.2272727E+00  0.4545455E-01  0.0000000E+00  0.2253944E-02
    1       -8.810967   1.000000
    2        0.983939   1.000000
    3        3.656449   1.000000
    4        3.917603   1.000000
    5        7.399993   0.000000
    6        8.604951   0.000000
    7        9.236471   0.000000
    8       11.012654   0.000000
 
  0.2727273E+00  0.4545455E-01  0.0000000E+00  0.2253944E-02
    1       -8.524133   1.000000
    2        0.045855   1.000000
    3        3.460486   1.000000
    4        3.687141   1.000000
    5        7.260452   0.000000
    6        8.848926   0.000000
    7        9.434783   0.000000
    8       11.667760   0.000000
 
  0.3181818E+00  0.4545455E-01  0.0000000E+00  0.2253944E-02
    1       -8.198040   1.000000
    2       -0.834856   1.000000
    3        3.300591   1.000000
    4        3.473799   1.000000
    5        7.133772   0.000000
    6        9.026194   0.000000
    7        9.542518   0.000000
    8       12.244246   0.000000
 
  0.3636364E+00  0.4545455E-01  0.0000000E+00  0.2253944E-02
    1       -7.848597   1.000000
    2       -1.632365   1.000000
    3        3.180930   1.000000
    4        3.287310   1.000000
    5        7.027962   0.000000
    6        9.135320   0.000000
    7        9.572024   0.000000
    8       12.716280   0.000000
 
  0.4090909E+00  0.4545455E-01  0.0000000E+00  0.2253944E-02
    1       -7.504526   1.000000
    2       -2.311757   1.000000
    3        3.103684   1.000000
    4        3.133691   1.000000
    5        6.947266   0.000000
    6        9.197733   0.000000
    7        9.549714   0.000000
    8       13.044135   0.000000
 
  0.4545455E+00  0.4545455E-01  0.0000000E+00  0.2253944E-02
    1       -7.216396   1.000000
    2       -2.818565   1.000000
    3        3.016877   1.000000
    4        3.069666   1.000000
    5        6.893871   0.000000
    6        9.239683   0.000000
    7        9.502531   0.000000
    8       13.222086   0.000000
 
  0.5000000E+00  0.4545455E-01  0.0000000E+00  0.2253944E-02
    1       -7.058554   1.000000
    2       -3.076181   1.000000
    3        2.939558   1.000000
    4        3.078740   1.000000
    5        6.868858   0.000000
    6        9.280764   0.000000
    7        9.449921   0.000000
    8       13.291376   0.000000
 
 -0.4545455E+00  0.4545455E-01  0.0000000E+00  0.2253944E-02
    1       -7.091948   1.000000
    2       -3.022721   1.000000
    3        2.903637   1.000000
    4        3.130032   1.000000
    5        6.872593   0.000000
    6        9.330038   0.000000
    7        9.401174   0.000000
    8       13.286561   0.000000
 
 -0.4090909E+00  0.4545455E-01  0.0000000E+00  0.2253944E-02
    1       -7.302146   1.000000
    2       -2.672769   1.000000
    3        2.910426   1.000000
    4        3.222054   1.000000
    5        6.905022   0.000000
    6        9.355039   0.000000
    7        9.385476   0.000000
    8       13.200838   0.000000
 
 -0.3636364E+00  0.4545455E-01  0.0000000E+00  0.2253944E-02
    1       -7.616275   1.000000
    2       -2.100648   1.000000
    3        2.960652   1.000000
    4        3.352551   1.000000
    5        6.965595   0.000000
    6        9.299950   0.000000
    7        9.433654   0.000000
    8       12.989296   0.000000
 
 -0.3181818E+00  0.4545455E-01  0.0000000E+00  0.2253944E-02
    1       -7.966463   1.000000
    2       -1.376970   1.000000
    3        3.054361   1.000000
    4        3.518340   1.000000
    5        7.053031   0.000000
    6        9.215698   0.000000
    7        9.450010   0.000000
    8       12.613590   0.000000
 
 -0.2727273E+00  0.4545455E-01  0.0000000E+00  0.2253944E-02
    1       -8.310507   1.000000
    2       -0.548653   1.000000
    3        3.190657   1.000000
    4        3.714658   1.000000
    5        7.164909   0.000000
    6        9.079234   0.000000
    7        9.402109   0.000000
    8       12.093183   0.000000
 
 -0.2272727E+00  0.4545455E-01  0.0000000E+00  0.2253944E-02
    1       -8.624814   1.000000
    2        0.353269   1.000000
    3        3.367357   1.000000
    4        3.934179   1.000000
    5        7.296752   0.000000
    6        8.876692   0.000000
    7        9.261062   0.000000
    8       11.477544   0.000000
 
 -0.1818182E+00  0.4545455E-01  0.0000000E+00  0.2253944E-02
    1       -8.896290   1.000000
    2        1.303345   1.000000
    3        3.580345   1.000000
    4        4.165072   1.000000
    5        7.440617   0.000000
    6        8.616497   0.000000
    7        9.019839   0.000000
    8       10.798129   0.000000
 
 -0.1363636E+00  0.4545455E-01  0.0000000E+00  0.2253944E-02
    1       -9.117330   1.000000
    2        2.272074   1.000000
    3        3.822994   1.000000
    4        4.388143   1.000000
    5        7.582458   0.000000
    6        8.333759   0.000000
    7        8.704852   0.000000
    8       10.068600   0.000000
 
 -0.9090909E-01  0.4545455E-01  0.0000000E+00  0.2253944E-02
    1       -9.283502   1.000000
    2        3.209128   1.000000
    3        4.087097   1.000000
    4        4.573166   1.000000
    5        7.695920   0.000000
    6        8.083627   0.000000
    7        8.372377   0.000000
    8        9.313326   0.000000
 
 -0.4545455E-01  0.4545455E-01  0.0000000E+00  0.1126972E-02
    1       -9.392131   1.000000
    2        3.988429   1.000000
    3        4.380716   1.000000
    4        4.679951   1.000000
    5        7.730800   0.000000
    6        7.929359   0.000000
    7        8.107943   0.000000
    8        8.613124   0.000000
 
  0.9090909E-01  0.9090909E-01  0.0000000E+00  0.5634861E-03
    1       -9.312747   1.000000
    2        3.784190   1.000000
    3        4.132321   1.000000
    4        4.132321   1.000000
    5        7.445357   0.000000
    6        8.616451   0.000000
    7        8.616451   0.000000
    8        8.637805   0.000000
 
  0.1363636E+00  0.9090909E-01  0.0000000E+00  0.2253944E-02
    1       -9.204315   1.000000
    2        3.100810   1.000000
    3        3.881531   1.000000
    4        4.013753   1.000000
    5        7.407258   0.000000
    6        8.526248   0.000000
    7        8.963301   0.000000
    8        9.367588   0.000000
 
  0.1818182E+00  0.9090909E-01  0.0000000E+00  0.2253944E-02
    1       -9.038543   1.000000
    2        2.210284   1.000000
    3        3.634024   1.000000
    4        3.865309   1.000000
    5        7.504692   0.000000
    6        8.455431   0.000000
    7        9.311674   0.000000
    8       10.080786   0.000000
 
  0.2272727E+00  0.9090909E-01  0.0000000E+00  0.2253944E-02
    1       -8.818121   1.000000
    2        1.276329   1.000000
    3        3.408422   1.000000
    4        3.651901   1.000000
    5        7.602578   0.000000
    6        8.483732   0.000000
    7        9.614989   0.000000
    8       10.692426   0.000000
 
  0.2727273E+00  0.9090909E-01  0.0000000E+00  0.2253944E-02
    1       -8.547519   1.000000
    2        0.351653   1.000000
    3        3.216176   1.000000
    4        3.410466   1.000000
    5        7.600071   0.000000
    6        8.638120   0.000000
    7        9.836134   0.000000
    8       11.198639   0.000000
 
  0.3181818E+00  0.9090909E-01  0.0000000E+00  0.2253944E-02
    1       -8.234360   1.000000
    2       -0.531574   1.000000
    3        3.064186   1.000000
    4        3.168616   1.000000
    5        7.527877   0.000000
    6        8.828850   0.000000
    7        9.957424   0.000000
    8       11.656633   0.000000
 
  0.3636364E+00  0.9090909E-01  0.0000000E+00  0.2253944E-02
    1       -7.891800   1.000000
    2       -1.345907   1.000000
    3        2.943300   1.000000
    4        2.956386   1.000000
    5        7.439650   0.000000
    6        8.977884   0.000000
    7        9.986183   0.000000
    8       12.123607   0.000000
 
  0.4090909E+00  0.9090909E-01  0.0000000E+00  0.2253944E-02
    1       -7.543438   1.000000
    2       -2.058985   1.000000
    3        2.744921   1.000000
    4        2.894729   1.000000
    5        7.361510   0.000000
    6        9.074656   0.000000
    7        9.947573   0.000000
    8       12.592338   0.000000
 
  0.4545455E+00  0.9090909E-01  0.0000000E+00  0.2253944E-02
    1       -7.231405   1.000000
    2       -2.623167   1.000000
    3        2.580240   1.000000
    4        2.879755   1.000000
    5        7.304529   0.000000
    6        9.142353   0.000000
    7        9.870579   0.000000
    8       12.994058   0.000000
 
  0.5000000E+00  0.9090909E-01  0.0000000E+00  0.2253944E-02
    1       -7.023124   1.000000
    2       -2.967796   1.000000
    3        2.454025   1.000000
    4        2.910914   1.000000
    5        7.273480   0.000000
    6        9.206194   0.000000
    7        9.778131   0.000000
    8       13.253821   0.000000
 
 -0.4545455E+00  0.9090909E-01  0.0000000E+00  0.2253944E-02
    1       -6.990616   1.000000
    2       -3.019213   1.000000
    3        2.369829   1.000000
    4        2.986701   1.000000
    5        7.270093   0.000000
    6        9.281418   0.000000
    7        9.683199   0.000000
    8       13.340597   0.000000
 
 -0.4090909E+00  0.9090909E-01  0.0000000E+00  0.2253944E-02
    1       -7.147825   1.000000
    2       -2.763354   1.000000
    3        2.330411   1.000000
    4        3.104693   1.000000
    5        7.294512   0.000000
    6        9.371393   0.000000
    7        9.588068   0.000000
    8       13.248842   0.000000
 
 -0.3636364E+00  0.9090909E-01  0.0000000E+00  0.2253944E-02
    1       -7.434336   1.000000
    2       -2.261884   1.000000
    3        2.337962   1.000000
    4        3.261453   1.000000
    5        7.345800   0.000000
    6        9.467075   0.000000
    7        9.484802   0.000000
    8       12.973102   0.000000
 
 -0.3181818E+00  0.9090909E-01  0.0000000E+00  0.2253944E-02
    1       -7.776546   1.000000
    2       -1.591471   1.000000
    3        2.394213   1.000000
    4        3.452128   1.000000
    5        7.421961   0.000000
    6        9.356752   0.000000
    7        9.544790   0.000000
    8       12.541137   0.000000
 
 -0.2727273E+00  0.9090909E-01  0.0000000E+00  0.2253944E-02
    1       -8.124232   1.000000
    2       -0.807802   1.000000
    3        2.500670   1.000000
    4        3.669882   1.000000
    5        7.519431   0.000000
    6        9.184361   0.000000
    7        9.563696   0.000000
    8       12.026466   0.000000
 
 -0.2272727E+00  0.9090909E-01  0.0000000E+00  0.2253944E-02
    1       -8.448822   1.000000
    2        0.050967   1.000000
    3        2.659121   1.000000
    4        3.904580   1.000000
    5        7.631635   0.000000
    6        8.956933   0.000000
    7        9.471614   0.000000
    8       11.502208   0.000000
 
 -0.1818182E+00  0.9090909E-01  0.0000000E+00  0.2253944E-02
    1       -8.734403   1.000000
    2        0.951148   1.000000
    3        2.873612   1.000000
    4        4.140718   1.000000
    5        7.745710   0.000000
    6        8.686210   0.000000
    7        9.238538   0.000000
    8       10.994096   0.000000
 
 -0.1363636E+00  0.9090909E-01  0.0000000E+00  0.2253944E-02
    1       -8.971907   1.000000
    2        1.846072   1.000000
    3        3.157361   1.000000
    4        4.354446   1.000000
    5        7.833655   0.000000
    6        8.411022   0.000000
    7        8.904475   0.000000
    8       10.468159   0.000000
 
 -0.9090909E-01  0.9090909E-01  0.0000000E+00  0.1126972E-02
    1       -9.155997   1.000000
    2        2.641557   1.000000
    3        3.552811   1.000000
    4        4.511500   1.000000
    5        7.832629   0.000000
    6        8.189756   0.000000
    7        8.584271   0.000000
    8        9.890866   0.000000
 
  0.1363636E+00  0.1363636E+00  0.0000000E+00  0.5634861E-03
    1       -9.115536   1.000000
    2        2.955219   1.000000
    3        3.620780   1.000000
    4        3.620780   1.000000
    5        7.158190   0.000000
    6        9.128205   0.000000
    7        9.340570   0.000000
    8        9.340570   0.000000
 
  0.1818182E+00  0.1363636E+00  0.0000000E+00  0.2253944E-02
    1       -8.969187   1.000000
    2        2.309433   1.000000
    3        3.366702   1.000000
    4        3.440638   1.000000
    5        7.112937   0.000000
    6        9.060757   0.000000
    7        9.722677   0.000000
    8        9.944333   0.000000
 
  0.2272727E+00  0.1363636E+00  0.0000000E+00  0.2253944E-02
    1       -8.767498   1.000000
    2        1.479752   1.000000
    3        3.137162   1.000000
    4        3.250186   1.000000
    5        7.236561   0.000000
    6        8.964513   0.000000
    7       10.063918   0.000000
    8       10.447490   0.000000
 
  0.2727273E+00  0.1363636E+00  0.0000000E+00  0.2253944E-02
    1       -8.514305   1.000000
    2        0.610026   1.000000
    3        2.943446   1.000000
    4        3.007114   1.000000
    5        7.414181   0.000000
    6        8.944910   0.000000
    7       10.324085   0.000000
    8       10.775120   0.000000
 
  0.3181818E+00  0.1363636E+00  0.0000000E+00  0.2253944E-02
    1       -8.216054   1.000000
    2       -0.246708   1.000000
    3        2.741838   1.000000
    4        2.792487   1.000000
    5        7.534699   0.000000
    6        9.025785   0.000000
    7       10.478385   0.000000
    8       11.032284   0.000000
 
  0.3636364E+00  0.1363636E+00  0.0000000E+00  0.2253944E-02
    1       -7.883747   1.000000
    2       -1.055681   1.000000
    3        2.480520   1.000000
    4        2.688371   1.000000
    5        7.569746   0.000000
    6        9.153490   0.000000
    7       10.526669   0.000000
    8       11.358408   0.000000
 
  0.4090909E+00  0.1363636E+00  0.0000000E+00  0.2253944E-02
    1       -7.536863   1.000000
    2       -1.783360   1.000000
    3        2.239799   1.000000
    4        2.633200   1.000000
    5        7.558758   0.000000
    6        9.254150   0.000000
    7       10.490456   0.000000
    8       11.816621   0.000000
 
  0.4545455E+00  0.1363636E+00  0.0000000E+00  0.2253944E-02
    1       -7.210241   1.000000
    2       -2.386250   1.000000
    3        2.030228   1.000000
    4        2.627601   1.000000
    5        7.541336   0.000000
    6        9.315767   0.000000
    7       10.399679   0.000000
    8       12.363985   0.000000
 
  0.5000000E+00  0.1363636E+00  0.0000000E+00  0.2253944E-02
    1       -6.962530   1.000000
    2       -2.800511   1.000000
    3        1.858968   1.000000
    4        2.671002   1.000000
    5        7.538519   0.000000
    6        9.363641   0.000000
    7       10.280311   0.000000
    8       12.887870   0.000000
 
 -0.4545455E+00  0.1363636E+00  0.0000000E+00  0.2253944E-02
    1       -6.868369   1.000000
    2       -2.948752   1.000000
    3        1.731293   1.000000
    4        2.761721   1.000000
    5        7.558773   0.000000
    6        9.421427   0.000000
    7       10.148719   0.000000
    8       13.232380   0.000000
 
 -0.4090909E+00  0.1363636E+00  0.0000000E+00  0.2253944E-02
    1       -6.966318   1.000000
    2       -2.791759   1.000000
    3        1.651465   1.000000
    4        2.896899   1.000000
    5        7.603690   0.000000
    6        9.501021   0.000000
    7       10.010248   0.000000
    8       13.255032   0.000000
 
 -0.3636364E+00  0.1363636E+00  0.0000000E+00  0.2253944E-02
    1       -7.216208   1.000000
    2       -2.371132   1.000000
    3        1.623326   1.000000
    4        3.072304   1.000000
    5        7.671144   0.000000
    6        9.601831   0.000000
    7        9.859653   0.000000
    8       12.949517   0.000000
 
 -0.3181818E+00  0.1363636E+00  0.0000000E+00  0.2253944E-02
    1       -7.543426   1.000000
    2       -1.765617   1.000000
    3        1.650948   1.000000
    4        3.281899   1.000000
    5        7.756527   0.000000
    6        9.683088   0.000000
    7        9.707609   0.000000
    8       12.443443   0.000000
 
 -0.2727273E+00  0.1363636E+00  0.0000000E+00  0.2253944E-02
    1       -7.889998   1.000000
    2       -1.041658   1.000000
    3        1.739950   1.000000
    4        3.517061   1.000000
    5        7.852533   0.000000
    6        9.464546   0.000000
    7        9.776797   0.000000
    8       11.883398   0.000000
 
 -0.2272727E+00  0.1363636E+00  0.0000000E+00  0.2253944E-02
    1       -8.221566   1.000000
    2       -0.250585   1.000000
    3        1.900801   1.000000
    4        3.765108   1.000000
    5        7.946549   0.000000
    6        9.198205   0.000000
    7        9.730652   0.000000
    8       11.397404   0.000000
 
 -0.1818182E+00  0.1363636E+00  0.0000000E+00  0.2253944E-02
    1       -8.518918   1.000000
    2        0.552036   1.000000
    3        2.157663   1.000000
    4        4.007177   1.000000
    5        8.013117   0.000000
    6        8.901702   0.000000
    7        9.501048   0.000000
    8       11.061315   0.000000
 
 -0.1363636E+00  0.1363636E+00  0.0000000E+00  0.1126972E-02
    1       -8.771162   1.000000
    2        1.280456   1.000000
    3        2.563328   1.000000
    4        4.215707   1.000000
    5        7.998340   0.000000
    6        8.619208   0.000000
    7        9.169831   0.000000
    8       10.796563   0.000000
 
  0.1818182E+00  0.1818182E+00  0.0000000E+00  0.5634861E-03
    1       -8.842287   1.000000
    2        2.064152   1.000000
    3        3.106200   1.000000
    4        3.106200   1.000000
    5        6.852551   0.000000
    6        9.330380   0.000000
    7       10.146293   0.000000
    8       10.146293   0.000000
 
  0.2272727E+00  0.1818182E+00  0.0000000E+00  0.2253944E-02
    1       -8.659728   1.000000
    2        1.471501   1.000000
    3        2.870634   1.000000
    4        2.883180   1.000000
    5        6.816406   0.000000
    6        9.239662   0.000000
    7       10.536966   0.000000
    8       10.555564   0.000000
 
  0.2727273E+00  0.1818182E+00  0.0000000E+00  0.2253944E-02
    1       -8.424832   1.000000
    2        0.732103   1.000000
    3        2.633063   1.000000
    4        2.671657   1.000000
    5        6.959469   0.000000
    6        9.154377   0.000000
    7       10.788223   0.000000
    8       10.851596   0.000000
 
  0.3181818E+00  0.1818182E+00  0.0000000E+00  0.2253944E-02
    1       -8.143099   1.000000
    2       -0.046909   1.000000
    3        2.341285   1.000000
    4        2.516588   1.000000
    5        7.161906   0.000000
    6        9.192409   0.000000
    7       10.866329   0.000000
    8       11.057935   0.000000
 
  0.3636364E+00  0.1818182E+00  0.0000000E+00  0.2253944E-02
    1       -7.823882   1.000000
    2       -0.812517   1.000000
    3        2.038067   1.000000
    4        2.409884   1.000000
    5        7.313884   0.000000
    6        9.384938   0.000000
    7       10.927298   0.000000
    8       11.146211   0.000000
 
  0.4090909E+00  0.1818182E+00  0.0000000E+00  0.2253944E-02
    1       -7.483428   1.000000
    2       -1.524566   1.000000
    3        1.748596   1.000000
    4        2.353952   1.000000
    5        7.390570   0.000000
    6        9.636912   0.000000
    7       11.121356   0.000000
    8       11.131679   0.000000
 
  0.4545455E+00  0.1818182E+00  0.0000000E+00  0.2253944E-02
    1       -7.150627   1.000000
    2       -2.139605   1.000000
    3        1.488884   1.000000
    4        2.349690   1.000000
    5        7.430423   0.000000
    6        9.803332   0.000000
    7       11.043519   0.000000
    8       11.552973   0.000000
 
  0.5000000E+00  0.1818182E+00  0.0000000E+00  0.2253944E-02
    1       -6.875303   1.000000
    2       -2.598904   1.000000
    3        1.269173   1.000000
    4        2.396688   1.000000
    5        7.471361   0.000000
    6        9.873600   0.000000
    7       10.910290   0.000000
    8       12.161305   0.000000
 
 -0.4545455E+00  0.1818182E+00  0.0000000E+00  0.2253944E-02
    1       -6.728471   1.000000
    2       -2.826578   1.000000
    3        1.096718   1.000000
    4        2.493337   1.000000
    5        7.532848   0.000000
    6        9.910503   0.000000
    7       10.751568   0.000000
    8       12.771362   0.000000
 
 -0.4090909E+00  0.1818182E+00  0.0000000E+00  0.2253944E-02
    1       -6.765514   1.000000
    2       -2.765675   1.000000
    3        0.977542   1.000000
    4        2.636699   1.000000
    5        7.620710   0.000000
    6        9.954231   0.000000
    7       10.575220   0.000000
    8       13.105482   0.000000
 
 -0.3636364E+00  0.1818182E+00  0.0000000E+00  0.2253944E-02
    1       -6.970650   1.000000
    2       -2.434020   1.000000
    3        0.917792   1.000000
    4        2.822243   1.000000
    5        7.732203   0.000000
    6       10.021006   0.000000
    7       10.377839   0.000000
    8       12.907102   0.000000
 
 -0.3181818E+00  0.1818182E+00  0.0000000E+00  0.2253944E-02
    1       -7.274953   1.000000
    2       -1.907527   1.000000
    3        0.925707   1.000000
    4        3.043294   1.000000
    5        7.858334   0.000000
    6       10.109734   0.000000
    7       10.147414   0.000000
    8       12.360059   0.000000
 
 -0.2727273E+00  0.1818182E+00  0.0000000E+00  0.2253944E-02
    1       -7.614434   1.000000
    2       -1.266388   1.000000
    3        1.015601   1.000000
    4        3.290146   1.000000
    5        7.983955   0.000000
    6        9.871342   0.000000
    7       10.191278   0.000000
    8       11.735788   0.000000
 
 -0.2272727E+00  0.1818182E+00  0.0000000E+00  0.2253944E-02
    1       -7.948576   1.000000
    2       -0.585993   1.000000
    3        1.216830   1.000000
    4        3.548533   1.000000
    5        8.084565   0.000000
    6        9.550303   0.000000
    7       10.159059   0.000000
    8       11.243523   0.000000
 
 -0.1818182E+00  0.1818182E+00  0.0000000E+00  0.1126972E-02
    1       -8.254434   1.000000
    2        0.045175   1.000000
    3        1.583765   1.000000
    4        3.797450   1.000000
    5        8.117013   0.000000
    6        9.210279   0.000000
    7        9.869567   0.000000
    8       11.070383   0.000000
 
  0.2272727E+00  0.2272727E+00  0.0000000E+00  0.5634861E-03
    1       -8.496405   1.000000
    2        1.152400   1.000000
    3        2.627814   1.000000
    4        2.627814   1.000000
    5        6.567482   0.000000
    6        9.111976   0.000000
    7       10.988252   0.000000
    8       10.988252   0.000000
 
  0.2727273E+00  0.2272727E+00  0.0000000E+00  0.2253944E-02
    1       -8.280382   1.000000
    2        0.608642   1.000000
    3        2.384217   1.000000
    4        2.421140   1.000000
    5        6.552384   0.000000
    6        8.921211   0.000000
    7       11.308385   0.000000
    8       11.372289   0.000000
 
  0.3181818E+00  0.2272727E+00  0.0000000E+00  0.2253944E-02
    1       -8.016474   1.000000
    2       -0.033431   1.000000
    3        2.076908   1.000000
    4        2.258530   1.000000
    5        6.716119   0.000000
    6        8.833965   0.000000
    7       11.408486   0.000000
    8       11.649581   0.000000
 
  0.3636364E+00  0.2272727E+00  0.0000000E+00  0.2253944E-02
    1       -7.712789   1.000000
    2       -0.703005   1.000000
    3        1.727108   1.000000
    4        2.144926   1.000000
    5        6.926239   0.000000
    6        8.946881   0.000000
    7       11.383997   0.000000
    8       11.799117   0.000000
 
  0.4090909E+00  0.2272727E+00  0.0000000E+00  0.2253944E-02
    1       -7.383144   1.000000
    2       -1.353666   1.000000
    3        1.375484   1.000000
    4        2.083138   1.000000
    5        7.076007   0.000000
    6        9.300696   0.000000
    7       11.334976   0.000000
    8       11.826699   0.000000
 
  0.4545455E+00  0.2272727E+00  0.0000000E+00  0.2253944E-02
    1       -7.051815   1.000000
    2       -1.940762   1.000000
    3        1.050686   1.000000
    4        2.074390   1.000000
    5        7.162320   0.000000
    6        9.812673   0.000000
    7       11.348203   0.000000
    8       11.758099   0.000000
 
  0.5000000E+00  0.2272727E+00  0.0000000E+00  0.2253944E-02
    1       -6.760866   1.000000
    2       -2.408890   1.000000
    3        0.769710   1.000000
    4        2.118561   1.000000
    5        7.231874   0.000000
    6       10.277665   0.000000
    7       11.563309   0.000000
    8       11.623500   0.000000
 