 running on   48 total cores
 distrk:  each k-point on   12 cores,    4 groups
 distr:  one band on   12 cores,    1 groups
 using from now: INCAR     
 vasp.5.4.4.18Apr17-6-g9f103f2a35 (build Nov 04 2020 14:40:39) complex          
  
 POSCAR found type information on POSCAR  B  As
 POSCAR found :  2 types and       2 ions
 scaLAPACK will be used

 ----------------------------------------------------------------------------- 
|                                                                             |
|           W    W    AA    RRRRR   N    N  II  N    N   GGGG   !!!           |
|           W    W   A  A   R    R  NN   N  II  NN   N  G    G  !!!           |
|           W    W  A    A  R    R  N N  N  II  N N  N  G       !!!           |
|           W WW W  AAAAAA  RRRRR   N  N N  II  N  N N  G  GGG   !            |
|           WW  WW  A    A  R   R   N   NN  II  N   NN  G    G                |
|           W    W  A    A  R    R  N    N  II  N    N   GGGG   !!!           |
|                                                                             |
|      You have enabled k-point parallelism (KPAR>1).                         |
|      This developmental code was originally  written by Paul Kent at ORNL,  |
|      and carefully double checked in Vienna.                                |
|      GW as well as linear response parallelism added by Martijn Marsman     |
|      and Georg Kresse.                                                      |
|      Carefully verify results versus KPAR=1.                                |
|      Report problems to Paul Kent and Vienna.                               |
|                                                                             |
 ----------------------------------------------------------------------------- 

 LDA part: xc-table for Pade appr. of Perdew
 POSCAR found type information on POSCAR  B  As
 POSCAR found :  2 types and       2 ions
 generate k-points for:   22   22   22
 POSCAR, INCAR and KPOINTS ok, starting setup
 FFT: planning ...
 WAVECAR not read
 entering main loop
       N       E                     dE             d eps       ncg     rms          rms(c)
DAV:   1     0.936390456360E+01    0.93639E+01   -0.38045E+03  5256   0.857E+02
DAV:   2    -0.113673338605E+02   -0.20731E+02   -0.20392E+02  8264   0.998E+01
DAV:   3    -0.116650105683E+02   -0.29768E+00   -0.29768E+00  6304   0.141E+01
DAV:   4    -0.116654317896E+02   -0.42122E-03   -0.42122E-03  7664   0.553E-01
DAV:   5    -0.116654320126E+02   -0.22294E-06   -0.22294E-06  6272   0.913E-03    0.335E+00
RMM:   6    -0.112801514245E+02    0.38528E+00   -0.43728E-01  5304   0.413E+00    0.149E+00
RMM:   7    -0.112458043236E+02    0.34347E-01   -0.59682E-02  5608   0.158E+00    0.710E-01
RMM:   8    -0.112411678923E+02    0.46364E-02   -0.18313E-02  5575   0.104E+00    0.810E-02
RMM:   9    -0.112416020260E+02   -0.43413E-03   -0.13513E-03  5862   0.257E-01    0.545E-02
RMM:  10    -0.112414797600E+02    0.12227E-03   -0.10439E-04  5802   0.749E-02    0.165E-02
RMM:  11    -0.112414823970E+02   -0.26370E-05   -0.84803E-05  5695   0.556E-02    0.120E-02
RMM:  12    -0.112414739188E+02    0.84782E-05   -0.93328E-06  5705   0.204E-02    0.716E-04
RMM:  13    -0.112414739514E+02   -0.32564E-07   -0.19814E-07  3904   0.334E-03
   1 F= -.11241474E+02 E0= -.11241474E+02  d E =0.000000E+00
