unknown system                          
           1
     0.000000    2.501045    2.501045
     2.501045    0.000000    2.501045
     2.501045    2.501045    0.000000
   B    As
   1   1
Direct configuration=     1
   0.75000000  0.75000000  0.75000000
   0.00000000  0.00000000  0.00000000
