   2   2   0   0
  0.2242797E+02  0.3988213E-09  0.3988213E-09  0.3988213E-09  0.0000000E+00
   1.0000000000000000E-004
  CAR 
 unknown system                          
     21.75636924    -23.64277955  301     -0.73239298      1.00000000
    -23.643  0.0000E+00  0.0000E+00
    -23.491  0.0000E+00  0.0000E+00
    -23.340  0.0000E+00  0.0000E+00
    -23.189  0.0000E+00  0.0000E+00
    -23.037  0.0000E+00  0.0000E+00
    -22.886  0.0000E+00  0.0000E+00
    -22.735  0.0000E+00  0.0000E+00
    -22.583  0.0000E+00  0.0000E+00
    -22.432  0.0000E+00  0.0000E+00
    -22.281  0.0000E+00  0.0000E+00
    -22.129  0.0000E+00  0.0000E+00
    -21.978  0.0000E+00  0.0000E+00
    -21.827  0.0000E+00  0.0000E+00
    -21.675  0.0000E+00  0.0000E+00
    -21.524  0.3965E+02  0.6000E+01
    -21.373  0.0000E+00  0.6000E+01
    -21.221  0.0000E+00  0.6000E+01
    -21.070  0.0000E+00  0.6000E+01
    -20.919  0.0000E+00  0.6000E+01
    -20.768  0.0000E+00  0.6000E+01
    -20.616  0.0000E+00  0.6000E+01
    -20.465  0.0000E+00  0.6000E+01
    -20.314  0.0000E+00  0.6000E+01
    -20.162  0.0000E+00  0.6000E+01
    -20.011  0.0000E+00  0.6000E+01
    -19.860  0.0000E+00  0.6000E+01
    -19.708  0.0000E+00  0.6000E+01
    -19.557  0.0000E+00  0.6000E+01
    -19.406  0.0000E+00  0.6000E+01
    -19.254  0.0000E+00  0.6000E+01
    -19.103  0.0000E+00  0.6000E+01
    -18.952  0.0000E+00  0.6000E+01
    -18.800  0.0000E+00  0.6000E+01
    -18.649  0.0000E+00  0.6000E+01
    -18.498  0.0000E+00  0.6000E+01
    -18.346  0.0000E+00  0.6000E+01
    -18.195  0.0000E+00  0.6000E+01
    -18.044  0.0000E+00  0.6000E+01
    -17.892  0.0000E+00  0.6000E+01
    -17.741  0.0000E+00  0.6000E+01
    -17.590  0.0000E+00  0.6000E+01
    -17.438  0.0000E+00  0.6000E+01
    -17.287  0.0000E+00  0.6000E+01
    -17.136  0.0000E+00  0.6000E+01
    -16.984  0.0000E+00  0.6000E+01
    -16.833  0.0000E+00  0.6000E+01
    -16.682  0.0000E+00  0.6000E+01
    -16.530  0.0000E+00  0.6000E+01
    -16.379  0.0000E+00  0.6000E+01
    -16.228  0.0000E+00  0.6000E+01
    -16.076  0.0000E+00  0.6000E+01
    -15.925  0.0000E+00  0.6000E+01
    -15.774  0.0000E+00  0.6000E+01
    -15.622  0.0000E+00  0.6000E+01
    -15.471  0.0000E+00  0.6000E+01
    -15.320  0.0000E+00  0.6000E+01
    -15.168  0.0000E+00  0.6000E+01
    -15.017  0.0000E+00  0.6000E+01
    -14.866  0.0000E+00  0.6000E+01
    -14.714  0.0000E+00  0.6000E+01
    -14.563  0.0000E+00  0.6000E+01
    -14.412  0.0000E+00  0.6000E+01
    -14.260  0.0000E+00  0.6000E+01
    -14.109  0.0000E+00  0.6000E+01
    -13.958  0.0000E+00  0.6000E+01
    -13.806  0.0000E+00  0.6000E+01
    -13.655  0.0000E+00  0.6000E+01
    -13.504  0.0000E+00  0.6000E+01
    -13.352  0.5979E+00  0.6012E+01
    -13.201  0.3142E+01  0.6221E+01
    -13.050  0.1510E+02  0.7009E+01
    -12.898  0.5131E+01  0.8000E+01
    -12.747  0.0000E+00  0.8000E+01
    -12.596  0.0000E+00  0.8000E+01
    -12.444  0.0000E+00  0.8000E+01
    -12.293  0.0000E+00  0.8000E+01
    -12.142  0.0000E+00  0.8000E+01
    -11.990  0.0000E+00  0.8000E+01
    -11.839  0.0000E+00  0.8000E+01
    -11.688  0.0000E+00  0.8000E+01
    -11.536  0.0000E+00  0.8000E+01
    -11.385  0.0000E+00  0.8000E+01
    -11.234  0.0000E+00  0.8000E+01
    -11.082  0.0000E+00  0.8000E+01
    -10.931  0.0000E+00  0.8000E+01
    -10.780  0.0000E+00  0.8000E+01
    -10.628  0.0000E+00  0.8000E+01
    -10.477  0.0000E+00  0.8000E+01
    -10.326  0.0000E+00  0.8000E+01
    -10.174  0.0000E+00  0.8000E+01
    -10.023  0.0000E+00  0.8000E+01
     -9.872  0.0000E+00  0.8000E+01
     -9.720  0.0000E+00  0.8000E+01
     -9.569  0.0000E+00  0.8000E+01
     -9.418  0.0000E+00  0.8000E+01
     -9.266  0.0000E+00  0.8000E+01
     -9.115  0.0000E+00  0.8000E+01
     -8.964  0.0000E+00  0.8000E+01
     -8.812  0.0000E+00  0.8000E+01
     -8.661  0.0000E+00  0.8000E+01
     -8.510  0.0000E+00  0.8000E+01
     -8.358  0.0000E+00  0.8000E+01
     -8.207  0.0000E+00  0.8000E+01
     -8.056  0.0000E+00  0.8000E+01
     -7.904  0.0000E+00  0.8000E+01
     -7.753  0.0000E+00  0.8000E+01
     -7.602  0.0000E+00  0.8000E+01
     -7.450  0.0000E+00  0.8000E+01
     -7.299  0.0000E+00  0.8000E+01
     -7.148  0.0000E+00  0.8000E+01
     -6.996  0.0000E+00  0.8000E+01
     -6.845  0.0000E+00  0.8000E+01
     -6.694  0.0000E+00  0.8000E+01
     -6.542  0.0000E+00  0.8000E+01
     -6.391  0.0000E+00  0.8000E+01
     -6.240  0.0000E+00  0.8000E+01
     -6.088  0.0000E+00  0.8000E+01
     -5.937  0.0000E+00  0.8000E+01
     -5.786  0.0000E+00  0.8000E+01
     -5.634  0.0000E+00  0.8000E+01
     -5.483  0.0000E+00  0.8000E+01
     -5.332  0.0000E+00  0.8000E+01
     -5.180  0.0000E+00  0.8000E+01
     -5.029  0.0000E+00  0.8000E+01
     -4.878  0.0000E+00  0.8000E+01
     -4.726  0.0000E+00  0.8000E+01
     -4.575  0.0000E+00  0.8000E+01
     -4.424  0.0000E+00  0.8000E+01
     -4.272  0.0000E+00  0.8000E+01
     -4.121  0.0000E+00  0.8000E+01
     -3.970  0.0000E+00  0.8000E+01
     -3.818  0.0000E+00  0.8000E+01
     -3.667  0.0000E+00  0.8000E+01
     -3.516  0.0000E+00  0.8000E+01
     -3.364  0.0000E+00  0.8000E+01
     -3.213  0.0000E+00  0.8000E+01
     -3.062  0.0000E+00  0.8000E+01
     -2.911  0.0000E+00  0.8000E+01
     -2.759  0.0000E+00  0.8000E+01
     -2.608  0.4213E+00  0.8009E+01
     -2.457  0.1268E+01  0.8140E+01
     -2.305  0.3727E+01  0.8458E+01
     -2.154  0.5106E+01  0.9305E+01
     -2.003  0.1034E+01  0.9661E+01
     -1.851  0.1275E+01  0.9800E+01
     -1.700  0.2377E+01  0.1011E+02
     -1.549  0.2515E+01  0.1046E+02
     -1.397  0.3474E+01  0.1088E+02
     -1.246  0.6794E+01  0.1167E+02
     -1.095  0.7905E+01  0.1261E+02
     -0.943  0.6168E+01  0.1354E+02
     -0.792  0.2958E+01  0.1395E+02
     -0.641  0.7219E-01  0.1400E+02
     -0.489  0.0000E+00  0.1400E+02
     -0.338  0.0000E+00  0.1400E+02
     -0.187  0.0000E+00  0.1400E+02
     -0.035  0.0000E+00  0.1400E+02
      0.116  0.0000E+00  0.1400E+02
      0.267  0.0000E+00  0.1400E+02
      0.419  0.0000E+00  0.1400E+02
      0.570  0.0000E+00  0.1400E+02
      0.721  0.0000E+00  0.1400E+02
      0.873  0.0000E+00  0.1400E+02
      1.024  0.0000E+00  0.1400E+02
      1.175  0.0000E+00  0.1400E+02
      1.327  0.0000E+00  0.1400E+02
      1.478  0.0000E+00  0.1400E+02
      1.629  0.0000E+00  0.1400E+02
      1.781  0.0000E+00  0.1400E+02
      1.932  0.0000E+00  0.1400E+02
      2.083  0.0000E+00  0.1400E+02
      2.235  0.0000E+00  0.1400E+02
      2.386  0.0000E+00  0.1400E+02
      2.537  0.0000E+00  0.1400E+02
      2.689  0.0000E+00  0.1400E+02
      2.840  0.0000E+00  0.1400E+02
      2.991  0.0000E+00  0.1400E+02
      3.143  0.0000E+00  0.1400E+02
      3.294  0.0000E+00  0.1400E+02
      3.445  0.0000E+00  0.1400E+02
      3.597  0.0000E+00  0.1400E+02
      3.748  0.0000E+00  0.1400E+02
      3.899  0.0000E+00  0.1400E+02
      4.051  0.0000E+00  0.1400E+02
      4.202  0.0000E+00  0.1400E+02
      4.353  0.0000E+00  0.1400E+02
      4.505  0.1704E-01  0.1400E+02
      4.656  0.4099E-01  0.1401E+02
      4.807  0.5864E-01  0.1401E+02
      4.959  0.7754E-01  0.1402E+02
      5.110  0.9325E-01  0.1404E+02
      5.261  0.1120E+00  0.1405E+02
      5.413  0.1324E+00  0.1407E+02
      5.564  0.1548E+00  0.1409E+02
      5.715  0.1808E+00  0.1412E+02
      5.867  0.2111E+00  0.1415E+02
      6.018  0.2452E+00  0.1418E+02
      6.169  0.2926E+00  0.1422E+02
      6.321  0.3598E+00  0.1427E+02
      6.472  0.4524E+00  0.1433E+02
      6.623  0.7518E+00  0.1442E+02
      6.775  0.7596E+00  0.1454E+02
      6.926  0.1071E+01  0.1467E+02
      7.077  0.1222E+01  0.1485E+02
      7.229  0.1270E+01  0.1504E+02
      7.380  0.1289E+01  0.1523E+02
      7.531  0.1428E+01  0.1544E+02
      7.683  0.1415E+01  0.1566E+02
      7.834  0.1374E+01  0.1587E+02
      7.985  0.1199E+01  0.1607E+02
      8.137  0.1108E+01  0.1625E+02
      8.288  0.8038E+00  0.1637E+02
      8.439  0.1141E+01  0.1652E+02
      8.591  0.2156E+01  0.1680E+02
      8.742  0.1375E+01  0.1703E+02
      8.893  0.1628E+01  0.1724E+02
      9.045  0.1842E+01  0.1751E+02
      9.196  0.2665E+01  0.1783E+02
      9.347  0.2247E+01  0.1819E+02
      9.499  0.2734E+01  0.1859E+02
      9.650  0.2000E+01  0.1893E+02
      9.801  0.1550E+01  0.1921E+02
      9.953  0.1172E+01  0.1941E+02
     10.104  0.1033E+01  0.1957E+02
     10.255  0.7138E+00  0.1970E+02
     10.407  0.9002E+00  0.1983E+02
     10.558  0.1262E+01  0.2000E+02
     10.709  0.1579E+01  0.2024E+02
     10.861  0.1323E+01  0.2044E+02
     11.012  0.1636E+01  0.2066E+02
     11.163  0.2012E+01  0.2095E+02
     11.315  0.1605E+01  0.2124E+02
     11.466  0.1245E+01  0.2144E+02
     11.617  0.1191E+01  0.2162E+02
     11.769  0.1066E+01  0.2180E+02
     11.920  0.9164E+00  0.2195E+02
     12.071  0.8343E+00  0.2208E+02
     12.223  0.7639E+00  0.2220E+02
     12.374  0.7491E+00  0.2231E+02
     12.525  0.8721E+00  0.2244E+02
     12.677  0.8908E+00  0.2257E+02
     12.828  0.8664E+00  0.2270E+02
     12.979  0.1006E+01  0.2284E+02
     13.131  0.1261E+01  0.2301E+02
     13.282  0.1765E+01  0.2325E+02
     13.433  0.1954E+01  0.2353E+02
     13.585  0.1491E+01  0.2379E+02
     13.736  0.1181E+01  0.2399E+02
     13.887  0.1057E+01  0.2416E+02
     14.039  0.9154E+00  0.2431E+02
     14.190  0.8596E+00  0.2444E+02
     14.341  0.8715E+00  0.2457E+02
     14.493  0.8885E+00  0.2470E+02
     14.644  0.9870E+00  0.2484E+02
     14.795  0.1778E+01  0.2506E+02
     14.946  0.2074E+01  0.2533E+02
     15.098  0.1673E+01  0.2565E+02
     15.249  0.1500E+01  0.2587E+02
     15.400  0.1308E+01  0.2610E+02
     15.552  0.8231E+00  0.2626E+02
     15.703  0.6835E+00  0.2637E+02
     15.854  0.1140E+01  0.2650E+02
     16.006  0.2309E+01  0.2679E+02
     16.157  0.2594E+01  0.2715E+02
     16.308  0.1874E+01  0.2748E+02
     16.460  0.1796E+01  0.2774E+02
     16.611  0.1743E+01  0.2801E+02
     16.762  0.1595E+01  0.2826E+02
     16.914  0.1715E+01  0.2849E+02
     17.065  0.1842E+01  0.2876E+02
     17.216  0.1753E+01  0.2904E+02
     17.368  0.1875E+01  0.2931E+02
     17.519  0.1948E+01  0.2960E+02
     17.670  0.1852E+01  0.2989E+02
     17.822  0.1827E+01  0.3017E+02
     17.973  0.1617E+01  0.3043E+02
     18.124  0.1325E+01  0.3064E+02
     18.276  0.1934E+01  0.3088E+02
     18.427  0.2332E+01  0.3121E+02
     18.578  0.1954E+01  0.3153E+02
     18.730  0.1303E+01  0.3179E+02
     18.881  0.5287E+00  0.3192E+02
     19.032  0.1514E+00  0.3197E+02
     19.184  0.8982E-01  0.3198E+02
     19.335  0.4994E-01  0.3199E+02
     19.486  0.1851E-01  0.3200E+02
     19.638  0.1316E-02  0.3200E+02
     19.789  0.0000E+00  0.3200E+02
     19.940  0.0000E+00  0.3200E+02
     20.092  0.0000E+00  0.3200E+02
     20.243  0.0000E+00  0.3200E+02
     20.394  0.0000E+00  0.3200E+02
     20.546  0.0000E+00  0.3200E+02
     20.697  0.0000E+00  0.3200E+02
     20.848  0.0000E+00  0.3200E+02
     21.000  0.0000E+00  0.3200E+02
     21.151  0.0000E+00  0.3200E+02
     21.302  0.0000E+00  0.3200E+02
     21.454  0.0000E+00  0.3200E+02
     21.605  0.0000E+00  0.3200E+02
     21.756  0.0000E+00  0.3200E+02
