Automatically generated mesh
     286
Reciprocal lattice
    0.00000000000000    0.00000000000000    0.00000000000000             1
    0.04761904761905    0.00000000000000    0.00000000000000            12
    0.09523809523810    0.00000000000000    0.00000000000000            12
    0.14285714285715    0.00000000000000    0.00000000000000            12
    0.19047619047619    0.00000000000000    0.00000000000000            12
    0.23809523809524    0.00000000000000    0.00000000000000            12
    0.28571428571429    0.00000000000000    0.00000000000000            12
    0.33333333333334    0.00000000000000    0.00000000000000            12
    0.38095238095238    0.00000000000000    0.00000000000000            12
    0.42857142857143    0.00000000000000    0.00000000000000            12
    0.47619047619048    0.00000000000000    0.00000000000000            12
    0.04761904761905    0.04761904761905    0.00000000000000            24
    0.09523809523810    0.04761904761905    0.00000000000000            48
    0.14285714285715    0.04761904761905    0.00000000000000            48
    0.19047619047619    0.04761904761905    0.00000000000000            48
    0.23809523809524    0.04761904761905    0.00000000000000            48
    0.28571428571429    0.04761904761905    0.00000000000000            48
    0.33333333333334    0.04761904761905    0.00000000000000            48
    0.38095238095238    0.04761904761905    0.00000000000000            48
    0.42857142857143    0.04761904761905    0.00000000000000            48
    0.47619047619048    0.04761904761905    0.00000000000000            24
    0.09523809523810    0.09523809523810    0.00000000000000            24
    0.14285714285715    0.09523809523810    0.00000000000000            48
    0.19047619047619    0.09523809523810    0.00000000000000            48
    0.23809523809524    0.09523809523810    0.00000000000000            48
    0.28571428571429    0.09523809523810    0.00000000000000            48
    0.33333333333334    0.09523809523810    0.00000000000000            48
    0.38095238095238    0.09523809523810    0.00000000000000            48
    0.42857142857143    0.09523809523810    0.00000000000000            48
    0.14285714285715    0.14285714285715    0.00000000000000            24
    0.19047619047619    0.14285714285715    0.00000000000000            48
    0.23809523809524    0.14285714285715    0.00000000000000            48
    0.28571428571429    0.14285714285715    0.00000000000000            48
    0.33333333333334    0.14285714285715    0.00000000000000            48
    0.38095238095238    0.14285714285715    0.00000000000000            48
    0.42857142857143    0.14285714285715    0.00000000000000            24
    0.19047619047619    0.19047619047619    0.00000000000000            24
    0.23809523809524    0.19047619047619    0.00000000000000            48
    0.28571428571429    0.19047619047619    0.00000000000000            48
    0.33333333333334    0.19047619047619    0.00000000000000            48
    0.38095238095238    0.19047619047619    0.00000000000000            48
    0.23809523809524    0.23809523809524    0.00000000000000            24
    0.28571428571429    0.23809523809524    0.00000000000000            48
    0.33333333333334    0.23809523809524    0.00000000000000            48
    0.38095238095238    0.23809523809524    0.00000000000000            24
    0.28571428571429    0.28571428571429    0.00000000000000            24
    0.33333333333334    0.28571428571429    0.00000000000000            48
    0.33333333333334    0.33333333333334    0.00000000000000             8
    0.04761904761905    0.04761904761905    0.04761904761905             8
    0.09523809523810    0.04761904761905    0.04761904761905            24
    0.14285714285715    0.04761904761905    0.04761904761905            24
    0.19047619047619    0.04761904761905    0.04761904761905            24
    0.23809523809524    0.04761904761905    0.04761904761905            24
    0.28571428571429    0.04761904761905    0.04761904761905            24
    0.33333333333334    0.04761904761905    0.04761904761905            24
    0.38095238095238    0.04761904761905    0.04761904761905            24
    0.42857142857143    0.04761904761905    0.04761904761905            24
   -0.04761904761905    0.04761904761905    0.04761904761905             6
    0.09523809523810    0.09523809523810    0.04761904761905            24
    0.14285714285715    0.09523809523810    0.04761904761905            48
    0.19047619047619    0.09523809523810    0.04761904761905            48
    0.23809523809524    0.09523809523810    0.04761904761905            48
    0.28571428571429    0.09523809523810    0.04761904761905            48
    0.33333333333334    0.09523809523810    0.04761904761905            48
    0.38095238095238    0.09523809523810    0.04761904761905            48
    0.42857142857143    0.09523809523810    0.04761904761905            24
   -0.09523809523809    0.09523809523810    0.04761904761905            24
    0.14285714285715    0.14285714285715    0.04761904761905            24
    0.19047619047619    0.14285714285715    0.04761904761905            48
    0.23809523809524    0.14285714285715    0.04761904761905            48
    0.28571428571429    0.14285714285715    0.04761904761905            48
    0.33333333333334    0.14285714285715    0.04761904761905            48
    0.38095238095238    0.14285714285715    0.04761904761905            48
   -0.14285714285714    0.14285714285715    0.04761904761905            24
   -0.09523809523809    0.14285714285715    0.04761904761905            24
    0.19047619047619    0.19047619047619    0.04761904761905            24
    0.23809523809524    0.19047619047619    0.04761904761905            48
    0.28571428571429    0.19047619047619    0.04761904761905            48
    0.33333333333334    0.19047619047619    0.04761904761905            48
    0.38095238095238    0.19047619047619    0.04761904761905            24
   -0.19047619047619    0.19047619047619    0.04761904761905            24
   -0.14285714285714    0.19047619047619    0.04761904761905            48
    0.23809523809524    0.23809523809524    0.04761904761905            24
    0.28571428571429    0.23809523809524    0.04761904761905            48
    0.33333333333334    0.23809523809524    0.04761904761905            48
   -0.23809523809524    0.23809523809524    0.04761904761905            24
   -0.19047619047619    0.23809523809524    0.04761904761905            48
   -0.14285714285714    0.23809523809524    0.04761904761905            24
    0.28571428571429    0.28571428571429    0.04761904761905            24
    0.33333333333334    0.28571428571429    0.04761904761905            24
   -0.28571428571428    0.28571428571429    0.04761904761905            24
   -0.23809523809524    0.28571428571429    0.04761904761905            48
   -0.19047619047619    0.28571428571429    0.04761904761905            48
   -0.33333333333333    0.33333333333334    0.04761904761905            24
   -0.28571428571428    0.33333333333334    0.04761904761905            48
   -0.23809523809524    0.33333333333334    0.04761904761905            48
   -0.19047619047619    0.33333333333334    0.04761904761905            24
   -0.38095238095238    0.38095238095238    0.04761904761905            24
   -0.33333333333333    0.38095238095238    0.04761904761905            48
   -0.28571428571428    0.38095238095238    0.04761904761905            48
   -0.23809523809524    0.38095238095238    0.04761904761905            48
   -0.42857142857143    0.42857142857143    0.04761904761905            24
   -0.38095238095238    0.42857142857143    0.04761904761905            48
   -0.33333333333333    0.42857142857143    0.04761904761905            48
   -0.28571428571428    0.42857142857143    0.04761904761905            48
   -0.23809523809524    0.42857142857143    0.04761904761905            24
   -0.47619047619047    0.47619047619048    0.04761904761905            24
   -0.42857142857143    0.47619047619048    0.04761904761905            48
   -0.38095238095238    0.47619047619048    0.04761904761905            48
   -0.33333333333333    0.47619047619048    0.04761904761905            48
   -0.28571428571428    0.47619047619048    0.04761904761905            48
   -0.47619047619047   -0.47619047619047    0.04761904761905            24
   -0.42857142857143   -0.47619047619047    0.04761904761905            48
   -0.38095238095238   -0.47619047619047    0.04761904761905            48
   -0.33333333333333   -0.47619047619047    0.04761904761905            48
   -0.28571428571428   -0.47619047619047    0.04761904761905            24
   -0.42857142857143   -0.42857142857143    0.04761904761905            24
   -0.38095238095238   -0.42857142857143    0.04761904761905            48
   -0.33333333333333   -0.42857142857143    0.04761904761905            48
   -0.38095238095238   -0.38095238095238    0.04761904761905            24
   -0.33333333333333   -0.38095238095238    0.04761904761905            24
    0.09523809523810    0.09523809523810    0.09523809523810             8
    0.14285714285715    0.09523809523810    0.09523809523810            24
    0.19047619047619    0.09523809523810    0.09523809523810            24
    0.23809523809524    0.09523809523810    0.09523809523810            24
    0.28571428571429    0.09523809523810    0.09523809523810            24
    0.33333333333334    0.09523809523810    0.09523809523810            24
    0.38095238095238    0.09523809523810    0.09523809523810            24
   -0.09523809523809    0.09523809523810    0.09523809523810             6
    0.14285714285715    0.14285714285715    0.09523809523810            24
    0.19047619047619    0.14285714285715    0.09523809523810            48
    0.23809523809524    0.14285714285715    0.09523809523810            48
    0.28571428571429    0.14285714285715    0.09523809523810            48
    0.33333333333334    0.14285714285715    0.09523809523810            48
    0.38095238095238    0.14285714285715    0.09523809523810            24
   -0.14285714285714    0.14285714285715    0.09523809523810            24
    0.19047619047619    0.19047619047619    0.09523809523810            24
    0.23809523809524    0.19047619047619    0.09523809523810            48
    0.28571428571429    0.19047619047619    0.09523809523810            48
    0.33333333333334    0.19047619047619    0.09523809523810            48
   -0.19047619047619    0.19047619047619    0.09523809523810            24
   -0.14285714285714    0.19047619047619    0.09523809523810            24
    0.23809523809524    0.23809523809524    0.09523809523810            24
    0.28571428571429    0.23809523809524    0.09523809523810            48
    0.33333333333334    0.23809523809524    0.09523809523810            24
   -0.23809523809524    0.23809523809524    0.09523809523810            24
   -0.19047619047619    0.23809523809524    0.09523809523810            48
    0.28571428571429    0.28571428571429    0.09523809523810            24
   -0.28571428571428    0.28571428571429    0.09523809523810            24
   -0.23809523809524    0.28571428571429    0.09523809523810            48
   -0.19047619047619    0.28571428571429    0.09523809523810            24
   -0.33333333333333    0.33333333333334    0.09523809523810            24
   -0.28571428571428    0.33333333333334    0.09523809523810            48
   -0.23809523809524    0.33333333333334    0.09523809523810            48
   -0.38095238095238    0.38095238095238    0.09523809523810            24
   -0.33333333333333    0.38095238095238    0.09523809523810            48
   -0.28571428571428    0.38095238095238    0.09523809523810            48
   -0.23809523809524    0.38095238095238    0.09523809523810            24
   -0.42857142857143    0.42857142857143    0.09523809523810            24
   -0.38095238095238    0.42857142857143    0.09523809523810            48
   -0.33333333333333    0.42857142857143    0.09523809523810            48
   -0.28571428571428    0.42857142857143    0.09523809523810            48
   -0.47619047619047    0.47619047619048    0.09523809523810            24
   -0.42857142857143    0.47619047619048    0.09523809523810            48
   -0.38095238095238    0.47619047619048    0.09523809523810            48
   -0.33333333333333    0.47619047619048    0.09523809523810            48
   -0.28571428571428    0.47619047619048    0.09523809523810            24
   -0.47619047619047   -0.47619047619047    0.09523809523810            24
   -0.42857142857143   -0.47619047619047    0.09523809523810            48
   -0.38095238095238   -0.47619047619047    0.09523809523810            48
   -0.33333333333333   -0.47619047619047    0.09523809523810            48
   -0.42857142857143   -0.42857142857143    0.09523809523810            24
   -0.38095238095238   -0.42857142857143    0.09523809523810            48
   -0.33333333333333   -0.42857142857143    0.09523809523810            24
   -0.38095238095238   -0.38095238095238    0.09523809523810            24
    0.14285714285715    0.14285714285715    0.14285714285715             8
    0.19047619047619    0.14285714285715    0.14285714285715            24
    0.23809523809524    0.14285714285715    0.14285714285715            24
    0.28571428571429    0.14285714285715    0.14285714285715            24
    0.33333333333334    0.14285714285715    0.14285714285715            24
   -0.14285714285714    0.14285714285715    0.14285714285715             6
    0.19047619047619    0.19047619047619    0.14285714285715            24
    0.23809523809524    0.19047619047619    0.14285714285715            48
    0.28571428571429    0.19047619047619    0.14285714285715            48
    0.33333333333334    0.19047619047619    0.14285714285715            24
   -0.19047619047619    0.19047619047619    0.14285714285715            24
    0.23809523809524    0.23809523809524    0.14285714285715            24
    0.28571428571429    0.23809523809524    0.14285714285715            48
   -0.23809523809524    0.23809523809524    0.14285714285715            24
   -0.19047619047619    0.23809523809524    0.14285714285715            24
    0.28571428571429    0.28571428571429    0.14285714285715             8
   -0.28571428571428    0.28571428571429    0.14285714285715            24
   -0.23809523809524    0.28571428571429    0.14285714285715            48
   -0.33333333333333    0.33333333333334    0.14285714285715            24
   -0.28571428571428    0.33333333333334    0.14285714285715            48
   -0.23809523809524    0.33333333333334    0.14285714285715            24
   -0.38095238095238    0.38095238095238    0.14285714285715            24
   -0.33333333333333    0.38095238095238    0.14285714285715            48
   -0.28571428571428    0.38095238095238    0.14285714285715            48
   -0.42857142857143    0.42857142857143    0.14285714285715            24
   -0.38095238095238    0.42857142857143    0.14285714285715            48
   -0.33333333333333    0.42857142857143    0.14285714285715            48
   -0.28571428571428    0.42857142857143    0.14285714285715            24
   -0.47619047619047    0.47619047619048    0.14285714285715            24
   -0.42857142857143    0.47619047619048    0.14285714285715            48
   -0.38095238095238    0.47619047619048    0.14285714285715            48
   -0.33333333333333    0.47619047619048    0.14285714285715            48
   -0.47619047619047   -0.47619047619047    0.14285714285715            24
   -0.42857142857143   -0.47619047619047    0.14285714285715            48
   -0.38095238095238   -0.47619047619047    0.14285714285715            48
   -0.33333333333333   -0.47619047619047    0.14285714285715            24
   -0.42857142857143   -0.42857142857143    0.14285714285715            24
   -0.38095238095238   -0.42857142857143    0.14285714285715            48
   -0.38095238095238   -0.38095238095238    0.14285714285715             8
    0.19047619047619    0.19047619047619    0.19047619047619             8
    0.23809523809524    0.19047619047619    0.19047619047619            24
    0.28571428571429    0.19047619047619    0.19047619047619            24
   -0.19047619047619    0.19047619047619    0.19047619047619             6
    0.23809523809524    0.23809523809524    0.19047619047619            24
    0.28571428571429    0.23809523809524    0.19047619047619            24
   -0.23809523809524    0.23809523809524    0.19047619047619            24
   -0.28571428571428    0.28571428571429    0.19047619047619            24
   -0.23809523809524    0.28571428571429    0.19047619047619            24
   -0.33333333333333    0.33333333333334    0.19047619047619            24
   -0.28571428571428    0.33333333333334    0.19047619047619            48
   -0.38095238095238    0.38095238095238    0.19047619047619            24
   -0.33333333333333    0.38095238095238    0.19047619047619            48
   -0.28571428571428    0.38095238095238    0.19047619047619            24
   -0.42857142857143    0.42857142857143    0.19047619047619            24
   -0.38095238095238    0.42857142857143    0.19047619047619            48
   -0.33333333333333    0.42857142857143    0.19047619047619            48
   -0.47619047619047    0.47619047619048    0.19047619047619            24
   -0.42857142857143    0.47619047619048    0.19047619047619            48
   -0.38095238095238    0.47619047619048    0.19047619047619            48
   -0.33333333333333    0.47619047619048    0.19047619047619            24
   -0.47619047619047   -0.47619047619047    0.19047619047619            24
   -0.42857142857143   -0.47619047619047    0.19047619047619            48
   -0.38095238095238   -0.47619047619047    0.19047619047619            48
   -0.42857142857143   -0.42857142857143    0.19047619047619            24
   -0.38095238095238   -0.42857142857143    0.19047619047619            24
    0.23809523809524    0.23809523809524    0.23809523809524             8
   -0.23809523809524    0.23809523809524    0.23809523809524             6
   -0.28571428571428    0.28571428571429    0.23809523809524            24
   -0.33333333333333    0.33333333333334    0.23809523809524            24
   -0.28571428571428    0.33333333333334    0.23809523809524            24
   -0.38095238095238    0.38095238095238    0.23809523809524            24
   -0.33333333333333    0.38095238095238    0.23809523809524            48
   -0.42857142857143    0.42857142857143    0.23809523809524            24
   -0.38095238095238    0.42857142857143    0.23809523809524            48
   -0.33333333333333    0.42857142857143    0.23809523809524            24
   -0.47619047619047    0.47619047619048    0.23809523809524            24
   -0.42857142857143    0.47619047619048    0.23809523809524            48
   -0.38095238095238    0.47619047619048    0.23809523809524            48
   -0.47619047619047   -0.47619047619047    0.23809523809524            24
   -0.42857142857143   -0.47619047619047    0.23809523809524            48
   -0.38095238095238   -0.47619047619047    0.23809523809524            24
   -0.42857142857143   -0.42857142857143    0.23809523809524            24
   -0.28571428571428    0.28571428571429    0.28571428571429             6
   -0.33333333333333    0.33333333333334    0.28571428571429            24
   -0.38095238095238    0.38095238095238    0.28571428571429            24
   -0.33333333333333    0.38095238095238    0.28571428571429            24
   -0.42857142857143    0.42857142857143    0.28571428571429            24
   -0.38095238095238    0.42857142857143    0.28571428571429            48
   -0.47619047619047    0.47619047619048    0.28571428571429            24
   -0.42857142857143    0.47619047619048    0.28571428571429            48
   -0.38095238095238    0.47619047619048    0.28571428571429            24
   -0.47619047619047   -0.47619047619047    0.28571428571429            24
   -0.42857142857143   -0.47619047619047    0.28571428571429            48
   -0.42857142857143   -0.42857142857143    0.28571428571429             8
   -0.33333333333333    0.33333333333334    0.33333333333334             6
   -0.38095238095238    0.38095238095238    0.33333333333334            24
   -0.42857142857143    0.42857142857143    0.33333333333334            24
   -0.38095238095238    0.42857142857143    0.33333333333334            24
   -0.47619047619047    0.47619047619048    0.33333333333334            24
   -0.42857142857143    0.47619047619048    0.33333333333334            48
   -0.47619047619047   -0.47619047619047    0.33333333333334            24
   -0.42857142857143   -0.47619047619047    0.33333333333334            24
   -0.38095238095238    0.38095238095238    0.38095238095238             6
   -0.42857142857143    0.42857142857143    0.38095238095238            24
   -0.47619047619047    0.47619047619048    0.38095238095238            24
   -0.42857142857143    0.47619047619048    0.38095238095238            24
   -0.47619047619047   -0.47619047619047    0.38095238095238            24
   -0.42857142857143    0.42857142857143    0.42857142857143             6
   -0.47619047619047    0.47619047619048    0.42857142857143            24
   -0.47619047619047   -0.47619047619047    0.42857142857143             8
   -0.47619047619047    0.47619047619048    0.47619047619048             6
