       N       E                     dE             d eps       ncg     rms          rms(c)
DAV:   1     0.415247416245E+02    0.41525E+02   -0.26375E+03 43536   0.319E+02
DAV:   2    -0.524932115331E+01   -0.46774E+02   -0.40969E+02 38584   0.894E+01
DAV:   3    -0.797672032884E+01   -0.27274E+01   -0.26806E+01 45008   0.196E+01
DAV:   4    -0.798370803650E+01   -0.69877E-02   -0.69864E-02 39768   0.971E-01
DAV:   5    -0.798370904446E+01   -0.10080E-05   -0.10069E-05 43512   0.119E-02    0.144E+01
DAV:   6    -0.826552381074E+01   -0.28181E+00   -0.62697E+00 42368   0.138E+01    0.393E+00
DAV:   7    -0.825753241205E+01    0.79914E-02   -0.20361E-01 40432   0.220E+00    0.263E+00
DAV:   8    -0.824790082631E+01    0.96316E-02   -0.54457E-03 43896   0.263E-01    0.104E+00
DAV:   9    -0.824274664960E+01    0.51542E-02   -0.72966E-03 43728   0.242E-01    0.158E-01
DAV:  10    -0.824260630637E+01    0.14034E-03   -0.75463E-04 42584   0.163E-01    0.725E-02
DAV:  11    -0.824261016552E+01   -0.38592E-05   -0.34610E-05 41504   0.191E-02    0.506E-02
DAV:  12    -0.824260646212E+01    0.37034E-05   -0.59501E-06 44376   0.933E-03    0.177E-02
DAV:  13    -0.824260574495E+01    0.71717E-06   -0.26540E-06 50872   0.815E-03    0.682E-03
DAV:  14    -0.824260524447E+01    0.50048E-06   -0.20594E-07 32264   0.163E-03    0.135E-03
DAV:  15    -0.824260521615E+01    0.28319E-07   -0.65355E-08 22848   0.899E-04
   1 F= -.82426052E+01 E0= -.82419935E+01  d E =-.824261E+01  mag=     2.1610
       N       E                     dE             d eps       ncg     rms          rms(c)
DAV:   1    -0.824447443754E+01   -0.18692E-02   -0.20591E-02 37184   0.961E-01    0.384E-01
DAV:   2    -0.824299244644E+01    0.14820E-02   -0.12755E-02 37920   0.538E-01    0.323E-01
DAV:   3    -0.824286950641E+01    0.12294E-03   -0.59708E-04 42456   0.127E-01    0.128E-01
DAV:   4    -0.824285386415E+01    0.15642E-04   -0.30061E-06 41584   0.126E-02    0.257E-02
DAV:   5    -0.824284125899E+01    0.12605E-04   -0.15451E-05 39336   0.109E-02    0.463E-03
DAV:   6    -0.824284122068E+01    0.38310E-07   -0.19051E-07 38912   0.210E-03
   2 F= -.82428412E+01 E0= -.82422331E+01  d E =-.236005E-03  mag=     2.1511
       N       E                     dE             d eps       ncg     rms          rms(c)
DAV:   1    -0.824547816737E+01   -0.26369E-02   -0.34732E-02 37160   0.125E+00    0.496E-01
DAV:   2    -0.824299652429E+01    0.24816E-02   -0.21120E-02 37736   0.695E-01    0.416E-01
DAV:   3    -0.824279810654E+01    0.19842E-03   -0.96302E-04 42296   0.162E-01    0.166E-01
DAV:   4    -0.824277194526E+01    0.26161E-04   -0.53350E-06 41648   0.170E-02    0.334E-02
DAV:   5    -0.824275069814E+01    0.21247E-04   -0.24474E-05 39080   0.146E-02    0.554E-03
DAV:   6    -0.824275073254E+01   -0.34403E-07   -0.26933E-07 38680   0.259E-03
   3 F= -.82427507E+01 E0= -.82421430E+01  d E =0.904881E-04  mag=     2.1392
       N       E                     dE             d eps       ncg     rms          rms(c)
DAV:   1    -0.824299861100E+01   -0.24791E-03   -0.22222E-03 37136   0.318E-01    0.128E-01
DAV:   2    -0.824283455817E+01    0.16405E-03   -0.14168E-03 37728   0.179E-01    0.109E-01
DAV:   3    -0.824282037009E+01    0.14188E-04   -0.69456E-05 42344   0.435E-02    0.424E-02
DAV:   4    -0.824281834365E+01    0.20264E-05   -0.39271E-07 41752   0.472E-03    0.882E-03
DAV:   5    -0.824281650619E+01    0.18375E-05   -0.15373E-06 38952   0.392E-03    0.141E-03
DAV:   6    -0.824281658856E+01   -0.82365E-07   -0.15826E-08 32736   0.655E-04
   4 F= -.82428166E+01 E0= -.82422087E+01  d E =-.658560E-04  mag=     2.1420
       N       E                     dE             d eps       ncg     rms          rms(c)
DAV:   1    -0.824389508317E+01   -0.10786E-02   -0.12734E-02 37120   0.761E-01    0.311E-01
DAV:   2    -0.824296968098E+01    0.92540E-03   -0.85009E-03 37768   0.438E-01    0.269E-01
DAV:   3    -0.824287410739E+01    0.95574E-04   -0.47270E-04 42128   0.113E-01    0.993E-02
DAV:   4    -0.824286377172E+01    0.10336E-04   -0.27735E-06 42064   0.126E-02    0.209E-02
DAV:   5    -0.824285495000E+01    0.88217E-05   -0.78700E-06 38696   0.101E-02    0.346E-03
DAV:   6    -0.824285519178E+01   -0.24177E-06   -0.12229E-07 38272   0.182E-03    0.181E-03
DAV:   7    -0.824285537136E+01   -0.17958E-06   -0.99921E-09 27400   0.409E-04    0.890E-04
DAV:   8    -0.824285546402E+01   -0.92666E-07   -0.11094E-08 19144   0.398E-04
   5 F= -.82428555E+01 E0= -.82422476E+01  d E =-.388755E-04  mag=     2.1493
       N       E                     dE             d eps       ncg     rms          rms(c)
DAV:   1    -0.824286680504E+01   -0.11434E-04   -0.10425E-04 37128   0.686E-02    0.275E-02
DAV:   2    -0.824285962917E+01    0.71759E-05   -0.65813E-05 37840   0.386E-02    0.233E-02
DAV:   3    -0.824285890807E+01    0.72111E-06   -0.31934E-06 42304   0.932E-03    0.911E-03
DAV:   4    -0.824285886685E+01    0.41214E-07   -0.15659E-08 30872   0.970E-04    0.188E-03
DAV:   5    -0.824285885691E+01    0.99369E-08   -0.73764E-08 29016   0.795E-04
   6 F= -.82428589E+01 E0= -.82422510E+01  d E =-.339289E-05  mag=     2.1486
