unknown system                          
            1
    -1.416828    1.416828    1.416828
     1.416828   -1.416828    1.416828
     1.416828    1.416828   -1.416828
   Fe
     1
Direct configuration=     1
   0.00000000  0.00000000  0.00000000
unknown system                          
            1
    -1.414671    1.414671    1.414671
     1.414671   -1.414671    1.414671
     1.414671    1.414671   -1.414671
   Fe
     1
Direct configuration=     2
   0.00000000  0.00000000  0.00000000
unknown system                          
            1
    -1.411873    1.411873    1.411873
     1.411873   -1.411873    1.411873
     1.411873    1.411873   -1.411873
   Fe
     1
Direct configuration=     3
   0.00000000  0.00000000  0.00000000
unknown system                          
            1
    -1.412584    1.412584    1.412584
     1.412584   -1.412584    1.412584
     1.412584    1.412584   -1.412584
   Fe
     1
Direct configuration=     4
   0.00000000  0.00000000  0.00000000
unknown system                          
            1
    -1.414280    1.414280    1.414280
     1.414280   -1.414280    1.414280
     1.414280    1.414280   -1.414280
   Fe
     1
Direct configuration=     5
   0.00000000  0.00000000  0.00000000
unknown system                          
            1
    -1.414127    1.414127    1.414127
     1.414127   -1.414127    1.414127
     1.414127    1.414127   -1.414127
   Fe
     1
Direct configuration=     6
   0.00000000  0.00000000  0.00000000
