   2   2   0   0
  0.2355867E+02  0.4054139E-09  0.4054139E-09  0.4054139E-09  0.0000000E+00
  1.000000000000000E-004
  CAR 
 unknown system                          
     14.59090173     -9.14359268  301      3.60380869      1.00000000
     -9.144  0.0000E+00  0.0000E+00
     -9.064  0.0000E+00  0.0000E+00
     -8.985  0.0000E+00  0.0000E+00
     -8.906  0.0000E+00  0.0000E+00
     -8.827  0.0000E+00  0.0000E+00
     -8.748  0.0000E+00  0.0000E+00
     -8.669  0.0000E+00  0.0000E+00
     -8.590  0.0000E+00  0.0000E+00
     -8.511  0.0000E+00  0.0000E+00
     -8.432  0.0000E+00  0.0000E+00
     -8.352  0.0000E+00  0.0000E+00
     -8.273  0.0000E+00  0.0000E+00
     -8.194  0.0000E+00  0.0000E+00
     -8.115  0.0000E+00  0.0000E+00
     -8.036  0.9090E-01  0.1119E-02
     -7.957  0.1771E+00  0.1187E-01
     -7.878  0.2481E+00  0.2895E-01
     -7.799  0.3067E+00  0.5077E-01
     -7.720  0.3562E+00  0.7705E-01
     -7.640  0.4108E+00  0.1073E+00
     -7.561  0.4584E+00  0.1417E+00
     -7.482  0.5118E+00  0.1800E+00
     -7.403  0.5656E+00  0.2226E+00
     -7.324  0.6239E+00  0.2697E+00
     -7.245  0.6881E+00  0.3215E+00
     -7.166  0.7600E+00  0.3787E+00
     -7.087  0.8397E+00  0.4420E+00
     -7.007  0.9426E+00  0.5124E+00
     -6.928  0.1064E+01  0.5916E+00
     -6.849  0.1232E+01  0.6818E+00
     -6.770  0.1510E+01  0.7891E+00
     -6.691  0.1981E+01  0.9291E+00
     -6.612  0.1934E+01  0.1084E+01
     -6.533  0.1964E+01  0.1237E+01
     -6.454  0.2001E+01  0.1395E+01
     -6.375  0.2102E+01  0.1556E+01
     -6.295  0.2288E+01  0.1729E+01
     -6.216  0.4038E+01  0.1936E+01
     -6.137  0.0000E+00  0.2000E+01
     -6.058  0.0000E+00  0.2000E+01
     -5.979  0.0000E+00  0.2000E+01
     -5.900  0.0000E+00  0.2000E+01
     -5.821  0.0000E+00  0.2000E+01
     -5.742  0.0000E+00  0.2000E+01
     -5.663  0.0000E+00  0.2000E+01
     -5.583  0.0000E+00  0.2000E+01
     -5.504  0.0000E+00  0.2000E+01
     -5.425  0.0000E+00  0.2000E+01
     -5.346  0.0000E+00  0.2000E+01
     -5.267  0.0000E+00  0.2000E+01
     -5.188  0.0000E+00  0.2000E+01
     -5.109  0.0000E+00  0.2000E+01
     -5.030  0.0000E+00  0.2000E+01
     -4.950  0.0000E+00  0.2000E+01
     -4.871  0.0000E+00  0.2000E+01
     -4.792  0.0000E+00  0.2000E+01
     -4.713  0.0000E+00  0.2000E+01
     -4.634  0.0000E+00  0.2000E+01
     -4.555  0.0000E+00  0.2000E+01
     -4.476  0.0000E+00  0.2000E+01
     -4.397  0.0000E+00  0.2000E+01
     -4.318  0.0000E+00  0.2000E+01
     -4.238  0.0000E+00  0.2000E+01
     -4.159  0.0000E+00  0.2000E+01
     -4.080  0.0000E+00  0.2000E+01
     -4.001  0.0000E+00  0.2000E+01
     -3.922  0.0000E+00  0.2000E+01
     -3.843  0.0000E+00  0.2000E+01
     -3.764  0.0000E+00  0.2000E+01
     -3.685  0.0000E+00  0.2000E+01
     -3.606  0.0000E+00  0.2000E+01
     -3.526  0.0000E+00  0.2000E+01
     -3.447  0.0000E+00  0.2000E+01
     -3.368  0.0000E+00  0.2000E+01
     -3.289  0.0000E+00  0.2000E+01
     -3.210  0.0000E+00  0.2000E+01
     -3.131  0.0000E+00  0.2000E+01
     -3.052  0.0000E+00  0.2000E+01
     -2.973  0.0000E+00  0.2000E+01
     -2.894  0.0000E+00  0.2000E+01
     -2.814  0.0000E+00  0.2000E+01
     -2.735  0.0000E+00  0.2000E+01
     -2.656  0.0000E+00  0.2000E+01
     -2.577  0.0000E+00  0.2000E+01
     -2.498  0.0000E+00  0.2000E+01
     -2.419  0.0000E+00  0.2000E+01
     -2.340  0.0000E+00  0.2000E+01
     -2.261  0.0000E+00  0.2000E+01
     -2.181  0.0000E+00  0.2000E+01
     -2.102  0.0000E+00  0.2000E+01
     -2.023  0.0000E+00  0.2000E+01
     -1.944  0.0000E+00  0.2000E+01
     -1.865  0.0000E+00  0.2000E+01
     -1.786  0.1863E+00  0.2004E+01
     -1.707  0.5719E+00  0.2032E+01
     -1.628  0.1105E+01  0.2099E+01
     -1.549  0.1707E+01  0.2208E+01
     -1.469  0.3391E+01  0.2392E+01
     -1.390  0.3198E+01  0.2739E+01
     -1.311  0.1749E+01  0.2925E+01
     -1.232  0.1297E+01  0.3045E+01
     -1.153  0.1053E+01  0.3136E+01
     -1.074  0.8891E+00  0.3213E+01
     -0.995  0.7543E+00  0.3278E+01
     -0.916  0.6803E+00  0.3334E+01
     -0.837  0.6099E+00  0.3385E+01
     -0.757  0.5335E+00  0.3430E+01
     -0.678  0.4954E+00  0.3471E+01
     -0.599  0.4593E+00  0.3509E+01
     -0.520  0.4196E+00  0.3544E+01
     -0.441  0.3776E+00  0.3575E+01
     -0.362  0.3542E+00  0.3604E+01
     -0.283  0.3336E+00  0.3631E+01
     -0.204  0.3120E+00  0.3657E+01
     -0.124  0.2903E+00  0.3681E+01
     -0.045  0.2657E+00  0.3703E+01
      0.034  0.2480E+00  0.3723E+01
      0.113  0.2357E+00  0.3742E+01
      0.192  0.2231E+00  0.3760E+01
      0.271  0.5245E+00  0.3787E+01
      0.350  0.8713E+00  0.3845E+01
      0.429  0.1561E+01  0.3929E+01
      0.508  0.1407E+01  0.4045E+01
      0.588  0.1276E+01  0.4151E+01
      0.667  0.1190E+01  0.4247E+01
      0.746  0.1146E+01  0.4339E+01
      0.825  0.1144E+01  0.4430E+01
      0.904  0.1087E+01  0.4518E+01
      0.983  0.1122E+01  0.4606E+01
      1.062  0.1186E+01  0.4696E+01
      1.141  0.1280E+01  0.4794E+01
      1.220  0.1314E+01  0.4896E+01
      1.300  0.1360E+01  0.5003E+01
      1.379  0.1536E+01  0.5115E+01
      1.458  0.1696E+01  0.5241E+01
      1.537  0.1926E+01  0.5387E+01
      1.616  0.1827E+01  0.5532E+01
      1.695  0.1806E+01  0.5676E+01
      1.774  0.1768E+01  0.5817E+01
      1.853  0.1774E+01  0.5958E+01
      1.933  0.1738E+01  0.6097E+01
      2.012  0.1707E+01  0.6233E+01
      2.091  0.1697E+01  0.6368E+01
      2.170  0.1680E+01  0.6502E+01
      2.249  0.1663E+01  0.6634E+01
      2.328  0.1650E+01  0.6765E+01
      2.407  0.1622E+01  0.6894E+01
      2.486  0.1616E+01  0.7022E+01
      2.565  0.1623E+01  0.7150E+01
      2.645  0.1623E+01  0.7279E+01
      2.724  0.1605E+01  0.7406E+01
      2.803  0.1280E+01  0.7524E+01
      2.882  0.1048E+01  0.7616E+01
      2.961  0.9022E+00  0.7693E+01
      3.040  0.7803E+00  0.7759E+01
      3.119  0.6782E+00  0.7817E+01
      3.198  0.5913E+00  0.7867E+01
      3.277  0.4999E+00  0.7910E+01
      3.357  0.4121E+00  0.7946E+01
      3.436  0.3164E+00  0.7976E+01
      3.515  0.1562E+00  0.7995E+01
      3.594  0.0000E+00  0.8000E+01
      3.673  0.0000E+00  0.8000E+01
      3.752  0.0000E+00  0.8000E+01
      3.831  0.0000E+00  0.8000E+01
      3.910  0.0000E+00  0.8000E+01
      3.989  0.0000E+00  0.8000E+01
      4.069  0.0000E+00  0.8000E+01
      4.148  0.0000E+00  0.8000E+01
      4.227  0.0000E+00  0.8000E+01
      4.306  0.0000E+00  0.8000E+01
      4.385  0.0000E+00  0.8000E+01
      4.464  0.0000E+00  0.8000E+01
      4.543  0.0000E+00  0.8000E+01
      4.622  0.0000E+00  0.8000E+01
      4.702  0.0000E+00  0.8000E+01
      4.781  0.0000E+00  0.8000E+01
      4.860  0.0000E+00  0.8000E+01
      4.939  0.0000E+00  0.8000E+01
      5.018  0.0000E+00  0.8000E+01
      5.097  0.4411E-02  0.8000E+01
      5.176  0.6186E-01  0.8002E+01
      5.255  0.1062E+00  0.8009E+01
      5.334  0.1430E+00  0.8019E+01
      5.414  0.1820E+00  0.8032E+01
      5.493  0.2253E+00  0.8048E+01
      5.572  0.2723E+00  0.8068E+01
      5.651  0.3450E+00  0.8092E+01
      5.730  0.4404E+00  0.8123E+01
      5.809  0.5443E+00  0.8162E+01
      5.888  0.6250E+00  0.8208E+01
      5.967  0.7516E+00  0.8263E+01
      6.046  0.8671E+00  0.8327E+01
      6.126  0.9759E+00  0.8400E+01
      6.205  0.1118E+01  0.8482E+01
      6.284  0.1286E+01  0.8577E+01
      6.363  0.1465E+01  0.8686E+01
      6.442  0.1647E+01  0.8808E+01
      6.521  0.1899E+01  0.8949E+01
      6.600  0.1897E+01  0.9103E+01
      6.679  0.1811E+01  0.9249E+01
      6.759  0.1760E+01  0.9390E+01
      6.838  0.1691E+01  0.9527E+01
      6.917  0.1534E+01  0.9654E+01
      6.996  0.1515E+01  0.9773E+01
      7.075  0.1276E+01  0.9885E+01
      7.154  0.1092E+01  0.9978E+01
      7.233  0.1026E+01  0.1006E+02
      7.312  0.1044E+01  0.1014E+02
      7.391  0.1059E+01  0.1023E+02
      7.471  0.8831E+00  0.1030E+02
      7.550  0.8232E+00  0.1037E+02
      7.629  0.7514E+00  0.1043E+02
      7.708  0.8215E+00  0.1049E+02
      7.787  0.8633E+00  0.1056E+02
      7.866  0.1161E+01  0.1064E+02
      7.945  0.1778E+01  0.1075E+02
      8.024  0.2839E+01  0.1094E+02
      8.103  0.2356E+01  0.1114E+02
      8.183  0.2165E+01  0.1132E+02
      8.262  0.1725E+01  0.1147E+02
      8.341  0.1547E+01  0.1160E+02
      8.420  0.1326E+01  0.1172E+02
      8.499  0.1464E+01  0.1183E+02
      8.578  0.1361E+01  0.1194E+02
      8.657  0.1294E+01  0.1204E+02
      8.736  0.1342E+01  0.1215E+02
      8.816  0.1312E+01  0.1225E+02
      8.895  0.1383E+01  0.1236E+02
      8.974  0.1580E+01  0.1248E+02
      9.053  0.1744E+01  0.1261E+02
      9.132  0.1865E+01  0.1276E+02
      9.211  0.1534E+01  0.1289E+02
      9.290  0.1636E+01  0.1302E+02
      9.369  0.1596E+01  0.1314E+02
      9.448  0.1652E+01  0.1327E+02
      9.528  0.1378E+01  0.1339E+02
      9.607  0.1231E+01  0.1350E+02
      9.686  0.1207E+01  0.1359E+02
      9.765  0.1188E+01  0.1369E+02
      9.844  0.1244E+01  0.1378E+02
      9.923  0.1207E+01  0.1388E+02
     10.002  0.1229E+01  0.1398E+02
     10.081  0.1221E+01  0.1407E+02
     10.160  0.1160E+01  0.1417E+02
     10.240  0.8962E+00  0.1425E+02
     10.319  0.9129E+00  0.1432E+02
     10.398  0.9554E+00  0.1440E+02
     10.477  0.9836E+00  0.1447E+02
     10.556  0.9837E+00  0.1455E+02
     10.635  0.9653E+00  0.1463E+02
     10.714  0.9945E+00  0.1470E+02
     10.793  0.1079E+01  0.1479E+02
     10.872  0.1146E+01  0.1487E+02
     10.952  0.1189E+01  0.1497E+02
     11.031  0.1205E+01  0.1506E+02
     11.110  0.1108E+01  0.1515E+02
     11.189  0.9964E+00  0.1524E+02
     11.268  0.1050E+01  0.1532E+02
     11.347  0.9344E+00  0.1540E+02
     11.426  0.8004E+00  0.1546E+02
     11.505  0.6991E+00  0.1552E+02
     11.585  0.4650E+00  0.1558E+02
     11.664  0.4214E+00  0.1561E+02
     11.743  0.3990E+00  0.1564E+02
     11.822  0.3782E+00  0.1568E+02
     11.901  0.3561E+00  0.1570E+02
     11.980  0.3314E+00  0.1573E+02
     12.059  0.3115E+00  0.1576E+02
     12.138  0.3054E+00  0.1578E+02
     12.217  0.3055E+00  0.1581E+02
     12.297  0.2759E+00  0.1583E+02
     12.376  0.2425E+00  0.1585E+02
     12.455  0.2179E+00  0.1587E+02
     12.534  0.1986E+00  0.1588E+02
     12.613  0.1839E+00  0.1590E+02
     12.692  0.1748E+00  0.1591E+02
     12.771  0.1633E+00  0.1593E+02
     12.850  0.1504E+00  0.1594E+02
     12.929  0.1480E+00  0.1595E+02
     13.009  0.1314E+00  0.1596E+02
     13.088  0.1117E+00  0.1597E+02
     13.167  0.8971E-01  0.1598E+02
     13.246  0.7073E-01  0.1599E+02
     13.325  0.5482E-01  0.1599E+02
     13.404  0.4200E-01  0.1599E+02
     13.483  0.4853E-01  0.1600E+02
     13.562  0.0000E+00  0.1600E+02
     13.642  0.0000E+00  0.1600E+02
     13.721  0.0000E+00  0.1600E+02
     13.800  0.0000E+00  0.1600E+02
     13.879  0.0000E+00  0.1600E+02
     13.958  0.0000E+00  0.1600E+02
     14.037  0.0000E+00  0.1600E+02
     14.116  0.0000E+00  0.1600E+02
     14.195  0.0000E+00  0.1600E+02
     14.274  0.0000E+00  0.1600E+02
     14.354  0.0000E+00  0.1600E+02
     14.433  0.0000E+00  0.1600E+02
     14.512  0.0000E+00  0.1600E+02
     14.591  0.0000E+00  0.1600E+02
