    2    2    1    1
  0.2355867E+02  0.4054139E-09  0.4054139E-09  0.4054139E-09  0.0000000E+00
  1.000000000000000E-004
  CAR 
 unknown system                          
      8    220      8
 
  0.0000000E+00  0.0000000E+00  0.0000000E+00  0.1457938E-03
    1       -8.064752   1.000000
    2        3.574457   1.000000
    3        3.574457   1.000000
    4        3.574457   1.000000
    5        5.358208   0.000000
    6        7.793438   0.000000
    7        7.793438   0.000000
    8        7.793439   0.000000
 
  0.5263158E-01  0.0000000E+00  0.0000000E+00  0.1166351E-02
    1       -8.038551   1.000000
    2        3.201601   1.000000
    3        3.544095   1.000000
    4        3.544095   1.000000
    5        5.646394   0.000000
    6        7.820559   0.000000
    7        7.848523   0.000000
    8        7.848523   0.000000
 
  0.1052632E+00  0.0000000E+00  0.0000000E+00  0.1166351E-02
    1       -7.960824   1.000000
    2        2.458910   1.000000
    3        3.460622   1.000000
    4        3.460623   1.000000
    5        6.061246   0.000000
    6        7.996074   0.000000
    7        7.996074   0.000000
    8        8.003561   0.000000
 
  0.1578947E+00  0.0000000E+00  0.0000000E+00  0.1166351E-02
    1       -7.834580   1.000000
    2        1.640535   1.000000
    3        3.342380   1.000000
    4        3.342380   1.000000
    5        6.213205   0.000000
    6        8.185914   0.000000
    7        8.185915   0.000000
    8        8.496006   0.000000
 
  0.2105263E+00  0.0000000E+00  0.0000000E+00  0.1166351E-02
    1       -7.665369   1.000000
    2        0.833028   1.000000
    3        3.209905   1.000000
    4        3.209905   1.000000
    5        6.145182   0.000000
    6        8.346789   0.000000
    7        8.346790   0.000000
    8        9.218036   0.000000
 
  0.2631579E+00  0.0000000E+00  0.0000000E+00  0.1166351E-02
    1       -7.462541   1.000000
    2        0.075739   1.000000
    3        3.080331   1.000000
    4        3.080332   1.000000
    5        5.999885   0.000000
    6        8.419844   0.000000
    7        8.419844   0.000000
    8       10.006339   0.000000
 
  0.3157895E+00  0.0000000E+00  0.0000000E+00  0.1166351E-02
    1       -7.241016   1.000000
    2       -0.601314   1.000000
    3        2.965913   1.000000
    4        2.965914   1.000000
    5        5.849337   0.000000
    6        8.401749   0.000000
    7        8.401749   0.000000
    8       10.711630   0.000000
 
  0.3684211E+00  0.0000000E+00  0.0000000E+00  0.1166351E-02
    1       -7.023815   1.000000
    2       -1.166240   1.000000
    3        2.874709   1.000000
    4        2.874709   1.000000
    5        5.723319   0.000000
    6        8.335777   0.000000
    7        8.335777   0.000000
    8       11.132049   0.000000
 
  0.4210526E+00  0.0000000E+00  0.0000000E+00  0.1166351E-02
    1       -6.843713   1.000000
    2       -1.580802   1.000000
    3        2.811653   1.000000
    4        2.811653   1.000000
    5        5.634753   0.000000
    6        8.267998   0.000000
    7        8.267998   0.000000
    8       11.246064   0.000000
 
  0.4736842E+00  0.0000000E+00  0.0000000E+00  0.1166351E-02
    1       -6.739240   1.000000
    2       -1.803253   1.000000
    3        2.779509   1.000000
    4        2.779510   1.000000
    5        5.589358   0.000000
    6        8.227593   0.000000
    7        8.227593   0.000000
    8       11.252295   0.000000
 
  0.5263158E-01  0.5263158E-01  0.0000000E+00  0.8747631E-03
    1       -8.029799   1.000000
    2        3.192758   1.000000
    3        3.475097   1.000000
    4        3.475098   1.000000
    5        5.758252   0.000000
    6        7.660068   0.000000
    7        7.946547   0.000000
    8        7.946547   0.000000
 
  0.1052632E+00  0.5263158E-01  0.0000000E+00  0.3499052E-02
    1       -7.969201   1.000000
    2        2.626421   1.000000
    3        3.360125   1.000000
    4        3.421495   1.000000
    5        6.154590   0.000000
    6        7.595954   0.000000
    7        8.134044   0.000000
    8        8.154979   0.000000
 
  0.1578947E+00  0.5263158E-01  0.0000000E+00  0.3499052E-02
    1       -7.859037   1.000000
    2        1.864465   1.000000
    3        3.221071   1.000000
    4        3.340484   1.000000
    5        6.400766   0.000000
    6        7.710118   0.000000
    7        8.360961   0.000000
    8        8.523788   0.000000
 
  0.2105263E+00  0.5263158E-01  0.0000000E+00  0.3499052E-02
    1       -7.703894   1.000000
    2        1.073906   1.000000
    3        3.078703   1.000000
    4        3.217049   1.000000
    5        6.386657   0.000000
    6        7.951760   0.000000
    7        8.557593   0.000000
    8        9.047895   0.000000
 
  0.2631579E+00  0.5263158E-01  0.0000000E+00  0.3499052E-02
    1       -7.511738   1.000000
    2        0.312744   1.000000
    3        2.948953   1.000000
    4        3.072629   1.000000
    5        6.256224   0.000000
    6        8.139453   0.000000
    7        8.658840   0.000000
    8        9.645531   0.000000
 
  0.3157895E+00  0.5263158E-01  0.0000000E+00  0.3499052E-02
    1       -7.295361   1.000000
    2       -0.383446   1.000000
    3        2.842590   1.000000
    4        2.926882   1.000000
    5        6.105812   0.000000
    6        8.201845   0.000000
    7        8.648242   0.000000
    8       10.257032   0.000000
 
  0.3684211E+00  0.5263158E-01  0.0000000E+00  0.3499052E-02
    1       -7.074774   1.000000
    2       -0.982050   1.000000
    3        2.766240   1.000000
    4        2.794060   1.000000
    5        5.973192   0.000000
    6        8.180595   0.000000
    7        8.564542   0.000000
    8       10.827646   0.000000
 
  0.4210526E+00  0.5263158E-01  0.0000000E+00  0.3499052E-02
    1       -6.879372   1.000000
    2       -1.446150   1.000000
    3        2.683786   1.000000
    4        2.723476   1.000000
    5        5.874015   0.000000
    6        8.140408   0.000000
    7        8.459434   0.000000
    8       11.211288   0.000000
 
  0.4736842E+00  0.5263158E-01  0.0000000E+00  0.3499052E-02
    1       -6.746557   1.000000
    2       -1.733847   1.000000
    3        2.602475   1.000000
    4        2.715606   1.000000
    5        5.815293   0.000000
    6        8.122601   0.000000
    7        8.369694   0.000000
    8       11.351151   0.000000
 
 -0.4736842E+00  0.5263158E-01  0.0000000E+00  0.3499052E-02
    1       -6.710393   1.000000
    2       -1.808781   1.000000
    3        2.554356   1.000000
    4        2.742241   1.000000
    5        5.800045   0.000000
    6        8.145764   0.000000
    7        8.314803   0.000000
    8       11.379390   0.000000
 
 -0.4210526E+00  0.5263158E-01  0.0000000E+00  0.3499052E-02
    1       -6.781653   1.000000
    2       -1.659628   1.000000
    3        2.542104   1.000000
    4        2.801532   1.000000
    5        5.828971   0.000000
    6        8.213055   0.000000
    7        8.300534   0.000000
    8       11.352102   0.000000
 
 -0.3684211E+00  0.5263158E-01  0.0000000E+00  0.3499052E-02
    1       -6.939744   1.000000
    2       -1.308176   1.000000
    3        2.567095   1.000000
    4        2.890199   1.000000
    5        5.900732   0.000000
    6        8.314427   0.000000
    7        8.319975   0.000000
    8       11.191822   0.000000
 
 -0.3157895E+00  0.5263158E-01  0.0000000E+00  0.3499052E-02
    1       -7.147450   1.000000
    2       -0.794741   1.000000
    3        2.629347   1.000000
    4        3.003260   1.000000
    5        6.011157   0.000000
    6        8.350951   0.000000
    7        8.422900   0.000000
    8       10.763974   0.000000
 
 -0.2631579E+00  0.5263158E-01  0.0000000E+00  0.3499052E-02
    1       -7.369391   1.000000
    2       -0.160354   1.000000
    3        2.727238   1.000000
    4        3.133383   1.000000
    5        6.150550   0.000000
    6        8.353676   0.000000
    7        8.485122   0.000000
    8       10.136006   0.000000
 
 -0.2105263E+00  0.5263158E-01  0.0000000E+00  0.3499052E-02
    1       -7.579483   1.000000
    2        0.559297   1.000000
    3        2.857028   1.000000
    4        3.269969   1.000000
    5        6.296326   0.000000
    6        8.284737   0.000000
    7        8.417129   0.000000
    8        9.482951   0.000000
 
 -0.1578947E+00  0.5263158E-01  0.0000000E+00  0.3499052E-02
    1       -7.760388   1.000000
    2        1.329933   1.000000
    3        3.012383   1.000000
    4        3.398170   1.000000
    5        6.391982   0.000000
    6        8.140290   0.000000
    7        8.164018   0.000000
    8        8.922145   0.000000
 
 -0.1052632E+00  0.5263158E-01  0.0000000E+00  0.3499052E-02
    1       -7.901182   1.000000
    2        2.106409   1.000000
    3        3.185138   1.000000
    4        3.498940   1.000000
    5        6.310727   0.000000
    6        7.873513   0.000000
    7        7.975478   0.000000
    8        8.476708   0.000000
 
 -0.5263158E-01  0.5263158E-01  0.0000000E+00  0.1749526E-02
    1       -7.995145   1.000000
    2        2.796277   1.000000
    3        3.372307   1.000000
    4        3.552171   1.000000
    5        5.971720   0.000000
    6        7.776558   0.000000
    7        7.862188   0.000000
    8        8.114431   0.000000
 
  0.1052632E+00  0.1052632E+00  0.0000000E+00  0.8747631E-03
    1       -7.926004   1.000000
    2        2.468918   1.000000
    3        3.218104   1.000000
    4        3.218104   1.000000
    5        6.508220   0.000000
    6        7.324892   0.000000
    7        8.363396   0.000000
    8        8.363396   0.000000
 
  0.1578947E+00  0.1052632E+00  0.0000000E+00  0.3499052E-02
    1       -7.832813   1.000000
    2        1.924431   1.000000
    3        3.059023   1.000000
    4        3.104065   1.000000
    5        6.821924   0.000000
    6        7.225732   0.000000
    7        8.635313   0.000000
    8        8.682750   0.000000
 
  0.2105263E+00  0.1052632E+00  0.0000000E+00  0.3499052E-02
    1       -7.693426   1.000000
    2        1.229112   1.000000
    3        2.903944   1.000000
    4        2.981997   1.000000
    5        6.831480   0.000000
    6        7.431573   0.000000
    7        8.882669   0.000000
    8        9.024304   0.000000
 
  0.2631579E+00  0.1052632E+00  0.0000000E+00  0.3499052E-02
    1       -7.514620   1.000000
    2        0.511874   1.000000
    3        2.768257   1.000000
    4        2.820441   1.000000
    5        6.700107   0.000000
    6        7.746692   0.000000
    7        9.034178   0.000000
    8        9.243649   0.000000
 
  0.3157895E+00  0.1052632E+00  0.0000000E+00  0.3499052E-02
    1       -7.307372   1.000000
    2       -0.170313   1.000000
    3        2.639184   1.000000
    4        2.662127   1.000000
    5        6.553941   0.000000
    6        7.966275   0.000000
    7        9.055811   0.000000
    8        9.503599   0.000000
 
  0.3684211E+00  0.1052632E+00  0.0000000E+00  0.3499052E-02
    1       -7.088993   1.000000
    2       -0.777583   1.000000
    3        2.460525   1.000000
    4        2.591671   1.000000
    5        6.423581   0.000000
    6        8.024400   0.000000
    7        8.975870   0.000000
    8        9.978292   0.000000
 
  0.4210526E+00  0.1052632E+00  0.0000000E+00  0.3499052E-02
    1       -6.885321   1.000000
    2       -1.271285   1.000000
    3        2.300692   1.000000
    4        2.559992   1.000000
    5        6.323612   0.000000
    6        8.004475   0.000000
    7        8.849910   0.000000
    8       10.599169   0.000000
 
  0.4736842E+00  0.1052632E+00  0.0000000E+00  0.3499052E-02
    1       -6.731001   1.000000
    2       -1.609284   1.000000
    3        2.170527   1.000000
    4        2.567877   1.000000
    5        6.261767   0.000000
    6        7.987059   0.000000
    7        8.722768   0.000000
    8       11.198905   0.000000
 
 -0.4736842E+00  0.1052632E+00  0.0000000E+00  0.3499052E-02
    1       -6.662036   1.000000
    2       -1.751547   1.000000
    3        2.077364   1.000000
    4        2.614214   1.000000
    5        6.241588   0.000000
    6        8.007255   0.000000
    7        8.620571   0.000000
    8       11.553458   0.000000
 
 -0.4210526E+00  0.1052632E+00  0.0000000E+00  0.3499052E-02
    1       -6.698023   1.000000
    2       -1.677105   1.000000
    3        2.026387   1.000000
    4        2.696094   1.000000
    5        6.263728   0.000000
    6        8.075599   0.000000
    7        8.554292   0.000000
    8       11.571576   0.000000
 
 -0.3684211E+00  0.1052632E+00  0.0000000E+00  0.3499052E-02
    1       -6.828410   1.000000
    2       -1.397707   1.000000
    3        2.021455   1.000000
    4        2.808719   1.000000
    5        6.326575   0.000000
    6        8.187797   0.000000
    7        8.521923   0.000000
    8       11.263805   0.000000
 
 -0.3157895E+00  0.1052632E+00  0.0000000E+00  0.3499052E-02
    1       -7.020221   1.000000
    2       -0.950410   1.000000
    3        2.065709   1.000000
    4        2.945034   1.000000
    5        6.425869   0.000000
    6        8.322047   0.000000
    7        8.506616   0.000000
    8       10.695065   0.000000
 
 -0.2631579E+00  0.1052632E+00  0.0000000E+00  0.3499052E-02
    1       -7.237078   1.000000
    2       -0.380007   1.000000
    3        2.162182   1.000000
    4        3.095029   1.000000
    5        6.552360   0.000000
    6        8.420734   0.000000
    7        8.473491   0.000000
    8       10.062656   0.000000
 
 -0.2105263E+00  0.1052632E+00  0.0000000E+00  0.3499052E-02
    1       -7.450104   1.000000
    2        0.269046   1.000000
    3        2.315052   1.000000
    4        3.244907   1.000000
    5        6.683880   0.000000
    6        8.357824   0.000000
    7        8.381202   0.000000
    8        9.561915   0.000000
 
 -0.1578947E+00  0.1052632E+00  0.0000000E+00  0.3499052E-02
    1       -7.639508   1.000000
    2        0.947391   1.000000
    3        2.532153   1.000000
    4        3.376369   1.000000
    5        6.758813   0.000000
    6        8.076668   0.000000
    7        8.226339   0.000000
    8        9.253528   0.000000
 
 -0.1052632E+00  0.1052632E+00  0.0000000E+00  0.1749526E-02
    1       -7.792516   1.000000
    2        1.587609   1.000000
    3        2.826311   1.000000
    4        3.467718   1.000000
    5        6.638288   0.000000
    6        7.856411   0.000000
    7        8.066821   0.000000
    8        8.924227   0.000000
 
  0.1578947E+00  0.1578947E+00  0.0000000E+00  0.8747631E-03
    1       -7.756877   1.000000
    2        1.694690   1.000000
    3        2.882869   1.000000
    4        2.882869   1.000000
    5        6.889639   0.000000
    6        7.201898   0.000000
    7        8.960992   0.000000
    8        8.960993   0.000000
 
  0.2105263E+00  0.1578947E+00  0.0000000E+00  0.3499052E-02
    1       -7.634324   1.000000
    2        1.203205   1.000000
    3        2.714437   1.000000
    4        2.722436   1.000000
    5        6.757692   0.000000
    6        7.389246   0.000000
    7        9.223520   0.000000
    8        9.273957   0.000000
 
  0.2631579E+00  0.1578947E+00  0.0000000E+00  0.3499052E-02
    1       -7.470912   1.000000
    2        0.600823   1.000000
    3        2.538557   1.000000
    4        2.569245   1.000000
    5        6.718812   0.000000
    6        7.561825   0.000000
    7        9.191345   0.000000
    8        9.498328   0.000000
 
  0.3157895E+00  0.1578947E+00  0.0000000E+00  0.3499052E-02
    1       -7.276143   1.000000
    2       -0.017003   1.000000
    3        2.318774   1.000000
    4        2.457466   1.000000
    5        6.662376   0.000000
    6        7.851413   0.000000
    7        9.081496   0.000000
    8        9.579708   0.000000
 
  0.3684211E+00  0.1578947E+00  0.0000000E+00  0.3499052E-02
    1       -7.065011   1.000000
    2       -0.594637   1.000000
    3        2.088602   1.000000
    4        2.385253   1.000000
    5        6.581392   0.000000
    6        8.136670   0.000000
    7        9.167912   0.000000
    8        9.528324   0.000000
 
  0.4210526E+00  0.1578947E+00  0.0000000E+00  0.3499052E-02
    1       -6.860028   1.000000
    2       -1.087398   1.000000
    3        1.872896   1.000000
    4        2.355769   1.000000
    5        6.512261   0.000000
    6        8.216619   0.000000
    7        9.400645   0.000000
    8        9.634421   0.000000
 
  0.4736842E+00  0.1578947E+00  0.0000000E+00  0.3499052E-02
    1       -6.692285   1.000000
    2       -1.451286   1.000000
    3        1.688646   1.000000
    4        2.369867   1.000000
    5        6.478209   0.000000
    6        8.191387   0.000000
    7        9.250665   0.000000
    8       10.338293   0.000000
 
 -0.4736842E+00  0.1578947E+00  0.0000000E+00  0.3499052E-02
    1       -6.596915   1.000000
    2       -1.643917   1.000000
    3        1.547046   1.000000
    4        2.426378   1.000000
    5        6.488768   0.000000
    6        8.171236   0.000000
    7        9.112098   0.000000
    8       11.092143   0.000000
 
 -0.4210526E+00  0.1578947E+00  0.0000000E+00  0.3499052E-02
    1       -6.599098   1.000000
    2       -1.637340   1.000000
    3        1.456157   1.000000
    4        2.522133   1.000000
    5        6.545009   0.000000
    6        8.190176   0.000000
    7        9.000781   0.000000
    8       11.577883   0.000000
 
 -0.3684211E+00  0.1578947E+00  0.0000000E+00  0.3499052E-02
    1       -6.698116   1.000000
    2       -1.433723   1.000000
    3        1.423003   1.000000
    4        2.651740   1.000000
    5        6.642298   0.000000
    6        8.256166   0.000000
    7        8.917895   0.000000
    8       11.284699   0.000000
 
 -0.3157895E+00  0.1578947E+00  0.0000000E+00  0.3499052E-02
    1       -6.867921   1.000000
    2       -1.065856   1.000000
    3        1.455439   1.000000
    4        2.806994   1.000000
    5        6.770962   0.000000
    6        8.360217   0.000000
    7        8.848545   0.000000
    8       10.606881   0.000000
 
 -0.2631579E+00  0.1578947E+00  0.0000000E+00  0.3499052E-02
    1       -7.073429   1.000000
    2       -0.583633   1.000000
    3        1.564718   1.000000
    4        2.976028   1.000000
    5        6.913879   0.000000
    6        8.457280   0.000000
    7        8.758406   0.000000
    8        9.922625   0.000000
 
 -0.2105263E+00  0.1578947E+00  0.0000000E+00  0.3499052E-02
    1       -7.284012   1.000000
    2       -0.045358   1.000000
    3        1.768838   1.000000
    4        3.142272   1.000000
    5        7.033231   0.000000
    6        8.406449   0.000000
    7        8.608356   0.000000
    8        9.467592   0.000000
 
 -0.1578947E+00  0.1578947E+00  0.0000000E+00  0.1749526E-02
    1       -7.477604   1.000000
    2        0.483651   1.000000
    3        2.091012   1.000000
    4        3.284021   1.000000
    5        7.025372   0.000000
    6        8.164142   0.000000
    7        8.407103   0.000000
    8        9.352020   0.000000
 
  0.2105263E+00  0.2105263E+00  0.0000000E+00  0.8747631E-03
    1       -7.529021   1.000000
    2        0.936393   1.000000
    3        2.533316   1.000000
    4        2.533316   1.000000
    5        6.456062   0.000000
    6        7.446225   0.000000
    7        9.670519   0.000000
    8        9.670520   0.000000
 
  0.2631579E+00  0.2105263E+00  0.0000000E+00  0.3499052E-02
    1       -7.382442   1.000000
    2        0.500460   1.000000
    3        2.346535   1.000000
    4        2.376883   1.000000
    5        6.341309   0.000000
    6        7.396751   0.000000
    7        9.745042   0.000000
    8        9.994515   0.000000
 
  0.3157895E+00  0.2105263E+00  0.0000000E+00  0.3499052E-02
    1       -7.202935   1.000000
    2       -0.001558   1.000000
    3        2.102689   1.000000
    4        2.255780   1.000000
    5        6.351215   0.000000
    6        7.456763   0.000000
    7        9.575886   0.000000
    8       10.170083   0.000000
 
  0.3684211E+00  0.2105263E+00  0.0000000E+00  0.3499052E-02
    1       -7.003584   1.000000
    2       -0.501572   1.000000
    3        1.819203   1.000000
    4        2.176518   1.000000
    5        6.352431   0.000000
    6        7.763352   0.000000
    7        9.407806   0.000000
    8       10.178860   0.000000
 
  0.4210526E+00  0.2105263E+00  0.0000000E+00  0.3499052E-02
    1       -6.804044   1.000000
    2       -0.950275   1.000000
    3        1.535920   1.000000
    4        2.142604   1.000000
    5        6.327638   0.000000
    6        8.261389   0.000000
    7        9.315824   0.000000
    8       10.072076   0.000000
 
  0.4736842E+00  0.2105263E+00  0.0000000E+00  0.3499052E-02
    1       -6.631662   1.000000
    2       -1.302609   1.000000
    3        1.283356   1.000000
    4        2.155198   1.000000
    5        6.321773   0.000000
    6        8.674361   0.000000
    7        9.506450   0.000000
    8        9.914725   0.000000
 
 -0.4736842E+00  0.2105263E+00  0.0000000E+00  0.3499052E-02
    1       -6.518831   1.000000
    2       -1.515735   1.000000
    3        1.080700   1.000000
    4        2.213438   1.000000
    5        6.360972   0.000000
    6        8.759486   0.000000
    7        9.750593   0.000000
    8       10.163611   0.000000
 
 -0.4210526E+00  0.2105263E+00  0.0000000E+00  0.3499052E-02
    1       -6.492612   1.000000
    2       -1.558378   1.000000
    3        0.941095   1.000000
    4        2.314373   1.000000
    5        6.453184   0.000000
    6        8.755301   0.000000
    7        9.600719   0.000000
    8       10.956586   0.000000
 
 -0.3684211E+00  0.2105263E+00  0.0000000E+00  0.3499052E-02
    1       -6.559885   1.000000
    2       -1.426354   1.000000
    3        0.876669   1.000000
    4        2.452697   1.000000
    5        6.595725   0.000000
    6        8.766332   0.000000
    7        9.467211   0.000000
    8       11.199564   0.000000
 
 -0.3157895E+00  0.2105263E+00  0.0000000E+00  0.3499052E-02
    1       -6.702855   1.000000
    2       -1.149625   1.000000
    3        0.903215   1.000000
    4        2.619998   1.000000
    5        6.776420   0.000000
    6        8.807926   0.000000
    7        9.331348   0.000000
    8       10.531863   0.000000
 
 -0.2631579E+00  0.2105263E+00  0.0000000E+00  0.3499052E-02
    1       -6.890390   1.000000
    2       -0.784783   1.000000
    3        1.044560   1.000000
    4        2.803723   1.000000
    5        6.967710   0.000000
    6        8.848602   0.000000
    7        9.151512   0.000000
    8        9.809474   0.000000
 
 -0.2105263E+00  0.2105263E+00  0.0000000E+00  0.1749526E-02
    1       -7.091987   1.000000
    2       -0.399627   1.000000
    3        1.329985   1.000000
    4        2.985869   1.000000
    5        7.103589   0.000000
    6        8.698445   0.000000
    7        8.895973   0.000000
    8        9.423064   0.000000
 
  0.2631579E+00  0.2631579E+00  0.0000000E+00  0.8747631E-03
    1       -7.253490   1.000000
    2        0.217503   1.000000
    3        2.208740   1.000000
    4        2.208740   1.000000
    5        6.048922   0.000000
    6        7.157890   0.000000
    7       10.447556   0.000000
    8       10.447640   0.000000
 
  0.3157895E+00  0.2631579E+00  0.0000000E+00  0.3499052E-02
    1       -7.091462   1.000000
    2       -0.161935   1.000000
    3        2.012007   1.000000
    4        2.076332   1.000000
    5        5.960101   0.000000
    6        7.008868   0.000000
    7       10.476230   0.000000
    8       10.763221   0.000000
 
  0.3684211E+00  0.2631579E+00  0.0000000E+00  0.3499052E-02
    1       -6.907986   1.000000
    2       -0.561825   1.000000
    3        1.721299   1.000000
    4        1.986775   1.000000
    5        5.994628   0.000000
    6        7.083604   0.000000
    7       10.316753   0.000000
    8       10.879292   0.000000
 
  0.4210526E+00  0.2631579E+00  0.0000000E+00  0.3499052E-02
    1       -6.720424   1.000000
    2       -0.931544   1.000000
    3        1.382127   1.000000
    4        1.944075   1.000000
    5        6.021173   0.000000
    6        7.463006   0.000000
    7       10.155166   0.000000
    8       10.825694   0.000000
 
  0.4736842E+00  0.2631579E+00  0.0000000E+00  0.3499052E-02
    1       -6.552642   1.000000
    2       -1.230719   1.000000
    3        1.051462   1.000000
    4        1.949834   1.000000
    5        6.040071   0.000000
    6        8.075129   0.000000
    7       10.027609   0.000000
    8       10.679587   0.000000
 
 -0.4736842E+00  0.2631579E+00  0.0000000E+00  0.3499052E-02
    1       -6.433284   1.000000
    2       -1.422817   1.000000
    3        0.769691   1.000000
    4        2.003613   1.000000
    5        6.093424   0.000000
    6        8.788075   0.000000
    7        9.986152   0.000000
    8       10.499868   0.000000
 
 -0.4210526E+00  0.2631579E+00  0.0000000E+00  0.3499052E-02
    1       -6.388023   1.000000
    2       -1.481214   1.000000
    3        0.564051   1.000000
    4        2.102920   1.000000
    5        6.199793   0.000000
    6        9.335047   0.000000
    7       10.235982   0.000000
    8       10.314001   0.000000
 
 -0.3684211E+00  0.2631579E+00  0.0000000E+00  0.3499052E-02
    1       -6.427658   1.000000
    2       -1.403790   1.000000
    3        0.458607   1.000000
    4        2.242886   1.000000
    5        6.361323   0.000000
    6        9.487868   0.000000
    7       10.120717   0.000000
    8       10.825296   0.000000
 
 -0.3157895E+00  0.2631579E+00  0.0000000E+00  0.3499052E-02
    1       -6.541765   1.000000
    2       -1.223708   1.000000
    3        0.483237   1.000000
    4        2.415517   1.000000
    5        6.568607   0.000000
    6        9.515066   0.000000
    7        9.886526   0.000000
    8       10.493418   0.000000
 
 -0.2631579E+00  0.2631579E+00  0.0000000E+00  0.1749526E-02
    1       -6.705332   1.000000
    2       -1.000747   1.000000
    3        0.673310   1.000000
    4        2.608508   1.000000
    5        6.794805   0.000000
    6        9.397179   0.000000
    7        9.559674   0.000000
    8        9.871592   0.000000
 
  0.3157895E+00  0.3157895E+00  0.0000000E+00  0.8747631E-03
    1       -6.948439   1.000000
    2       -0.442266   1.000000
    3        1.931812   1.000000
    4        1.931812   1.000000
    5        5.693747   0.000000
    6        6.699081   0.000000
    7       11.263827   0.000000
    8       11.263937   0.000000
 
  0.3684211E+00  0.3157895E+00  0.0000000E+00  0.3499052E-02
    1       -6.784529   1.000000
    2       -0.759334   1.000000
    3        1.738255   1.000000
    4        1.830179   1.000000
    5        5.635851   0.000000
    6        6.577882   0.000000
    7       11.321230   0.000000
    8       11.558513   0.000000
 
  0.4210526E+00  0.3157895E+00  0.0000000E+00  0.3499052E-02
    1       -6.615301   1.000000
    2       -1.053877   1.000000
    3        1.420058   1.000000
    4        1.776042   1.000000
    5        5.694057   0.000000
    6        6.733713   0.000000
    7       11.177696   0.000000
    8       11.614303   0.000000
 
  0.4736842E+00  0.3157895E+00  0.0000000E+00  0.3499052E-02
    1       -6.461685   1.000000
    2       -1.286306   1.000000
    3        1.046545   1.000000
    4        1.771525   1.000000
    5        5.751037   0.000000
    6        7.205524   0.000000
    7       11.022664   0.000000
    8       11.508482   0.000000
 
 -0.4736842E+00  0.3157895E+00  0.0000000E+00  0.3499052E-02
    1       -6.348172   1.000000
    2       -1.428336   1.000000
    3        0.690365   1.000000
    4        1.816684   1.000000
    5        5.820452   0.000000
    6        7.900500   0.000000
    7       10.890592   0.000000
    8       11.323751   0.000000
 
 -0.4210526E+00  0.3157895E+00  0.0000000E+00  0.3499052E-02
    1       -6.296708   1.000000
    2       -1.466078   1.000000
    3        0.406626   1.000000
    4        1.909559   1.000000
    5        5.934738   0.000000
    6        8.717361   0.000000
    7       10.806041   0.000000
    8       11.096211   0.000000
 
 -0.3684211E+00  0.3157895E+00  0.0000000E+00  0.3499052E-02
    1       -6.317872   1.000000
    2       -1.412336   1.000000
    3        0.244397   1.000000
    4        2.045878   1.000000
    5        6.103848   0.000000
    6        9.531943   0.000000
    7       10.811210   0.000000
    8       10.815763   0.000000
 
 -0.3157895E+00  0.3157895E+00  0.0000000E+00  0.1749526E-02
    1       -6.405770   1.000000
    2       -1.313993   1.000000
    3        0.257316   1.000000
    4        2.218359   1.000000
    5        6.322629   0.000000
    6        9.970028   0.000000
    7       10.411769   0.000000
    8       10.688394   0.000000
 
  0.3684211E+00  0.3684211E+00  0.0000000E+00  0.8747631E-03
    1       -6.643221   1.000000
    2       -1.013964   1.000000
    3        1.715697   1.000000
    4        1.715697   1.000000
    5        5.405260   0.000000
    6        6.295259   0.000000
    7       12.095165   0.000000
    8       12.095223   0.000000
 
  0.4210526E+00  0.3684211E+00  0.0000000E+00  0.3499052E-02
    1       -6.498416   1.000000
    2       -1.254345   1.000000
    3        1.536458   1.000000
    4        1.648661   1.000000
    5        5.384543   0.000000
    6        6.243418   0.000000
    7       12.189920   0.000000
    8       12.356114   0.000000
 
  0.4736842E+00  0.3684211E+00  0.0000000E+00  0.3499052E-02
    1       -6.368614   1.000000
    2       -1.434766   1.000000
    3        1.213293   1.000000
    4        1.631774   1.000000
    5        5.476364   0.000000
    6        6.490956   0.000000
    7       12.064746   0.000000
    8       12.347226   0.000000
 