   2   2   1   0
  0.9545362E+01  0.2999939E-09  0.2999939E-09  0.2999939E-09  0.0000000E+00
   1.0000000000000000E-004
  CAR 
 unknown system                          
     39.53958760    -16.08433151  301      5.52959401      1.00000000
    -16.084  0.0000E+00  0.0000E+00  0.0000E+00  0.0000E+00
    -15.899  0.0000E+00  0.0000E+00  0.0000E+00  0.0000E+00
    -15.714  0.0000E+00  0.0000E+00  0.0000E+00  0.0000E+00
    -15.528  0.0000E+00  0.0000E+00  0.0000E+00  0.0000E+00
    -15.343  0.0000E+00  0.0000E+00  0.0000E+00  0.0000E+00
    -15.157  0.0000E+00  0.0000E+00  0.0000E+00  0.0000E+00
    -14.972  0.0000E+00  0.0000E+00  0.0000E+00  0.0000E+00
    -14.786  0.0000E+00  0.0000E+00  0.0000E+00  0.0000E+00
    -14.601  0.0000E+00  0.0000E+00  0.0000E+00  0.0000E+00
    -14.416  0.0000E+00  0.0000E+00  0.0000E+00  0.0000E+00
    -14.230  0.0000E+00  0.0000E+00  0.0000E+00  0.0000E+00
    -14.045  0.0000E+00  0.0000E+00  0.0000E+00  0.0000E+00
    -13.859  0.0000E+00  0.0000E+00  0.0000E+00  0.0000E+00
    -13.674  0.0000E+00  0.0000E+00  0.0000E+00  0.0000E+00
    -13.489  0.6231E-01  0.6228E-01  0.2228E-02  0.2225E-02
    -13.303  0.1799E+00  0.1799E+00  0.2124E-01  0.2124E-01
    -13.118  0.2257E+00  0.2257E+00  0.5398E-01  0.5397E-01
    -12.932  0.3111E+00  0.3111E+00  0.1020E+00  0.1020E+00
    -12.747  0.4438E+00  0.4437E+00  0.1709E+00  0.1709E+00
    -12.561  0.7163E+00  0.7162E+00  0.2742E+00  0.2742E+00
    -12.376  0.1819E+01  0.1819E+01  0.4578E+00  0.4577E+00
    -12.191  0.4262E+01  0.4109E+01  0.9752E+00  0.9751E+00
    -12.005  0.3699E-01  0.5919E-01  0.1000E+01  0.1000E+01
    -11.820  0.0000E+00  0.0000E+00  0.1000E+01  0.1000E+01
    -11.634  0.0000E+00  0.0000E+00  0.1000E+01  0.1000E+01
    -11.449  0.0000E+00  0.0000E+00  0.1000E+01  0.1000E+01
    -11.264  0.0000E+00  0.0000E+00  0.1000E+01  0.1000E+01
    -11.078  0.0000E+00  0.0000E+00  0.1000E+01  0.1000E+01
    -10.893  0.0000E+00  0.0000E+00  0.1000E+01  0.1000E+01
    -10.707  0.0000E+00  0.0000E+00  0.1000E+01  0.1000E+01
    -10.522  0.0000E+00  0.0000E+00  0.1000E+01  0.1000E+01
    -10.337  0.0000E+00  0.0000E+00  0.1000E+01  0.1000E+01
    -10.151  0.0000E+00  0.0000E+00  0.1000E+01  0.1000E+01
     -9.966  0.0000E+00  0.0000E+00  0.1000E+01  0.1000E+01
     -9.780  0.0000E+00  0.0000E+00  0.1000E+01  0.1000E+01
     -9.595  0.0000E+00  0.0000E+00  0.1000E+01  0.1000E+01
     -9.409  0.0000E+00  0.0000E+00  0.1000E+01  0.1000E+01
     -9.224  0.0000E+00  0.0000E+00  0.1000E+01  0.1000E+01
     -9.039  0.0000E+00  0.0000E+00  0.1000E+01  0.1000E+01
     -8.853  0.0000E+00  0.0000E+00  0.1000E+01  0.1000E+01
     -8.668  0.0000E+00  0.0000E+00  0.1000E+01  0.1000E+01
     -8.482  0.0000E+00  0.0000E+00  0.1000E+01  0.1000E+01
     -8.297  0.0000E+00  0.0000E+00  0.1000E+01  0.1000E+01
     -8.112  0.0000E+00  0.0000E+00  0.1000E+01  0.1000E+01
     -7.926  0.0000E+00  0.0000E+00  0.1000E+01  0.1000E+01
     -7.741  0.0000E+00  0.0000E+00  0.1000E+01  0.1000E+01
     -7.555  0.0000E+00  0.0000E+00  0.1000E+01  0.1000E+01
     -7.370  0.0000E+00  0.0000E+00  0.1000E+01  0.1000E+01
     -7.185  0.0000E+00  0.0000E+00  0.1000E+01  0.1000E+01
     -6.999  0.0000E+00  0.0000E+00  0.1000E+01  0.1000E+01
     -6.814  0.0000E+00  0.0000E+00  0.1000E+01  0.1000E+01
     -6.628  0.0000E+00  0.0000E+00  0.1000E+01  0.1000E+01
     -6.443  0.0000E+00  0.0000E+00  0.1000E+01  0.1000E+01
     -6.257  0.0000E+00  0.0000E+00  0.1000E+01  0.1000E+01
     -6.072  0.0000E+00  0.0000E+00  0.1000E+01  0.1000E+01
     -5.887  0.0000E+00  0.0000E+00  0.1000E+01  0.1000E+01
     -5.701  0.0000E+00  0.0000E+00  0.1000E+01  0.1000E+01
     -5.516  0.0000E+00  0.0000E+00  0.1000E+01  0.1000E+01
     -5.330  0.0000E+00  0.0000E+00  0.1000E+01  0.1000E+01
     -5.145  0.0000E+00  0.0000E+00  0.1000E+01  0.1000E+01
     -4.960  0.0000E+00  0.0000E+00  0.1000E+01  0.1000E+01
     -4.774  0.0000E+00  0.0000E+00  0.1000E+01  0.1000E+01
     -4.589  0.0000E+00  0.0000E+00  0.1000E+01  0.1000E+01
     -4.403  0.0000E+00  0.0000E+00  0.1000E+01  0.1000E+01
     -4.218  0.0000E+00  0.0000E+00  0.1000E+01  0.1000E+01
     -4.032  0.0000E+00  0.0000E+00  0.1000E+01  0.1000E+01
     -3.847  0.0000E+00  0.0000E+00  0.1000E+01  0.1000E+01
     -3.662  0.0000E+00  0.0000E+00  0.1000E+01  0.1000E+01
     -3.476  0.0000E+00  0.0000E+00  0.1000E+01  0.1000E+01
     -3.291  0.0000E+00  0.0000E+00  0.1000E+01  0.1000E+01
     -3.105  0.0000E+00  0.0000E+00  0.1000E+01  0.1000E+01
     -2.920  0.0000E+00  0.0000E+00  0.1000E+01  0.1000E+01
     -2.735  0.0000E+00  0.0000E+00  0.1000E+01  0.1000E+01
     -2.549  0.0000E+00  0.0000E+00  0.1000E+01  0.1000E+01
     -2.364  0.0000E+00  0.0000E+00  0.1000E+01  0.1000E+01
     -2.178  0.0000E+00  0.0000E+00  0.1000E+01  0.1000E+01
     -1.993  0.0000E+00  0.0000E+00  0.1000E+01  0.1000E+01
     -1.808  0.0000E+00  0.0000E+00  0.1000E+01  0.1000E+01
     -1.622  0.0000E+00  0.0000E+00  0.1000E+01  0.1000E+01
     -1.437  0.1191E+00  0.1191E+00  0.1008E+01  0.1008E+01
     -1.251  0.1942E+00  0.1942E+00  0.1036E+01  0.1036E+01
     -1.066  0.2809E+00  0.2809E+00  0.1080E+01  0.1080E+01
     -0.880  0.3920E+00  0.3920E+00  0.1142E+01  0.1142E+01
     -0.695  0.6247E+00  0.6246E+00  0.1232E+01  0.1232E+01
     -0.510  0.9293E+00  0.9293E+00  0.1377E+01  0.1377E+01
     -0.324  0.1448E+01  0.1449E+01  0.1560E+01  0.1560E+01
     -0.139  0.9925E+00  0.9927E+00  0.1730E+01  0.1730E+01
      0.047  0.5019E+00  0.5020E+00  0.1855E+01  0.1855E+01
      0.232  0.2365E+00  0.2365E+00  0.1903E+01  0.1903E+01
      0.417  0.7318E+00  0.7316E+00  0.1978E+01  0.1978E+01
      0.603  0.2285E+01  0.2285E+01  0.2217E+01  0.2217E+01
      0.788  0.3001E+01  0.2998E+01  0.2545E+01  0.2545E+01
      0.974  0.2314E+01  0.2314E+01  0.3003E+01  0.3003E+01
      1.159  0.1255E+01  0.1255E+01  0.3273E+01  0.3273E+01
      1.344  0.1021E+01  0.1021E+01  0.3481E+01  0.3481E+01
      1.530  0.7976E+00  0.7977E+00  0.3648E+01  0.3648E+01
      1.715  0.6706E+00  0.6706E+00  0.3784E+01  0.3783E+01
      1.901  0.4688E+00  0.4688E+00  0.3887E+01  0.3887E+01
      2.086  0.2600E+00  0.2601E+00  0.3955E+01  0.3955E+01
      2.272  0.2613E+00  0.2613E+00  0.3996E+01  0.3996E+01
      2.457  0.6926E+00  0.6925E+00  0.4075E+01  0.4075E+01
      2.642  0.1456E+01  0.1456E+01  0.4258E+01  0.4258E+01
      2.828  0.2314E+01  0.2314E+01  0.4528E+01  0.4528E+01
      3.013  0.5215E+01  0.5217E+01  0.5019E+01  0.5019E+01
      3.199  0.7018E+01  0.7019E+01  0.5864E+01  0.5864E+01
      3.384  0.2027E+01  0.2027E+01  0.6121E+01  0.6121E+01
      3.569  0.6342E+01  0.6342E+01  0.6663E+01  0.6663E+01
      3.755  0.1485E+01  0.1485E+01  0.7000E+01  0.7000E+01
      3.940  0.9369E+00  0.9367E+00  0.7160E+01  0.7160E+01
      4.126  0.1277E+01  0.1277E+01  0.7359E+01  0.7359E+01
      4.311  0.8470E+00  0.8471E+00  0.7550E+01  0.7550E+01
      4.497  0.7755E+00  0.7755E+00  0.7697E+01  0.7697E+01
      4.682  0.7658E+00  0.7658E+00  0.7840E+01  0.7840E+01
      4.867  0.8393E+00  0.8393E+00  0.7986E+01  0.7986E+01
      5.053  0.8043E+00  0.8043E+00  0.8138E+01  0.8138E+01
      5.238  0.7687E+00  0.7687E+00  0.8282E+01  0.8282E+01
      5.424  0.7388E+00  0.7388E+00  0.8421E+01  0.8421E+01
      5.609  0.7352E+00  0.7353E+00  0.8559E+01  0.8559E+01
      5.794  0.7147E+00  0.7147E+00  0.8693E+01  0.8693E+01
      5.980  0.7091E+00  0.7091E+00  0.8829E+01  0.8829E+01
      6.165  0.7178E+00  0.7181E+00  0.8965E+01  0.8965E+01
      6.351  0.1480E-01  0.1480E-01  0.9000E+01  0.9000E+01
      6.536  0.0000E+00  0.0000E+00  0.9000E+01  0.9000E+01
      6.721  0.0000E+00  0.0000E+00  0.9000E+01  0.9000E+01
      6.907  0.0000E+00  0.0000E+00  0.9000E+01  0.9000E+01
      7.092  0.0000E+00  0.0000E+00  0.9000E+01  0.9000E+01
      7.278  0.0000E+00  0.0000E+00  0.9000E+01  0.9000E+01
      7.463  0.0000E+00  0.0000E+00  0.9000E+01  0.9000E+01
      7.649  0.1408E-02  0.1408E-02  0.9000E+01  0.9000E+01
      7.834  0.6093E-02  0.6093E-02  0.9001E+01  0.9001E+01
      8.019  0.8795E-02  0.8795E-02  0.9002E+01  0.9002E+01
      8.205  0.1195E-01  0.1195E-01  0.9004E+01  0.9004E+01
      8.390  0.1461E-01  0.1461E-01  0.9007E+01  0.9007E+01
      8.576  0.1761E-01  0.1761E-01  0.9010E+01  0.9010E+01
      8.761  0.2078E-01  0.2078E-01  0.9013E+01  0.9013E+01
      8.946  0.2427E-01  0.2427E-01  0.9017E+01  0.9017E+01
      9.132  0.2797E-01  0.2797E-01  0.9022E+01  0.9022E+01
      9.317  0.3185E-01  0.3185E-01  0.9028E+01  0.9028E+01
      9.503  0.3608E-01  0.3608E-01  0.9034E+01  0.9034E+01
      9.688  0.4097E-01  0.4097E-01  0.9041E+01  0.9041E+01
      9.873  0.4615E-01  0.4615E-01  0.9049E+01  0.9049E+01
     10.059  0.5164E-01  0.5164E-01  0.9058E+01  0.9058E+01
     10.244  0.5787E-01  0.5786E-01  0.9068E+01  0.9068E+01
     10.430  0.6500E-01  0.6500E-01  0.9080E+01  0.9080E+01
     10.615  0.7285E-01  0.7285E-01  0.9093E+01  0.9093E+01
     10.801  0.8143E-01  0.8143E-01  0.9107E+01  0.9107E+01
     10.986  0.9147E-01  0.9147E-01  0.9123E+01  0.9123E+01
     11.171  0.1035E+00  0.1035E+00  0.9141E+01  0.9141E+01
     11.357  0.1177E+00  0.1177E+00  0.9161E+01  0.9161E+01
     11.542  0.1346E+00  0.1346E+00  0.9185E+01  0.9185E+01
     11.728  0.1591E+00  0.1591E+00  0.9212E+01  0.9212E+01
     11.913  0.2166E+00  0.2166E+00  0.9245E+01  0.9245E+01
     12.098  0.2933E+00  0.2933E+00  0.9294E+01  0.9294E+01
     12.284  0.3649E+00  0.3649E+00  0.9356E+01  0.9356E+01
     12.469  0.3315E+00  0.3315E+00  0.9420E+01  0.9420E+01
     12.655  0.3326E+00  0.3326E+00  0.9481E+01  0.9481E+01
     12.840  0.3198E+00  0.3198E+00  0.9542E+01  0.9542E+01
     13.026  0.3101E+00  0.3101E+00  0.9600E+01  0.9600E+01
     13.211  0.2999E+00  0.2999E+00  0.9657E+01  0.9657E+01
     13.396  0.2885E+00  0.2885E+00  0.9712E+01  0.9711E+01
     13.582  0.2785E+00  0.2785E+00  0.9764E+01  0.9764E+01
     13.767  0.2666E+00  0.2666E+00  0.9815E+01  0.9815E+01
     13.953  0.2670E+00  0.2670E+00  0.9864E+01  0.9864E+01
     14.138  0.3013E+00  0.3013E+00  0.9917E+01  0.9917E+01
     14.323  0.2727E+00  0.2727E+00  0.9969E+01  0.9969E+01
     14.509  0.4439E-01  0.4439E-01  0.1000E+02  0.1000E+02
     14.694  0.0000E+00  0.0000E+00  0.1000E+02  0.1000E+02
     14.880  0.0000E+00  0.0000E+00  0.1000E+02  0.1000E+02
     15.065  0.3480E+00  0.3480E+00  0.1004E+02  0.1004E+02
     15.250  0.3375E+00  0.3375E+00  0.1010E+02  0.1010E+02
     15.436  0.3923E+00  0.3923E+00  0.1017E+02  0.1017E+02
     15.621  0.4482E+00  0.4482E+00  0.1025E+02  0.1025E+02
     15.807  0.3622E+00  0.3622E+00  0.1032E+02  0.1032E+02
     15.992  0.3819E+00  0.3819E+00  0.1039E+02  0.1039E+02
     16.178  0.3792E+00  0.3792E+00  0.1046E+02  0.1046E+02
     16.363  0.4842E+00  0.4842E+00  0.1054E+02  0.1054E+02
     16.548  0.7900E+00  0.7901E+00  0.1064E+02  0.1064E+02
     16.734  0.8642E+00  0.8642E+00  0.1077E+02  0.1077E+02
     16.919  0.6210E+00  0.6210E+00  0.1088E+02  0.1088E+02
     17.105  0.5860E+00  0.5860E+00  0.1100E+02  0.1100E+02
     17.290  0.5607E+00  0.5607E+00  0.1110E+02  0.1110E+02
     17.475  0.5160E+00  0.5160E+00  0.1120E+02  0.1120E+02
     17.661  0.4806E+00  0.4806E+00  0.1129E+02  0.1129E+02
     17.846  0.3816E+00  0.3816E+00  0.1137E+02  0.1137E+02
     18.032  0.3315E+00  0.3315E+00  0.1144E+02  0.1144E+02
     18.217  0.2943E+00  0.2943E+00  0.1150E+02  0.1150E+02
     18.402  0.2619E+00  0.2619E+00  0.1155E+02  0.1155E+02
     18.588  0.2363E+00  0.2363E+00  0.1159E+02  0.1159E+02
     18.773  0.2177E+00  0.2177E+00  0.1164E+02  0.1164E+02
     18.959  0.1996E+00  0.1996E+00  0.1167E+02  0.1167E+02
     19.144  0.1800E+00  0.1800E+00  0.1171E+02  0.1171E+02
     19.330  0.1793E+00  0.1792E+00  0.1174E+02  0.1174E+02
     19.515  0.1833E+00  0.1833E+00  0.1177E+02  0.1177E+02
     19.700  0.1955E+00  0.1955E+00  0.1181E+02  0.1181E+02
     19.886  0.1898E+00  0.1898E+00  0.1185E+02  0.1185E+02
     20.071  0.2845E+00  0.2845E+00  0.1189E+02  0.1189E+02
     20.257  0.3715E+00  0.3715E+00  0.1195E+02  0.1195E+02
     20.442  0.5467E+00  0.5467E+00  0.1203E+02  0.1203E+02
     20.627  0.7096E+00  0.7096E+00  0.1215E+02  0.1215E+02
     20.813  0.6717E+00  0.6717E+00  0.1228E+02  0.1228E+02
     20.998  0.6072E+00  0.6072E+00  0.1240E+02  0.1240E+02
     21.184  0.4814E+00  0.4814E+00  0.1250E+02  0.1250E+02
     21.369  0.4199E+00  0.4199E+00  0.1258E+02  0.1258E+02
     21.555  0.3907E+00  0.3907E+00  0.1266E+02  0.1266E+02
     21.740  0.3535E+00  0.3535E+00  0.1273E+02  0.1273E+02
     21.925  0.3382E+00  0.3382E+00  0.1279E+02  0.1279E+02
     22.111  0.2600E+00  0.2600E+00  0.1285E+02  0.1285E+02
     22.296  0.2248E+00  0.2248E+00  0.1289E+02  0.1289E+02
     22.482  0.1863E+00  0.1863E+00  0.1293E+02  0.1293E+02
     22.667  0.1892E+00  0.1892E+00  0.1296E+02  0.1296E+02
     22.852  0.1944E+00  0.1944E+00  0.1300E+02  0.1300E+02
     23.038  0.1813E+00  0.1813E+00  0.1303E+02  0.1303E+02
     23.223  0.1754E+00  0.1754E+00  0.1307E+02  0.1307E+02
     23.409  0.1759E+00  0.1759E+00  0.1310E+02  0.1310E+02
     23.594  0.1822E+00  0.1822E+00  0.1313E+02  0.1313E+02
     23.779  0.1831E+00  0.1831E+00  0.1316E+02  0.1316E+02
     23.965  0.1889E+00  0.1889E+00  0.1320E+02  0.1320E+02
     24.150  0.1681E+00  0.1681E+00  0.1323E+02  0.1323E+02
     24.336  0.1624E+00  0.1624E+00  0.1326E+02  0.1326E+02
     24.521  0.1740E+00  0.1740E+00  0.1330E+02  0.1330E+02
     24.707  0.1844E+00  0.1844E+00  0.1333E+02  0.1333E+02
     24.892  0.1935E+00  0.1935E+00  0.1336E+02  0.1336E+02
     25.077  0.2025E+00  0.2025E+00  0.1340E+02  0.1340E+02
     25.263  0.2100E+00  0.2100E+00  0.1344E+02  0.1344E+02
     25.448  0.2223E+00  0.2223E+00  0.1348E+02  0.1348E+02
     25.634  0.2282E+00  0.2282E+00  0.1352E+02  0.1352E+02
     25.819  0.2219E+00  0.2219E+00  0.1356E+02  0.1356E+02
     26.004  0.2235E+00  0.2235E+00  0.1360E+02  0.1360E+02
     26.190  0.2412E+00  0.2412E+00  0.1365E+02  0.1365E+02
     26.375  0.2625E+00  0.2625E+00  0.1369E+02  0.1369E+02
     26.561  0.2996E+00  0.2996E+00  0.1374E+02  0.1374E+02
     26.746  0.3129E+00  0.3129E+00  0.1380E+02  0.1380E+02
     26.931  0.3183E+00  0.3183E+00  0.1386E+02  0.1386E+02
     27.117  0.2905E+00  0.2905E+00  0.1392E+02  0.1392E+02
     27.302  0.2493E+00  0.2493E+00  0.1397E+02  0.1397E+02
     27.488  0.2214E+00  0.2214E+00  0.1401E+02  0.1401E+02
     27.673  0.1862E+00  0.1862E+00  0.1405E+02  0.1405E+02
     27.859  0.2087E+00  0.2087E+00  0.1409E+02  0.1409E+02
     28.044  0.2154E+00  0.2154E+00  0.1413E+02  0.1413E+02
     28.229  0.2606E+00  0.2606E+00  0.1417E+02  0.1417E+02
     28.415  0.3115E+00  0.3115E+00  0.1422E+02  0.1422E+02
     28.600  0.3428E+00  0.3428E+00  0.1428E+02  0.1428E+02
     28.786  0.3781E+00  0.3781E+00  0.1435E+02  0.1435E+02
     28.971  0.3956E+00  0.3956E+00  0.1442E+02  0.1442E+02
     29.156  0.3923E+00  0.3923E+00  0.1450E+02  0.1450E+02
     29.342  0.3440E+00  0.3440E+00  0.1457E+02  0.1457E+02
     29.527  0.3619E+00  0.3619E+00  0.1463E+02  0.1463E+02
     29.713  0.3500E+00  0.3500E+00  0.1470E+02  0.1470E+02
     29.898  0.3308E+00  0.3308E+00  0.1476E+02  0.1476E+02
     30.084  0.3178E+00  0.3178E+00  0.1482E+02  0.1482E+02
     30.269  0.3240E+00  0.3240E+00  0.1488E+02  0.1488E+02
     30.454  0.3260E+00  0.3260E+00  0.1494E+02  0.1494E+02
     30.640  0.3174E+00  0.3174E+00  0.1500E+02  0.1500E+02
     30.825  0.2719E+00  0.2719E+00  0.1505E+02  0.1505E+02
     31.011  0.2557E+00  0.2557E+00  0.1510E+02  0.1510E+02
     31.196  0.2340E+00  0.2340E+00  0.1515E+02  0.1515E+02
     31.381  0.2229E+00  0.2229E+00  0.1519E+02  0.1519E+02
     31.567  0.2151E+00  0.2151E+00  0.1523E+02  0.1523E+02
     31.752  0.2078E+00  0.2078E+00  0.1527E+02  0.1527E+02
     31.938  0.1985E+00  0.1985E+00  0.1531E+02  0.1531E+02
     32.123  0.1898E+00  0.1898E+00  0.1534E+02  0.1534E+02
     32.308  0.1823E+00  0.1823E+00  0.1538E+02  0.1538E+02
     32.494  0.1723E+00  0.1723E+00  0.1541E+02  0.1541E+02
     32.679  0.1643E+00  0.1643E+00  0.1544E+02  0.1544E+02
     32.865  0.1589E+00  0.1589E+00  0.1547E+02  0.1547E+02
     33.050  0.1575E+00  0.1575E+00  0.1550E+02  0.1550E+02
     33.236  0.1825E+00  0.1824E+00  0.1553E+02  0.1553E+02
     33.421  0.2189E+00  0.2189E+00  0.1557E+02  0.1557E+02
     33.606  0.1695E+00  0.1696E+00  0.1561E+02  0.1561E+02
     33.792  0.1305E+00  0.1305E+00  0.1564E+02  0.1564E+02
     33.977  0.1156E+00  0.1156E+00  0.1566E+02  0.1566E+02
     34.163  0.3211E+00  0.3211E+00  0.1570E+02  0.1570E+02
     34.348  0.3788E+00  0.3791E+00  0.1577E+02  0.1577E+02
     34.533  0.2635E+00  0.2637E+00  0.1583E+02  0.1583E+02
     34.719  0.2163E+00  0.2164E+00  0.1588E+02  0.1588E+02
     34.904  0.2139E+00  0.2141E+00  0.1591E+02  0.1591E+02
     35.090  0.2083E+00  0.2086E+00  0.1595E+02  0.1595E+02
     35.275  0.9635E-01  0.9727E-01  0.1598E+02  0.1598E+02
     35.461  0.2282E-01  0.2133E-01  0.1599E+02  0.1599E+02
     35.646  0.9088E-02  0.8465E-02  0.1600E+02  0.1600E+02
     35.831  0.6832E-02  0.6832E-02  0.1600E+02  0.1600E+02
     36.017  0.5288E-02  0.5288E-02  0.1600E+02  0.1600E+02
     36.202  0.3675E-02  0.3675E-02  0.1600E+02  0.1600E+02
     36.388  0.2184E-02  0.2184E-02  0.1600E+02  0.1600E+02
     36.573  0.1078E-02  0.1078E-02  0.1600E+02  0.1600E+02
     36.758  0.3587E-03  0.3589E-03  0.1600E+02  0.1600E+02
     36.944  0.2547E-04  0.2552E-04  0.1600E+02  0.1600E+02
     37.129  0.0000E+00  0.0000E+00  0.1600E+02  0.1600E+02
     37.315  0.0000E+00  0.0000E+00  0.1600E+02  0.1600E+02
     37.500  0.0000E+00  0.0000E+00  0.1600E+02  0.1600E+02
     37.685  0.0000E+00  0.0000E+00  0.1600E+02  0.1600E+02
     37.871  0.0000E+00  0.0000E+00  0.1600E+02  0.1600E+02
     38.056  0.0000E+00  0.0000E+00  0.1600E+02  0.1600E+02
     38.242  0.0000E+00  0.0000E+00  0.1600E+02  0.1600E+02
     38.427  0.0000E+00  0.0000E+00  0.1600E+02  0.1600E+02
     38.613  0.0000E+00  0.0000E+00  0.1600E+02  0.1600E+02
     38.798  0.0000E+00  0.0000E+00  0.1600E+02  0.1600E+02
     38.983  0.0000E+00  0.0000E+00  0.1600E+02  0.1600E+02
     39.169  0.0000E+00  0.0000E+00  0.1600E+02  0.1600E+02
     39.354  0.0000E+00  0.0000E+00  0.1600E+02  0.1600E+02
     39.540  0.0000E+00  0.0000E+00  0.1600E+02  0.1600E+02
     39.53958760    -16.08433151  301      5.52959401      1.00000000
    -16.084  0.0000E+00  0.0000E+00  0.0000E+00  0.0000E+00  0.0000E+00  0.0000E+00  0.0000E+00  0.0000E+00  0.0000E+00  0.0000E+00  0.0000E+00  0.0000E+00  0.0000E+00  0.0000E+00  0.0000E+00  0.0000E+00  0.0000E+00  0.0000E+00
    -15.899  0.0000E+00  0.0000E+00  0.0000E+00  0.0000E+00  0.0000E+00  0.0000E+00  0.0000E+00  0.0000E+00  0.0000E+00  0.0000E+00  0.0000E+00  0.0000E+00  0.0000E+00  0.0000E+00  0.0000E+00  0.0000E+00  0.0000E+00  0.0000E+00
    -15.714  0.0000E+00  0.0000E+00  0.0000E+00  0.0000E+00  0.0000E+00  0.0000E+00  0.0000E+00  0.0000E+00  0.0000E+00  0.0000E+00  0.0000E+00  0.0000E+00  0.0000E+00  0.0000E+00  0.0000E+00  0.0000E+00  0.0000E+00  0.0000E+00
    -15.528  0.0000E+00  0.0000E+00  0.0000E+00  0.0000E+00  0.0000E+00  0.0000E+00  0.0000E+00  0.0000E+00  0.0000E+00  0.0000E+00  0.0000E+00  0.0000E+00  0.0000E+00  0.0000E+00  0.0000E+00  0.0000E+00  0.0000E+00  0.0000E+00
    -15.343  0.0000E+00  0.0000E+00  0.0000E+00  0.0000E+00  0.0000E+00  0.0000E+00  0.0000E+00  0.0000E+00  0.0000E+00  0.0000E+00  0.0000E+00  0.0000E+00  0.0000E+00  0.0000E+00  0.0000E+00  0.0000E+00  0.0000E+00  0.0000E+00
    -15.157  0.0000E+00  0.0000E+00  0.0000E+00  0.0000E+00  0.0000E+00  0.0000E+00  0.0000E+00  0.0000E+00  0.0000E+00  0.0000E+00  0.0000E+00  0.0000E+00  0.0000E+00  0.0000E+00  0.0000E+00  0.0000E+00  0.0000E+00  0.0000E+00
    -14.972  0.0000E+00  0.0000E+00  0.0000E+00  0.0000E+00  0.0000E+00  0.0000E+00  0.0000E+00  0.0000E+00  0.0000E+00  0.0000E+00  0.0000E+00  0.0000E+00  0.0000E+00  0.0000E+00  0.0000E+00  0.0000E+00  0.0000E+00  0.0000E+00
    -14.786  0.0000E+00  0.0000E+00  0.0000E+00  0.0000E+00  0.0000E+00  0.0000E+00  0.0000E+00  0.0000E+00  0.0000E+00  0.0000E+00  0.0000E+00  0.0000E+00  0.0000E+00  0.0000E+00  0.0000E+00  0.0000E+00  0.0000E+00  0.0000E+00
    -14.601  0.0000E+00  0.0000E+00  0.0000E+00  0.0000E+00  0.0000E+00  0.0000E+00  0.0000E+00  0.0000E+00  0.0000E+00  0.0000E+00  0.0000E+00  0.0000E+00  0.0000E+00  0.0000E+00  0.0000E+00  0.0000E+00  0.0000E+00  0.0000E+00
    -14.416  0.0000E+00  0.0000E+00  0.0000E+00  0.0000E+00  0.0000E+00  0.0000E+00  0.0000E+00  0.0000E+00  0.0000E+00  0.0000E+00  0.0000E+00  0.0000E+00  0.0000E+00  0.0000E+00  0.0000E+00  0.0000E+00  0.0000E+00  0.0000E+00
    -14.230  0.0000E+00  0.0000E+00  0.0000E+00  0.0000E+00  0.0000E+00  0.0000E+00  0.0000E+00  0.0000E+00  0.0000E+00  0.0000E+00  0.0000E+00  0.0000E+00  0.0000E+00  0.0000E+00  0.0000E+00  0.0000E+00  0.0000E+00  0.0000E+00
    -14.045  0.0000E+00  0.0000E+00  0.0000E+00  0.0000E+00  0.0000E+00  0.0000E+00  0.0000E+00  0.0000E+00  0.0000E+00  0.0000E+00  0.0000E+00  0.0000E+00  0.0000E+00  0.0000E+00  0.0000E+00  0.0000E+00  0.0000E+00  0.0000E+00
    -13.859  0.0000E+00  0.0000E+00  0.0000E+00  0.0000E+00  0.0000E+00  0.0000E+00  0.0000E+00  0.0000E+00  0.0000E+00  0.0000E+00  0.0000E+00  0.0000E+00  0.0000E+00  0.0000E+00  0.0000E+00  0.0000E+00  0.0000E+00  0.0000E+00
    -13.674  0.0000E+00  0.0000E+00  0.0000E+00  0.0000E+00  0.0000E+00  0.0000E+00  0.0000E+00  0.0000E+00  0.0000E+00  0.0000E+00  0.0000E+00  0.0000E+00  0.0000E+00  0.0000E+00  0.0000E+00  0.0000E+00  0.0000E+00  0.0000E+00
    -13.489  0.4968E-02  0.4966E-02  0.4571E-04  0.4567E-04  0.4571E-04  0.4567E-04  0.4571E-04  0.4567E-04  0.1521E-07  0.1520E-07  0.1521E-07  0.1520E-07  0.1177E-05  0.1176E-05  0.1521E-07  0.1520E-07  0.1177E-05  0.1176E-05
    -13.303  0.1248E-01  0.1248E-01  0.4248E-03  0.4247E-03  0.4248E-03  0.4247E-03  0.4248E-03  0.4247E-03  0.3976E-06  0.3974E-06  0.3976E-06  0.3974E-06  0.3330E-04  0.3329E-04  0.3976E-06  0.3974E-06  0.3330E-04  0.3329E-04
    -13.118  0.1281E-01  0.1281E-01  0.9314E-03  0.9312E-03  0.9314E-03  0.9312E-03  0.9314E-03  0.9312E-03  0.1300E-05  0.1300E-05  0.1300E-05  0.1300E-05  0.1511E-03  0.1511E-03  0.1300E-05  0.1300E-05  0.1511E-03  0.1511E-03
    -12.932  0.1396E-01  0.1396E-01  0.1725E-02  0.1724E-02  0.1725E-02  0.1724E-02  0.1725E-02  0.1724E-02  0.2943E-05  0.2943E-05  0.2943E-05  0.2943E-05  0.4548E-03  0.4547E-03  0.2943E-05  0.2943E-05  0.4548E-03  0.4547E-03
    -12.747  0.1465E-01  0.1465E-01  0.2961E-02  0.2960E-02  0.2961E-02  0.2960E-02  0.2961E-02  0.2960E-02  0.5409E-05  0.5408E-05  0.5409E-05  0.5408E-05  0.1187E-02  0.1187E-02  0.5409E-05  0.5408E-05  0.1187E-02  0.1187E-02
    -12.561  0.1531E-01  0.1531E-01  0.5278E-02  0.5277E-02  0.5278E-02  0.5277E-02  0.5278E-02  0.5277E-02  0.8901E-05  0.8900E-05  0.8901E-05  0.8900E-05  0.3244E-02  0.3243E-02  0.8901E-05  0.8900E-05  0.3244E-02  0.3243E-02
    -12.376  0.1837E-01  0.1837E-01  0.1400E-01  0.1399E-01  0.1400E-01  0.1399E-01  0.1400E-01  0.1399E-01  0.1738E-04  0.1738E-04  0.1738E-04  0.1738E-04  0.1249E-01  0.1249E-01  0.1738E-04  0.1738E-04  0.1249E-01  0.1249E-01
    -12.191  0.8300E-02  0.8184E-02  0.2268E-01  0.2188E-01  0.2268E-01  0.2188E-01  0.2268E-01  0.2188E-01  0.1347E-04  0.1299E-04  0.1347E-04  0.1299E-04  0.5676E-01  0.5465E-01  0.1347E-04  0.1299E-04  0.5676E-01  0.5465E-01
    -12.005  0.1486E-04  0.2556E-04  0.1522E-03  0.2500E-03  0.1522E-03  0.2500E-03  0.1522E-03  0.2500E-03  0.2370E-07  0.5275E-07  0.2370E-07  0.5275E-07  0.5890E-03  0.9302E-03  0.2370E-07  0.5275E-07  0.5890E-03  0.9302E-03
    -11.820  0.0000E+00  0.0000E+00  0.0000E+00  0.0000E+00  0.0000E+00  0.0000E+00  0.0000E+00  0.0000E+00  0.0000E+00  0.0000E+00  0.0000E+00  0.0000E+00  0.0000E+00  0.0000E+00  0.0000E+00  0.0000E+00  0.0000E+00  0.0000E+00
    -11.634  0.0000E+00  0.0000E+00  0.0000E+00  0.0000E+00  0.0000E+00  0.0000E+00  0.0000E+00  0.0000E+00  0.0000E+00  0.0000E+00  0.0000E+00  0.0000E+00  0.0000E+00  0.0000E+00  0.0000E+00  0.0000E+00  0.0000E+00  0.0000E+00
    -11.449  0.0000E+00  0.0000E+00  0.0000E+00  0.0000E+00  0.0000E+00  0.0000E+00  0.0000E+00  0.0000E+00  0.0000E+00  0.0000E+00  0.0000E+00  0.0000E+00  0.0000E+00  0.0000E+00  0.0000E+00  0.0000E+00  0.0000E+00  0.0000E+00
    -11.264  0.0000E+00  0.0000E+00  0.0000E+00  0.0000E+00  0.0000E+00  0.0000E+00  0.0000E+00  0.0000E+00  0.0000E+00  0.0000E+00  0.0000E+00  0.0000E+00  0.0000E+00  0.0000E+00  0.0000E+00  0.0000E+00  0.0000E+00  0.0000E+00
    -11.078  0.0000E+00  0.0000E+00  0.0000E+00  0.0000E+00  0.0000E+00  0.0000E+00  0.0000E+00  0.0000E+00  0.0000E+00  0.0000E+00  0.0000E+00  0.0000E+00  0.0000E+00  0.0000E+00  0.0000E+00  0.0000E+00  0.0000E+00  0.0000E+00
    -10.893  0.0000E+00  0.0000E+00  0.0000E+00  0.0000E+00  0.0000E+00  0.0000E+00  0.0000E+00  0.0000E+00  0.0000E+00  0.0000E+00  0.0000E+00  0.0000E+00  0.0000E+00  0.0000E+00  0.0000E+00  0.0000E+00  0.0000E+00  0.0000E+00
    -10.707  0.0000E+00  0.0000E+00  0.0000E+00  0.0000E+00  0.0000E+00  0.0000E+00  0.0000E+00  0.0000E+00  0.0000E+00  0.0000E+00  0.0000E+00  0.0000E+00  0.0000E+00  0.0000E+00  0.0000E+00  0.0000E+00  0.0000E+00  0.0000E+00
    -10.522  0.0000E+00  0.0000E+00  0.0000E+00  0.0000E+00  0.0000E+00  0.0000E+00  0.0000E+00  0.0000E+00  0.0000E+00  0.0000E+00  0.0000E+00  0.0000E+00  0.0000E+00  0.0000E+00  0.0000E+00  0.0000E+00  0.0000E+00  0.0000E+00
    -10.337  0.0000E+00  0.0000E+00  0.0000E+00  0.0000E+00  0.0000E+00  0.0000E+00  0.0000E+00  0.0000E+00  0.0000E+00  0.0000E+00  0.0000E+00  0.0000E+00  0.0000E+00  0.0000E+00  0.0000E+00  0.0000E+00  0.0000E+00  0.0000E+00
    -10.151  0.0000E+00  0.0000E+00  0.0000E+00  0.0000E+00  0.0000E+00  0.0000E+00  0.0000E+00  0.0000E+00  0.0000E+00  0.0000E+00  0.0000E+00  0.0000E+00  0.0000E+00  0.0000E+00  0.0000E+00  0.0000E+00  0.0000E+00  0.0000E+00
     -9.966  0.0000E+00  0.0000E+00  0.0000E+00  0.0000E+00  0.0000E+00  0.0000E+00  0.0000E+00  0.0000E+00  0.0000E+00  0.0000E+00  0.0000E+00  0.0000E+00  0.0000E+00  0.0000E+00  0.0000E+00  0.0000E+00  0.0000E+00  0.0000E+00
     -9.780  0.0000E+00  0.0000E+00  0.0000E+00  0.0000E+00  0.0000E+00  0.0000E+00  0.0000E+00  0.0000E+00  0.0000E+00  0.0000E+00  0.0000E+00  0.0000E+00  0.0000E+00  0.0000E+00  0.0000E+00  0.0000E+00  0.0000E+00  0.0000E+00
     -9.595  0.0000E+00  0.0000E+00  0.0000E+00  0.0000E+00  0.0000E+00  0.0000E+00  0.0000E+00  0.0000E+00  0.0000E+00  0.0000E+00  0.0000E+00  0.0000E+00  0.0000E+00  0.0000E+00  0.0000E+00  0.0000E+00  0.0000E+00  0.0000E+00
     -9.409  0.0000E+00  0.0000E+00  0.0000E+00  0.0000E+00  0.0000E+00  0.0000E+00  0.0000E+00  0.0000E+00  0.0000E+00  0.0000E+00  0.0000E+00  0.0000E+00  0.0000E+00  0.0000E+00  0.0000E+00  0.0000E+00  0.0000E+00  0.0000E+00
     -9.224  0.0000E+00  0.0000E+00  0.0000E+00  0.0000E+00  0.0000E+00  0.0000E+00  0.0000E+00  0.0000E+00  0.0000E+00  0.0000E+00  0.0000E+00  0.0000E+00  0.0000E+00  0.0000E+00  0.0000E+00  0.0000E+00  0.0000E+00  0.0000E+00
     -9.039  0.0000E+00  0.0000E+00  0.0000E+00  0.0000E+00  0.0000E+00  0.0000E+00  0.0000E+00  0.0000E+00  0.0000E+00  0.0000E+00  0.0000E+00  0.0000E+00  0.0000E+00  0.0000E+00  0.0000E+00  0.0000E+00  0.0000E+00  0.0000E+00
     -8.853  0.0000E+00  0.0000E+00  0.0000E+00  0.0000E+00  0.0000E+00  0.0000E+00  0.0000E+00  0.0000E+00  0.0000E+00  0.0000E+00  0.0000E+00  0.0000E+00  0.0000E+00  0.0000E+00  0.0000E+00  0.0000E+00  0.0000E+00  0.0000E+00
     -8.668  0.0000E+00  0.0000E+00  0.0000E+00  0.0000E+00  0.0000E+00  0.0000E+00  0.0000E+00  0.0000E+00  0.0000E+00  0.0000E+00  0.0000E+00  0.0000E+00  0.0000E+00  0.0000E+00  0.0000E+00  0.0000E+00  0.0000E+00  0.0000E+00
     -8.482  0.0000E+00  0.0000E+00  0.0000E+00  0.0000E+00  0.0000E+00  0.0000E+00  0.0000E+00  0.0000E+00  0.0000E+00  0.0000E+00  0.0000E+00  0.0000E+00  0.0000E+00  0.0000E+00  0.0000E+00  0.0000E+00  0.0000E+00  0.0000E+00
     -8.297  0.0000E+00  0.0000E+00  0.0000E+00  0.0000E+00  0.0000E+00  0.0000E+00  0.0000E+00  0.0000E+00  0.0000E+00  0.0000E+00  0.0000E+00  0.0000E+00  0.0000E+00  0.0000E+00  0.0000E+00  0.0000E+00  0.0000E+00  0.0000E+00
     -8.112  0.0000E+00  0.0000E+00  0.0000E+00  0.0000E+00  0.0000E+00  0.0000E+00  0.0000E+00  0.0000E+00  0.0000E+00  0.0000E+00  0.0000E+00  0.0000E+00  0.0000E+00  0.0000E+00  0.0000E+00  0.0000E+00  0.0000E+00  0.0000E+00
     -7.926  0.0000E+00  0.0000E+00  0.0000E+00  0.0000E+00  0.0000E+00  0.0000E+00  0.0000E+00  0.0000E+00  0.0000E+00  0.0000E+00  0.0000E+00  0.0000E+00  0.0000E+00  0.0000E+00  0.0000E+00  0.0000E+00  0.0000E+00  0.0000E+00
     -7.741  0.0000E+00  0.0000E+00  0.0000E+00  0.0000E+00  0.0000E+00  0.0000E+00  0.0000E+00  0.0000E+00  0.0000E+00  0.0000E+00  0.0000E+00  0.0000E+00  0.0000E+00  0.0000E+00  0.0000E+00  0.0000E+00  0.0000E+00  0.0000E+00
     -7.555  0.0000E+00  0.0000E+00  0.0000E+00  0.0000E+00  0.0000E+00  0.0000E+00  0.0000E+00  0.0000E+00  0.0000E+00  0.0000E+00  0.0000E+00  0.0000E+00  0.0000E+00  0.0000E+00  0.0000E+00  0.0000E+00  0.0000E+00  0.0000E+00
     -7.370  0.0000E+00  0.0000E+00  0.0000E+00  0.0000E+00  0.0000E+00  0.0000E+00  0.0000E+00  0.0000E+00  0.0000E+00  0.0000E+00  0.0000E+00  0.0000E+00  0.0000E+00  0.0000E+00  0.0000E+00  0.0000E+00  0.0000E+00  0.0000E+00
     -7.185  0.0000E+00  0.0000E+00  0.0000E+00  0.0000E+00  0.0000E+00  0.0000E+00  0.0000E+00  0.0000E+00  0.0000E+00  0.0000E+00  0.0000E+00  0.0000E+00  0.0000E+00  0.0000E+00  0.0000E+00  0.0000E+00  0.0000E+00  0.0000E+00
     -6.999  0.0000E+00  0.0000E+00  0.0000E+00  0.0000E+00  0.0000E+00  0.0000E+00  0.0000E+00  0.0000E+00  0.0000E+00  0.0000E+00  0.0000E+00  0.0000E+00  0.0000E+00  0.0000E+00  0.0000E+00  0.0000E+00  0.0000E+00  0.0000E+00
     -6.814  0.0000E+00  0.0000E+00  0.0000E+00  0.0000E+00  0.0000E+00  0.0000E+00  0.0000E+00  0.0000E+00  0.0000E+00  0.0000E+00  0.0000E+00  0.0000E+00  0.0000E+00  0.0000E+00  0.0000E+00  0.0000E+00  0.0000E+00  0.0000E+00