   2   2   0   0
  0.2662352E+02  0.4222829E-09  0.4222829E-09  0.4222829E-09  0.0000000E+00
  1.000000000000000E-004
  CAR 
 unknown system                          
     15.80501525     -6.59039283  301      5.66176168      1.00000000
     -6.590  0.0000E+00  0.0000E+00
     -6.516  0.0000E+00  0.0000E+00
     -6.441  0.0000E+00  0.0000E+00
     -6.366  0.0000E+00  0.0000E+00
     -6.292  0.0000E+00  0.0000E+00
     -6.217  0.0000E+00  0.0000E+00
     -6.142  0.0000E+00  0.0000E+00
     -6.068  0.0000E+00  0.0000E+00
     -5.993  0.0000E+00  0.0000E+00
     -5.919  0.0000E+00  0.0000E+00
     -5.844  0.0000E+00  0.0000E+00
     -5.769  0.0000E+00  0.0000E+00
     -5.695  0.0000E+00  0.0000E+00
     -5.620  0.0000E+00  0.0000E+00
     -5.545  0.8363E-01  0.7568E-03
     -5.471  0.1528E+00  0.9390E-02
     -5.396  0.2121E+00  0.2282E-01
     -5.321  0.2501E+00  0.4000E-01
     -5.247  0.2937E+00  0.6044E-01
     -5.172  0.3286E+00  0.8363E-01
     -5.097  0.3677E+00  0.1096E+00
     -5.023  0.3996E+00  0.1383E+00
     -4.948  0.4353E+00  0.1694E+00
     -4.873  0.4705E+00  0.2033E+00
     -4.799  0.5051E+00  0.2397E+00
     -4.724  0.5428E+00  0.2788E+00
     -4.649  0.5814E+00  0.3207E+00
     -4.575  0.6224E+00  0.3656E+00
     -4.500  0.6670E+00  0.4137E+00
     -4.426  0.7161E+00  0.4653E+00
     -4.351  0.7727E+00  0.5208E+00
     -4.276  0.8365E+00  0.5809E+00
     -4.202  0.9119E+00  0.6460E+00
     -4.127  0.1016E+01  0.7178E+00
     -4.052  0.1162E+01  0.7986E+00
     -3.978  0.1473E+01  0.8957E+00
     -3.903  0.1501E+01  0.1008E+01
     -3.828  0.1460E+01  0.1119E+01
     -3.754  0.1460E+01  0.1228E+01
     -3.679  0.1457E+01  0.1337E+01
     -3.604  0.1446E+01  0.1445E+01
     -3.530  0.1476E+01  0.1554E+01
     -3.455  0.1507E+01  0.1665E+01
     -3.380  0.1622E+01  0.1781E+01
     -3.306  0.1964E+01  0.1911E+01
     -3.231  0.0000E+00  0.2000E+01
     -3.156  0.0000E+00  0.2000E+01
     -3.082  0.0000E+00  0.2000E+01
     -3.007  0.0000E+00  0.2000E+01
     -2.932  0.0000E+00  0.2000E+01
     -2.858  0.0000E+00  0.2000E+01
     -2.783  0.0000E+00  0.2000E+01
     -2.709  0.0000E+00  0.2000E+01
     -2.634  0.0000E+00  0.2000E+01
     -2.559  0.0000E+00  0.2000E+01
     -2.485  0.0000E+00  0.2000E+01
     -2.410  0.0000E+00  0.2000E+01
     -2.335  0.0000E+00  0.2000E+01
     -2.261  0.0000E+00  0.2000E+01
     -2.186  0.0000E+00  0.2000E+01
     -2.111  0.0000E+00  0.2000E+01
     -2.037  0.0000E+00  0.2000E+01
     -1.962  0.0000E+00  0.2000E+01
     -1.887  0.0000E+00  0.2000E+01
     -1.813  0.0000E+00  0.2000E+01
     -1.738  0.0000E+00  0.2000E+01
     -1.663  0.0000E+00  0.2000E+01
     -1.589  0.0000E+00  0.2000E+01
     -1.514  0.0000E+00  0.2000E+01
     -1.439  0.0000E+00  0.2000E+01
     -1.365  0.0000E+00  0.2000E+01
     -1.290  0.0000E+00  0.2000E+01
     -1.215  0.0000E+00  0.2000E+01
     -1.141  0.0000E+00  0.2000E+01
     -1.066  0.0000E+00  0.2000E+01
     -0.992  0.0000E+00  0.2000E+01
     -0.917  0.0000E+00  0.2000E+01
     -0.842  0.0000E+00  0.2000E+01
     -0.768  0.0000E+00  0.2000E+01
     -0.693  0.0000E+00  0.2000E+01
     -0.618  0.0000E+00  0.2000E+01
     -0.544  0.0000E+00  0.2000E+01
     -0.469  0.0000E+00  0.2000E+01
     -0.394  0.0000E+00  0.2000E+01
     -0.320  0.0000E+00  0.2000E+01
     -0.245  0.0000E+00  0.2000E+01
     -0.170  0.1385E+00  0.2002E+01
     -0.096  0.7785E+00  0.2039E+01
     -0.021  0.1234E+01  0.2114E+01
      0.054  0.2112E+01  0.2237E+01
      0.128  0.4525E+01  0.2477E+01
      0.203  0.2107E+01  0.2700E+01
      0.278  0.1481E+01  0.2831E+01
      0.352  0.1224E+01  0.2931E+01
      0.427  0.1019E+01  0.3015E+01
      0.501  0.8850E+00  0.3086E+01
      0.576  0.7982E+00  0.3148E+01
      0.651  0.7142E+00  0.3205E+01
      0.725  0.6362E+00  0.3255E+01
      0.800  0.5926E+00  0.3301E+01
      0.875  0.5510E+00  0.3343E+01
      0.949  0.5107E+00  0.3383E+01
      1.024  0.4653E+00  0.3419E+01
      1.099  0.4358E+00  0.3453E+01
      1.173  0.4132E+00  0.3485E+01
      1.248  0.3906E+00  0.3515E+01
      1.323  0.3652E+00  0.3543E+01
      1.397  0.3412E+00  0.3569E+01
      1.472  0.3177E+00  0.3594E+01
      1.547  0.3042E+00  0.3617E+01
      1.621  0.2899E+00  0.3639E+01
      1.696  0.2753E+00  0.3660E+01
      1.771  0.2605E+00  0.3680E+01
      1.845  0.2424E+00  0.3699E+01
      1.920  0.2803E+00  0.3717E+01
      1.995  0.7225E+00  0.3756E+01
      2.069  0.9880E+00  0.3820E+01
      2.144  0.1472E+01  0.3915E+01
      2.218  0.1376E+01  0.4022E+01
      2.293  0.1234E+01  0.4120E+01
      2.368  0.1177E+01  0.4210E+01
      2.442  0.1133E+01  0.4296E+01
      2.517  0.1131E+01  0.4380E+01
      2.592  0.1085E+01  0.4463E+01
      2.666  0.1041E+01  0.4542E+01
      2.741  0.1136E+01  0.4628E+01
      2.816  0.1191E+01  0.4716E+01
      2.890  0.1249E+01  0.4808E+01
      2.965  0.1355E+01  0.4903E+01
      3.040  0.1346E+01  0.5001E+01
      3.114  0.1455E+01  0.5105E+01
      3.189  0.1655E+01  0.5221E+01
      3.264  0.1818E+01  0.5353E+01
      3.338  0.1732E+01  0.5484E+01
      3.413  0.1718E+01  0.5613E+01
      3.488  0.1674E+01  0.5739E+01
      3.562  0.1662E+01  0.5864E+01
      3.637  0.1640E+01  0.5987E+01
      3.711  0.1603E+01  0.6108E+01
      3.786  0.1577E+01  0.6227E+01
      3.861  0.1564E+01  0.6344E+01
      3.935  0.1544E+01  0.6461E+01
      4.010  0.1521E+01  0.6575E+01
      4.085  0.1501E+01  0.6688E+01
      4.159  0.1472E+01  0.6799E+01
      4.234  0.1447E+01  0.6908E+01
      4.309  0.1444E+01  0.7015E+01
      4.383  0.1429E+01  0.7123E+01
      4.458  0.1429E+01  0.7230E+01
      4.533  0.1405E+01  0.7336E+01
      4.607  0.1378E+01  0.7440E+01
      4.682  0.1060E+01  0.7531E+01
      4.757  0.9062E+00  0.7604E+01
      4.831  0.7973E+00  0.7668E+01
      4.906  0.7004E+00  0.7723E+01
      4.981  0.6257E+00  0.7773E+01
      5.055  0.5546E+00  0.7817E+01
      5.130  0.4964E+00  0.7856E+01
      5.205  0.4363E+00  0.7891E+01
      5.279  0.3741E+00  0.7921E+01
      5.354  0.3307E+00  0.7947E+01
      5.428  0.2677E+00  0.7970E+01
      5.503  0.1960E+00  0.7987E+01
      5.578  0.1018E+00  0.7998E+01
      5.652  0.0000E+00  0.8000E+01
      5.727  0.0000E+00  0.8000E+01
      5.802  0.0000E+00  0.8000E+01
      5.876  0.0000E+00  0.8000E+01
      5.951  0.0000E+00  0.8000E+01
      6.026  0.0000E+00  0.8000E+01
      6.100  0.0000E+00  0.8000E+01
      6.175  0.0000E+00  0.8000E+01
      6.250  0.0000E+00  0.8000E+01
      6.324  0.0000E+00  0.8000E+01
      6.399  0.0000E+00  0.8000E+01
      6.474  0.0000E+00  0.8000E+01
      6.548  0.0000E+00  0.8000E+01
      6.623  0.0000E+00  0.8000E+01
      6.698  0.1608E-01  0.8000E+01
      6.772  0.1188E+00  0.8005E+01
      6.847  0.1929E+00  0.8017E+01
      6.922  0.2505E+00  0.8034E+01
      6.996  0.3124E+00  0.8055E+01
      7.071  0.3816E+00  0.8080E+01
      7.145  0.4663E+00  0.8112E+01
      7.220  0.5241E+00  0.8149E+01
      7.295  0.5923E+00  0.8191E+01
      7.369  0.6931E+00  0.8239E+01
      7.444  0.8098E+00  0.8295E+01
      7.519  0.8986E+00  0.8358E+01
      7.593  0.9982E+00  0.8429E+01
      7.668  0.1091E+01  0.8507E+01
      7.743  0.1195E+01  0.8592E+01
      7.817  0.1317E+01  0.8686E+01
      7.892  0.1498E+01  0.8790E+01
      7.967  0.1814E+01  0.8914E+01
      8.041  0.1964E+01  0.9057E+01
      8.116  0.1876E+01  0.9201E+01
      8.191  0.1886E+01  0.9341E+01
      8.265  0.1872E+01  0.9484E+01
      8.340  0.1816E+01  0.9622E+01
      8.415  0.1558E+01  0.9748E+01
      8.489  0.1447E+01  0.9863E+01
      8.564  0.1230E+01  0.9963E+01
      8.638  0.1050E+01  0.1005E+02
      8.713  0.9290E+00  0.1012E+02
      8.788  0.9111E+00  0.1019E+02
      8.862  0.9344E+00  0.1026E+02
      8.937  0.8355E+00  0.1032E+02
      9.012  0.8677E+00  0.1038E+02
      9.086  0.1027E+01  0.1045E+02
      9.161  0.1401E+01  0.1054E+02
      9.236  0.3247E+01  0.1072E+02
      9.310  0.3335E+01  0.1096E+02
      9.385  0.2148E+01  0.1116E+02
      9.460  0.1782E+01  0.1131E+02
      9.534  0.1674E+01  0.1143E+02
      9.609  0.1699E+01  0.1156E+02
      9.684  0.1627E+01  0.1168E+02
      9.758  0.1393E+01  0.1180E+02
      9.833  0.1293E+01  0.1190E+02
      9.908  0.1301E+01  0.1200E+02
      9.982  0.1313E+01  0.1209E+02
     10.057  0.1388E+01  0.1219E+02
     10.132  0.1619E+01  0.1230E+02
     10.206  0.1644E+01  0.1242E+02
     10.281  0.1785E+01  0.1255E+02
     10.355  0.1655E+01  0.1268E+02
     10.430  0.1375E+01  0.1279E+02
     10.505  0.1451E+01  0.1290E+02
     10.579  0.1487E+01  0.1301E+02
     10.654  0.1596E+01  0.1313E+02
     10.729  0.1501E+01  0.1324E+02
     10.803  0.1342E+01  0.1335E+02
     10.878  0.1322E+01  0.1345E+02
     10.953  0.1313E+01  0.1354E+02
     11.027  0.1283E+01  0.1364E+02
     11.102  0.1329E+01  0.1374E+02
     11.177  0.1221E+01  0.1383E+02
     11.251  0.1298E+01  0.1393E+02
     11.326  0.1234E+01  0.1402E+02
     11.401  0.1187E+01  0.1411E+02
     11.475  0.1187E+01  0.1420E+02
     11.550  0.1061E+01  0.1428E+02
     11.625  0.9887E+00  0.1436E+02
     11.699  0.1007E+01  0.1443E+02
     11.774  0.1015E+01  0.1451E+02
     11.848  0.9818E+00  0.1459E+02
     11.923  0.9960E+00  0.1466E+02
     11.998  0.1045E+01  0.1473E+02
     12.072  0.1217E+01  0.1482E+02
     12.147  0.1380E+01  0.1492E+02
     12.222  0.1178E+01  0.1502E+02
     12.296  0.1351E+01  0.1511E+02
     12.371  0.1195E+01  0.1519E+02
     12.446  0.1041E+01  0.1528E+02
     12.520  0.9185E+00  0.1535E+02
     12.595  0.8122E+00  0.1542E+02
     12.670  0.7518E+00  0.1547E+02
     12.744  0.6861E+00  0.1553E+02
     12.819  0.6107E+00  0.1558E+02
     12.894  0.5050E+00  0.1562E+02
     12.968  0.4127E+00  0.1565E+02
     13.043  0.3796E+00  0.1568E+02
     13.118  0.3543E+00  0.1571E+02
     13.192  0.3319E+00  0.1573E+02
     13.267  0.3181E+00  0.1576E+02
     13.342  0.3181E+00  0.1578E+02
     13.416  0.3135E+00  0.1581E+02
     13.491  0.2828E+00  0.1583E+02
     13.565  0.2477E+00  0.1585E+02
     13.640  0.2207E+00  0.1587E+02
     13.715  0.2006E+00  0.1588E+02
     13.789  0.1842E+00  0.1590E+02
     13.864  0.1751E+00  0.1591E+02
     13.939  0.1637E+00  0.1592E+02
     14.013  0.1523E+00  0.1593E+02
     14.088  0.1420E+00  0.1594E+02
     14.163  0.1371E+00  0.1595E+02
     14.237  0.1166E+00  0.1596E+02
     14.312  0.1015E+00  0.1597E+02
     14.387  0.8281E-01  0.1598E+02
     14.461  0.6655E-01  0.1599E+02
     14.536  0.5273E-01  0.1599E+02
     14.611  0.4134E-01  0.1599E+02
     14.685  0.3660E-01  0.1600E+02
     14.760  0.5277E-01  0.1600E+02
     14.835  0.0000E+00  0.1600E+02
     14.909  0.0000E+00  0.1600E+02
     14.984  0.0000E+00  0.1600E+02
     15.059  0.0000E+00  0.1600E+02
     15.133  0.0000E+00  0.1600E+02
     15.208  0.0000E+00  0.1600E+02
     15.282  0.0000E+00  0.1600E+02
     15.357  0.0000E+00  0.1600E+02
     15.432  0.0000E+00  0.1600E+02
     15.506  0.0000E+00  0.1600E+02
     15.581  0.0000E+00  0.1600E+02
     15.656  0.0000E+00  0.1600E+02
     15.730  0.0000E+00  0.1600E+02
     15.805  0.0000E+00  0.1600E+02
