    2    2    1    1
  0.2662352E+02  0.4222829E-09  0.4222829E-09  0.4222829E-09  0.0000000E+00
  1.000000000000000E-004
  CAR 
 unknown system                          
      8    220      8
 
  0.0000000E+00  0.0000000E+00  0.0000000E+00  0.1457938E-03
    1       -5.572420   1.000000
    2        5.636462   1.000000
    3        5.636462   1.000000
    4        5.636462   1.000000
    5        7.950156   0.000000
    6        8.784583   0.000000
    7        8.784583   0.000000
    8        8.784584   0.000000
 
  0.5263158E-01  0.0000000E+00  0.0000000E+00  0.1166351E-02
    1       -5.543936   1.000000
    2        5.271259   1.000000
    3        5.594155   1.000000
    4        5.594155   1.000000
    5        8.135844   0.000000
    6        8.848811   0.000000
    7        8.848811   0.000000
    8        8.899899   0.000000
 
  0.1052632E+00  0.0000000E+00  0.0000000E+00  0.1166351E-02
    1       -5.459107   1.000000
    2        4.504307   1.000000
    3        5.480811   1.000000
    4        5.480812   1.000000
    5        8.178116   0.000000
    6        9.018515   0.000000
    7        9.018515   0.000000
    8        9.459715   0.000000
 
  0.1578947E+00  0.0000000E+00  0.0000000E+00  0.1166351E-02
    1       -5.320173   1.000000
    2        3.638900   1.000000
    3        5.326237   1.000000
    4        5.326237   1.000000
    5        8.021719   0.000000
    6        9.234162   0.000000
    7        9.234162   0.000000
    8       10.272062   0.000000
 
  0.2105263E+00  0.0000000E+00  0.0000000E+00  0.1166351E-02
    1       -5.131402   1.000000
    2        2.776899   1.000000
    3        5.159199   1.000000
    4        5.159199   1.000000
    5        7.825786   0.000000
    6        9.418956   0.000000
    7        9.418956   0.000000
    8       11.123872   0.000000
 
  0.2631579E+00  0.0000000E+00  0.0000000E+00  0.1166351E-02
    1       -4.900406   1.000000
    2        1.961424   1.000000
    3        5.000458   1.000000
    4        5.000458   1.000000
    5        7.639731   0.000000
    6        9.512295   0.000000
    7        9.512295   0.000000
    8       11.926598   0.000000
 
  0.3157895E+00  0.0000000E+00  0.0000000E+00  0.1166351E-02
    1       -4.640517   1.000000
    2        1.222277   1.000000
    3        4.863152   1.000000
    4        4.863152   1.000000
    5        7.481943   0.000000
    6        9.510567   0.000000
    7        9.510567   0.000000
    8       12.402491   0.000000
 
  0.3684211E+00  0.0000000E+00  0.0000000E+00  0.1166351E-02
    1       -4.374993   1.000000
    2        0.591703   1.000000
    3        4.755201   1.000000
    4        4.755201   1.000000
    5        7.360268   0.000000
    6        9.457248   0.000000
    7        9.457248   0.000000
    8       12.374313   0.000000
 
  0.4210526E+00  0.0000000E+00  0.0000000E+00  0.1166351E-02
    1       -4.143308   1.000000
    2        0.114239   1.000000
    3        4.681189   1.000000
    4        4.681189   1.000000
    5        7.278085   0.000000
    6        9.398262   0.000000
    7        9.398262   0.000000
    8       12.265175   0.000000
 
  0.4736842E+00  0.0000000E+00  0.0000000E+00  0.1166351E-02
    1       -4.002188   1.000000
    2       -0.150423   1.000000
    3        4.643630   1.000000
    4        4.643630   1.000000
    5        7.236751   0.000000
    6        9.362404   0.000000
    7        9.362404   0.000000
    8       12.199864   0.000000
 
  0.5263158E-01  0.5263158E-01  0.0000000E+00  0.8747631E-03
    1       -5.534420   1.000000
    2        5.301865   1.000000
    3        5.499656   1.000000
    4        5.499657   1.000000
    5        8.255556   0.000000
    6        8.686500   0.000000
    7        8.972912   0.000000
    8        8.972912   0.000000
 
  0.1052632E+00  0.5263158E-01  0.0000000E+00  0.3499052E-02
    1       -5.468303   1.000000
    2        4.706458   1.000000
    3        5.347930   1.000000
    4        5.439226   1.000000
    5        8.376095   0.000000
    6        8.714925   0.000000
    7        9.192503   0.000000
    8        9.374511   0.000000
 
  0.1578947E+00  0.5263158E-01  0.0000000E+00  0.3499052E-02
    1       -5.347280   1.000000
    2        3.892371   1.000000
    3        5.171560   1.000000
    4        5.333271   1.000000
    5        8.271424   0.000000
    6        8.867808   0.000000
    7        9.448465   0.000000
    8       10.076273   0.000000
 
  0.2105263E+00  0.5263158E-01  0.0000000E+00  0.3499052E-02
    1       -5.174820   1.000000
    2        3.043872   1.000000
    3        4.996902   1.000000
    4        5.175317   1.000000
    5        8.095537   0.000000
    6        9.073432   0.000000
    7        9.667246   0.000000
    8       10.773096   0.000000
 
  0.2631579E+00  0.5263158E-01  0.0000000E+00  0.3499052E-02
    1       -4.957271   1.000000
    2        2.222367   1.000000
    3        4.841563   1.000000
    4        4.997474   1.000000
    5        7.913599   0.000000
    6        9.236636   0.000000
    7        9.783128   0.000000
    8       11.319165   0.000000
 
  0.3157895E+00  0.5263158E-01  0.0000000E+00  0.3499052E-02
    1       -4.705692   1.000000
    2        1.463161   1.000000
    3        4.716324   1.000000
    4        4.823473   1.000000
    5        7.751330   0.000000
    6        9.303308   0.000000
    7        9.781244   0.000000
    8       11.781965   0.000000
 
  0.3684211E+00  0.5263158E-01  0.0000000E+00  0.3499052E-02
    1       -4.439410   1.000000
    2        0.798151   1.000000
    3        4.627363   1.000000
    4        4.668328   1.000000
    5        7.620289   0.000000
    6        9.297734   0.000000
    7        9.702945   0.000000
    8       12.205325   0.000000
 
  0.4210526E+00  0.5263158E-01  0.0000000E+00  0.3499052E-02
    1       -4.191809   1.000000
    2        0.267766   1.000000
    3        4.541326   1.000000
    4        4.577843   1.000000
    5        7.525937   0.000000
    6        9.272995   0.000000
    7        9.600815   0.000000
    8       12.373477   0.000000
 
  0.4736842E+00  0.5263158E-01  0.0000000E+00  0.3499052E-02
    1       -4.014486   1.000000
    2       -0.072285   1.000000
    3        4.448360   1.000000
    4        4.568846   1.000000
    5        7.470803   0.000000
    6        9.266598   0.000000
    7        9.510960   0.000000
    8       12.368857   0.000000
 
 -0.4736842E+00  0.5263158E-01  0.0000000E+00  0.3499052E-02
    1       -3.964556   1.000000
    2       -0.162950   1.000000
    3        4.393305   1.000000
    4        4.599901   1.000000
    5        7.455988   0.000000
    6        9.296313   0.000000
    7        9.451866   0.000000
    8       12.365665   0.000000
 
 -0.4210526E+00  0.5263158E-01  0.0000000E+00  0.3499052E-02
    1       -4.062192   1.000000
    2        0.016492   1.000000
    3        4.378666   1.000000
    4        4.669212   1.000000
    5        7.481766   0.000000
    6        9.365648   0.000000
    7        9.428557   0.000000
    8       12.398880   0.000000
 
 -0.3684211E+00  0.5263158E-01  0.0000000E+00  0.3499052E-02
    1       -4.269739   1.000000
    2        0.427304   1.000000
    3        4.405840   1.000000
    4        4.773658   1.000000
    5        7.547831   0.000000
    6        9.433720   0.000000
    7        9.465705   0.000000
    8       12.436633   0.000000
 
 -0.3157895E+00  0.5263158E-01  0.0000000E+00  0.3499052E-02
    1       -4.528416   1.000000
    2        1.008010   1.000000
    3        4.475091   1.000000
    4        4.908397   1.000000
    5        7.653029   0.000000
    6        9.445141   0.000000
    7        9.571759   0.000000
    8       12.317270   0.000000
 
 -0.2631579E+00  0.5263158E-01  0.0000000E+00  0.3499052E-02
    1       -4.792642   1.000000
    2        1.707874   1.000000
    3        4.585290   1.000000
    4        5.066115   1.000000
    5        7.794569   0.000000
    6        9.423657   0.000000
    7        9.635412   0.000000
    8       11.868031   0.000000
 
 -0.2105263E+00  0.5263158E-01  0.0000000E+00  0.3499052E-02
    1       -5.034484   1.000000
    2        2.489730   1.000000
    3        4.733513   1.000000
    4        5.235631   1.000000
    5        7.966061   0.000000
    6        9.328133   0.000000
    7        9.586699   0.000000
    8       11.272061   0.000000
 
 -0.1578947E+00  0.5263158E-01  0.0000000E+00  0.3499052E-02
    1       -5.237881   1.000000
    2        3.320113   1.000000
    3        4.914573   1.000000
    4        5.399713   1.000000
    5        8.152498   0.000000
    6        9.158506   0.000000
    7        9.384523   0.000000
    8       10.613426   0.000000
 
 -0.1052632E+00  0.5263158E-01  0.0000000E+00  0.3499052E-02
    1       -5.393689   1.000000
    2        4.151686   1.000000
    3        5.122055   1.000000
    4        5.533270   1.000000
    5        8.312119   0.000000
    6        8.973936   0.000000
    7        9.084974   0.000000
    8        9.919837   0.000000
 
 -0.5263158E-01  0.5263158E-01  0.0000000E+00  0.1749526E-02
    1       -5.496628   1.000000
    2        4.874987   1.000000
    3        5.359926   1.000000
    4        5.605787   1.000000
    5        8.305826   0.000000
    6        8.852532   0.000000
    7        8.870369   0.000000
    8        9.294980   0.000000
 
  0.1052632E+00  0.1052632E+00  0.0000000E+00  0.8747631E-03
    1       -5.421049   1.000000
    2        4.598994   1.000000
    3        5.167347   1.000000
    4        5.167347   1.000000
    5        8.281922   0.000000
    6        9.002001   0.000000
    7        9.458277   0.000000
    8        9.458277   0.000000
 
  0.1578947E+00  0.1052632E+00  0.0000000E+00  0.3499052E-02
    1       -5.318492   1.000000
    2        4.005715   1.000000
    3        4.972278   1.000000
    4        5.040425   1.000000
    5        8.201373   0.000000
    6        9.073653   0.000000
    7        9.759661   0.000000
    8        9.972428   0.000000
 
  0.2105263E+00  0.1052632E+00  0.0000000E+00  0.3499052E-02
    1       -5.163491   1.000000
    2        3.241351   1.000000
    3        4.787479   1.000000
    4        4.897391   1.000000
    5        8.224113   0.000000
    6        9.049984   0.000000
    7       10.027241   0.000000
    8       10.405713   0.000000
 
  0.2631579E+00  0.1052632E+00  0.0000000E+00  0.3499052E-02
    1       -4.961336   1.000000
    2        2.455431   1.000000
    3        4.629001   1.000000
    4        4.706505   1.000000
    5        8.208385   0.000000
    6        9.123146   0.000000
    7       10.189191   0.000000
    8       10.585217   0.000000
 
  0.3157895E+00  0.1052632E+00  0.0000000E+00  0.3499052E-02
    1       -4.721278   1.000000
    2        1.704390   1.000000
    3        4.498399   1.000000
    4        4.506614   1.000000
    5        8.121438   0.000000
    6        9.219879   0.000000
    7       10.213125   0.000000
    8       10.820984   0.000000
 
  0.3684211E+00  0.1052632E+00  0.0000000E+00  0.3499052E-02
    1       -4.459423   1.000000
    2        1.026544   1.000000
    3        4.298309   1.000000
    4        4.425914   1.000000
    5        8.016895   0.000000
    6        9.243163   0.000000
    7       10.131982   0.000000
    8       11.266089   0.000000
 
  0.4210526E+00  0.1052632E+00  0.0000000E+00  0.3499052E-02
    1       -4.203698   1.000000
    2        0.461847   1.000000
    3        4.122049   1.000000
    4        4.389669   1.000000
    5        7.930203   0.000000
    6        9.223154   0.000000
    7       10.004079   0.000000
    8       11.854201   0.000000
 
  0.4736842E+00  0.1052632E+00  0.0000000E+00  0.3499052E-02
    1       -3.999290   1.000000
    2        0.062255   1.000000
    3        3.979464   1.000000
    4        4.398558   1.000000
    5        7.876325   0.000000
    6        9.211102   0.000000
    7        9.873691   0.000000
    8       12.416400   0.000000
 
 -0.4736842E+00  0.1052632E+00  0.0000000E+00  0.3499052E-02
    1       -3.903870   1.000000
    2       -0.111012   1.000000
    3        3.877089   1.000000
    4        4.451521   1.000000
    5        7.860771   0.000000
    6        9.233618   0.000000
    7        9.765249   0.000000
    8       12.713464   0.000000
 
 -0.4210526E+00  0.1052632E+00  0.0000000E+00  0.3499052E-02
    1       -3.953910   1.000000
    2       -0.020274   1.000000
    3        3.819584   1.000000
    4        4.545861   1.000000
    5        7.884603   0.000000
    6        9.300082   0.000000
    7        9.688135   0.000000
    8       12.780251   0.000000
 
 -0.3684211E+00  0.1052632E+00  0.0000000E+00  0.3499052E-02
    1       -4.129336   1.000000
    2        0.313403   1.000000
    3        3.810523   1.000000
    4        4.677032   1.000000
    5        7.946668   0.000000
    6        9.407930   0.000000
    7        9.639089   0.000000
    8       12.655108   0.000000
 
 -0.3157895E+00  0.1052632E+00  0.0000000E+00  0.3499052E-02
    1       -4.374229   1.000000
    2        0.830551   1.000000
    3        3.852953   1.000000
    4        4.838135   1.000000
    5        8.044428   0.000000
    6        9.539683   0.000000
    7        9.600427   0.000000
    8       12.218372   0.000000
 
 -0.2631579E+00  0.1052632E+00  0.0000000E+00  0.3499052E-02
    1       -4.637802   1.000000
    2        1.472827   1.000000
    3        3.950204   1.000000
    4        5.018948   1.000000
    5        8.173464   0.000000
    6        9.537779   0.000000
    7        9.648507   0.000000
    8       11.642128   0.000000
 
 -0.2105263E+00  0.1052632E+00  0.0000000E+00  0.3499052E-02
    1       -4.887030   1.000000
    2        2.192031   1.000000
    3        4.107796   1.000000
    4        5.204267   1.000000
    5        8.324455   0.000000
    6        9.414033   0.000000
    7        9.633134   0.000000
    8       11.156953   0.000000
 
 -0.1578947E+00  0.1052632E+00  0.0000000E+00  0.3499052E-02
    1       -5.102700   1.000000
    2        2.936482   1.000000
    3        4.338883   1.000000
    4        5.371836   1.000000
    5        8.471191   0.000000
    6        9.233595   0.000000
    7        9.405160   0.000000
    8       10.827654   0.000000
 
 -0.1052632E+00  0.1052632E+00  0.0000000E+00  0.1749526E-02
    1       -5.273694   1.000000
    2        3.624598   1.000000
    3        4.674328   1.000000
    4        5.491841   1.000000
    5        8.513017   0.000000
    6        9.060825   0.000000
    7        9.129866   0.000000
    8       10.455903   0.000000
 
  0.1578947E+00  0.1578947E+00  0.0000000E+00  0.8747631E-03
    1       -5.234512   1.000000
    2        3.799425   1.000000
    3        4.762493   1.000000
    4        4.762494   1.000000
    5        7.918361   0.000000
    6        9.427467   0.000000
    7       10.113654   0.000000
    8       10.113654   0.000000
 
  0.2105263E+00  0.1578947E+00  0.0000000E+00  0.3499052E-02
    1       -5.097650   1.000000
    2        3.257710   1.000000
    3        4.566703   1.000000
    4        4.582189   1.000000
    5        7.837409   0.000000
    6        9.364692   0.000000
    7       10.392578   0.000000
    8       10.445044   0.000000
 
  0.2631579E+00  0.1578947E+00  0.0000000E+00  0.3499052E-02
    1       -4.912311   1.000000
    2        2.583620   1.000000
    3        4.375669   1.000000
    4        4.400709   1.000000
    5        7.908879   0.000000
    6        9.315278   0.000000
    7       10.370460   0.000000
    8       10.677143   0.000000
 
  0.3157895E+00  0.1578947E+00  0.0000000E+00  0.3499052E-02
    1       -4.686372   1.000000
    2        1.890381   1.000000
    3        4.132237   1.000000
    4        4.274190   1.000000
    5        7.980767   0.000000
    6        9.443041   0.000000
    7       10.276030   0.000000
    8       10.755637   0.000000
 
  0.3684211E+00  0.1578947E+00  0.0000000E+00  0.3499052E-02
    1       -4.433343   1.000000
    2        1.235618   1.000000
    3        3.883630   1.000000
    4        4.192817   1.000000
    5        7.979389   0.000000
    6        9.648771   0.000000
    7       10.361003   0.000000
    8       10.696529   0.000000
 
  0.4210526E+00  0.1578947E+00  0.0000000E+00  0.3499052E-02
    1       -4.176664   1.000000
    2        0.665225   1.000000
    3        3.654691   1.000000
    4        4.159446   1.000000
    5        7.947953   0.000000
    6        9.675420   0.000000
    7       10.562011   0.000000
    8       10.839613   0.000000
 
  0.4736842E+00  0.1578947E+00  0.0000000E+00  0.3499052E-02
    1       -3.954986   1.000000
    2        0.230469   1.000000
    3        3.460584   1.000000
    4        4.174867   1.000000
    5        7.933320   0.000000
    6        9.625855   0.000000
    7       10.406562   0.000000
    8       11.544550   0.000000
 
 -0.4736842E+00  0.1578947E+00  0.0000000E+00  0.3499052E-02
    1       -3.822410   1.000000
    2       -0.007833   1.000000
    3        3.310900   1.000000
    4        4.238074   1.000000
    5        7.956310   0.000000
    6        9.591006   0.000000
    7       10.261745   0.000000
    8       12.326564   0.000000
 
 -0.4210526E+00  0.1578947E+00  0.0000000E+00  0.3499052E-02
    1       -3.825223   1.000000
    2       -0.000729   1.000000
    3        3.212555   1.000000
    4        4.346209   1.000000
    5        8.022359   0.000000
    6        9.594314   0.000000
    7       10.140973   0.000000
    8       13.008954   0.000000
 
 -0.3684211E+00  0.1578947E+00  0.0000000E+00  0.3499052E-02
    1       -3.962144   1.000000
    2        0.249332   1.000000
    3        3.171706   1.000000
    4        4.494263   1.000000
    5        8.128743   0.000000
    6        9.642118   0.000000
    7       10.043260   0.000000
    8       12.820584   0.000000
 
 -0.3157895E+00  0.1578947E+00  0.0000000E+00  0.3499052E-02
    1       -4.185734   1.000000
    2        0.688850   1.000000
    3        3.195654   1.000000
    4        4.674322   1.000000
    5        8.267264   0.000000
    6        9.729167   0.000000
    7        9.951801   0.000000
    8       12.132288   0.000000
 
 -0.2631579E+00  0.1578947E+00  0.0000000E+00  0.3499052E-02
    1       -4.442454   1.000000
    2        1.249982   1.000000
    3        3.296108   1.000000
    4        4.874340   1.000000
    5        8.423962   0.000000
    6        9.822725   0.000000
    7        9.831752   0.000000
    8       11.448394   0.000000
 
 -0.2105263E+00  0.1578947E+00  0.0000000E+00  0.3499052E-02
    1       -4.694499   1.000000
    2        1.864070   1.000000
    3        3.495917   1.000000
    4        5.076134   1.000000
    5        8.572316   0.000000
    6        9.649110   0.000000
    7        9.807481   0.000000
    8       10.964544   0.000000
 
 -0.1578947E+00  0.1578947E+00  0.0000000E+00  0.1749526E-02
    1       -4.918993   1.000000
    2        2.450693   1.000000
    3        3.835623   1.000000
    4        5.253308   1.000000
    5        8.639873   0.000000
    6        9.423327   0.000000
    7        9.571798   0.000000
    8       10.838088   0.000000
 
  0.2105263E+00  0.2105263E+00  0.0000000E+00  0.8747631E-03
    1       -4.979066   1.000000
    2        2.985755   1.000000
    3        4.360121   1.000000
    4        4.360121   1.000000
    5        7.549820   0.000000
    6        9.201268   0.000000
    7       10.858767   0.000000
    8       10.858769   0.000000
 
  0.2631579E+00  0.2105263E+00  0.0000000E+00  0.3499052E-02
    1       -4.811513   1.000000
    2        2.499098   1.000000
    3        4.150049   1.000000
    4        4.184244   1.000000
    5        7.490978   0.000000
    6        8.989113   0.000000
    7       11.020731   0.000000
    8       11.189614   0.000000
 
  0.3157895E+00  0.2105263E+00  0.0000000E+00  0.3499052E-02
    1       -4.601757   1.000000
    2        1.927847   1.000000
    3        3.879289   1.000000
    4        4.049258   1.000000
    5        7.586319   0.000000
    6        8.943791   0.000000
    7       10.925970   0.000000
    8       11.358947   0.000000
 
  0.3684211E+00  0.2105263E+00  0.0000000E+00  0.3499052E-02
    1       -4.361382   1.000000
    2        1.349736   1.000000
    3        3.574846   1.000000
    4        3.961216   1.000000
    5        7.668994   0.000000
    6        9.185883   0.000000
    7       10.776248   0.000000
    8       11.352850   0.000000
 
  0.4210526E+00  0.2105263E+00  0.0000000E+00  0.3499052E-02
    1       -4.110301   1.000000
    2        0.818463   1.000000
    3        3.279374   1.000000
    4        3.923341   1.000000
    5        7.687919   0.000000
    6        9.699974   0.000000
    7       10.639173   0.000000
    8       11.232756   0.000000
 
  0.4736842E+00  0.2105263E+00  0.0000000E+00  0.3499052E-02
    1       -3.881398   1.000000
    2        0.386748   1.000000
    3        3.020156   1.000000
    4        3.936739   1.000000
    5        7.699771   0.000000
    6       10.279711   0.000000
    7       10.643662   0.000000
    8       11.067097   0.000000
 
 -0.4736842E+00  0.2105263E+00  0.0000000E+00  0.3499052E-02
    1       -3.723034   1.000000
    2        0.114337   1.000000
    3        2.812698   1.000000
    4        4.000697   1.000000
    5        7.744977   0.000000
    6       10.339983   0.000000
    7       10.897529   0.000000
    8       11.314407   0.000000
 
 -0.4210526E+00  0.2105263E+00  0.0000000E+00  0.3499052E-02
    1       -3.684475   1.000000
    2        0.055507   1.000000
    3        2.667424   1.000000
    4        4.112598   1.000000
    5        7.837654   0.000000
    6       10.298925   0.000000
    7       10.741943   0.000000
    8       12.195926   0.000000
 
 -0.3684211E+00  0.2105263E+00  0.0000000E+00  0.3499052E-02
    1       -3.780055   1.000000
    2        0.222575   1.000000
    3        2.594557   1.000000
    4        4.267565   1.000000
    5        7.978581   0.000000
    6       10.288077   0.000000
    7       10.599456   0.000000
    8       12.879368   0.000000
 
 -0.3157895E+00  0.2105263E+00  0.0000000E+00  0.3499052E-02
    1       -3.975056   1.000000
    2        0.569305   1.000000
    3        2.609042   1.000000
    4        4.457572   1.000000
    5        8.159569   0.000000
    6       10.313630   0.000000
    7       10.448045   0.000000
    8       12.071831   0.000000
 
 -0.2631579E+00  0.2105263E+00  0.0000000E+00  0.3499052E-02
    1       -4.217529   1.000000
    2        1.015686   1.000000
    3        2.737764   1.000000
    4        4.670087   1.000000
    5        8.360873   0.000000
    6       10.243306   0.000000
    7       10.347594   0.000000
    8       11.320891   0.000000
 
 -0.2105263E+00  0.2105263E+00  0.0000000E+00  0.1749526E-02
    1       -4.466095   1.000000
    2        1.470804   1.000000
    3        3.023755   1.000000
    4        4.885771   1.000000
    5        8.536923   0.000000
    6        9.958544   0.000000
    7       10.195179   0.000000
    8       10.901057   0.000000
 
  0.2631579E+00  0.2631579E+00  0.0000000E+00  0.8747631E-03
    1       -4.662164   1.000000
    2        2.188353   1.000000
    3        3.997515   1.000000
    4        3.997515   1.000000
    5        7.226638   0.000000
    6        8.632623   0.000000
    7       11.651492   0.000000
    8       11.651494   0.000000
 
  0.3157895E+00  0.2631579E+00  0.0000000E+00  0.3499052E-02
    1       -4.470201   1.000000
    2        1.754364   1.000000
    3        3.777844   1.000000
    4        3.851657   1.000000
    5        7.199107   0.000000
    6        8.417644   0.000000
    7       11.811804   0.000000
    8       11.962654   0.000000
 
  0.3684211E+00  0.2631579E+00  0.0000000E+00  0.3499052E-02
    1       -4.245920   1.000000
    2        1.285466   1.000000
    3        3.458721   1.000000
    4        3.753357   1.000000
    5        7.309300   0.000000
    6        8.443770   0.000000
    7       11.722004   0.000000
    8       12.057716   0.000000
 
  0.4210526E+00  0.2631579E+00  0.0000000E+00  0.3499052E-02
    1       -4.006634   1.000000
    2        0.836697   1.000000
    3        3.100067   1.000000
    4        3.706324   1.000000
    5        7.384502   0.000000
    6        8.802816   0.000000
    7       11.575898   0.000000
    8       11.981173   0.000000
 
  0.4736842E+00  0.2631579E+00  0.0000000E+00  0.3499052E-02
    1       -3.780750   1.000000
    2        0.455540   1.000000
    3        2.760743   1.000000
    4        3.712095   1.000000
    5        7.418807   0.000000
    6        9.428008   0.000000
    7       11.431485   0.000000
    8       11.821408   0.000000
 
 -0.4736842E+00  0.2631579E+00  0.0000000E+00  0.3499052E-02
    1       -3.610368   1.000000
    2        0.194701   1.000000
    3        2.476344   1.000000
    4        3.770339   1.000000
    5        7.472777   0.000000
    6       10.207660   0.000000
    7       11.314746   0.000000
    8       11.636833   0.000000
 
 -0.4210526E+00  0.2631579E+00  0.0000000E+00  0.3499052E-02
    1       -3.542330   1.000000
    2        0.104712   1.000000
    3        2.268663   1.000000
    4        3.878848   1.000000
    5        7.573121   0.000000
    6       10.999262   0.000000
    7       11.320015   0.000000
    8       11.451208   0.000000
 
 -0.3684211E+00  0.2631579E+00  0.0000000E+00  0.3499052E-02
    1       -3.599589   1.000000
    2        0.202374   1.000000
    3        2.157450   1.000000
    4        4.033155   1.000000
    5        7.725397   0.000000
    6       11.111263   0.000000
    7       11.259371   0.000000
    8       12.106128   0.000000
 
 -0.3157895E+00  0.2631579E+00  0.0000000E+00  0.3499052E-02
    1       -3.760966   1.000000
    2        0.444155   1.000000
    3        2.171411   1.000000
    4        4.225701   1.000000
    5        7.924143   0.000000
    6       11.021010   0.000000
    7       11.093881   0.000000
    8       12.057356   0.000000
 
 -0.2631579E+00  0.2631579E+00  0.0000000E+00  0.1749526E-02
    1       -3.980823   1.000000
    2        0.741802   1.000000
    3        2.353902   1.000000
    4        4.444347   1.000000
    5        8.151498   0.000000
    6       10.675796   0.000000
    7       10.964714   0.000000
    8       11.372116   0.000000
 
  0.3157895E+00  0.3157895E+00  0.0000000E+00  0.8747631E-03
    1       -4.297170   1.000000
    2        1.429588   1.000000
    3        3.693798   1.000000
    4        3.693798   1.000000
    5        6.970965   0.000000
    6        8.060362   0.000000
    7       12.469396   0.000000
    8       12.469397   0.000000
 
  0.3684211E+00  0.3157895E+00  0.0000000E+00  0.3499052E-02
    1       -4.092159   1.000000
    2        1.051362   1.000000
    3        3.480228   1.000000
    4        3.583237   1.000000
    5        6.978553   0.000000
    6        7.899920   0.000000
    7       12.644489   0.000000
    8       12.748367   0.000000
 
  0.4210526E+00  0.3157895E+00  0.0000000E+00  0.3499052E-02
    1       -3.870969   1.000000
    2        0.684974   1.000000
    3        3.136296   1.000000
    4        3.524290   1.000000
    5        7.094612   0.000000
    6        8.031688   0.000000
    7       12.566902   0.000000
    8       12.770044   0.000000
 
  0.4736842E+00  0.3157895E+00  0.0000000E+00  0.3499052E-02
    1       -3.658973   1.000000
    2        0.375544   1.000000
    3        2.746144   1.000000
    4        3.518977   1.000000
    5        7.163285   0.000000
    6        8.514321   0.000000
    7       12.426776   0.000000
    8       12.640317   0.000000
 
 -0.4736842E+00  0.3157895E+00  0.0000000E+00  0.3499052E-02
    1       -3.492763   1.000000
    2        0.164423   1.000000
    3        2.383924   1.000000
    4        3.567398   1.000000
    5        7.224163   0.000000
    6        9.230051   0.000000
    7       12.284339   0.000000
    8       12.450191   0.000000
 
 -0.4210526E+00  0.3157895E+00  0.0000000E+00  0.3499052E-02
    1       -3.413186   1.000000
    2        0.086726   1.000000
    3        2.099929   1.000000
    4        3.667814   1.000000
    5        7.325174   0.000000
    6       10.081253   0.000000
    7       12.161775   0.000000
    8       12.232364   0.000000
 
 -0.3684211E+00  0.3157895E+00  0.0000000E+00  0.3499052E-02
    1       -3.443432   1.000000
    2        0.146227   1.000000
    3        1.936920   1.000000
    4        3.816305   1.000000
    5        7.479135   0.000000
    6       11.014040   0.000000
    7       11.964179   0.000000
    8       12.068707   0.000000
 
 -0.3157895E+00  0.3157895E+00  0.0000000E+00  0.1749526E-02
    1       -3.571370   1.000000
    2        0.291743   1.000000
    3        1.945223   1.000000
    4        4.006000   1.000000
    5        7.683673   0.000000
    6       11.565998   0.000000
    7       11.737433   0.000000
    8       12.184224   0.000000
 
  0.3684211E+00  0.3684211E+00  0.0000000E+00  0.8747631E-03
    1       -3.909431   1.000000
    2        0.740400   1.000000
    3        3.459454   1.000000
    4        3.459454   1.000000
    5        6.794657   0.000000
    6        7.582218   0.000000
    7       13.297608   0.000000
    8       13.297608   0.000000
 
  0.4210526E+00  0.3684211E+00  0.0000000E+00  0.3499052E-02
    1       -3.713201   1.000000
    2        0.433673   1.000000
    3        3.264254   1.000000
    4        3.387055   1.000000
    5        6.837134   0.000000
    6        7.495195   0.000000
    7       13.483932   0.000000
    8       13.534385   0.000000
 
  0.4736842E+00  0.3684211E+00  0.0000000E+00  0.3499052E-02
    1       -3.527380   1.000000
    2        0.184104   1.000000
    3        2.920120   1.000000
    4        3.368590   1.000000
    5        6.949449   0.000000
    6        7.748255   0.000000
    7       13.415876   0.000000
    8       13.487508   0.000000
 