 running on   48 total cores
 distrk:  each k-point on   12 cores,    4 groups
 distr:  one band on   12 cores,    1 groups
 using from now: INCAR     
 vasp.5.4.4.18Apr17-6-g9f103f2a35 (build Nov 04 2020 14:40:39) complex          
  
 POSCAR found type information on POSCAR  Al Sb
 POSCAR found :  2 types and       2 ions
 scaLAPACK will be used

 ----------------------------------------------------------------------------- 
|                                                                             |
|           W    W    AA    RRRRR   N    N  II  N    N   GGGG   !!!           |
|           W    W   A  A   R    R  NN   N  II  NN   N  G    G  !!!           |
|           W    W  A    A  R    R  N N  N  II  N N  N  G       !!!           |
|           W WW W  AAAAAA  RRRRR   N  N N  II  N  N N  G  GGG   !            |
|           WW  WW  A    A  R   R   N   NN  II  N   NN  G    G                |
|           W    W  A    A  R    R  N    N  II  N    N   GGGG   !!!           |
|                                                                             |
|      You have enabled k-point parallelism (KPAR>1).                         |
|      This developmental code was originally  written by Paul Kent at ORNL,  |
|      and carefully double checked in Vienna.                                |
|      GW as well as linear response parallelism added by Martijn Marsman     |
|      and Georg Kresse.                                                      |
|      Carefully verify results versus KPAR=1.                                |
|      Report problems to Paul Kent and Vienna.                               |
|                                                                             |
 ----------------------------------------------------------------------------- 

 LDA part: xc-table for Pade appr. of Perdew
 POSCAR found type information on POSCAR  Al Sb
 POSCAR found :  2 types and       2 ions
 generate k-points for:   19   19   19
 POSCAR, INCAR and KPOINTS ok, starting setup
 FFT: planning ...
 WAVECAR not read
 entering main loop
       N       E                     dE             d eps       ncg     rms          rms(c)
DAV:   1     0.146636708359E+02    0.14664E+02   -0.29325E+03  3520   0.748E+02
DAV:   2    -0.767922872356E+01   -0.22343E+02   -0.21908E+02  4848   0.862E+01
DAV:   3    -0.812673540368E+01   -0.44751E+00   -0.44743E+00  4624   0.139E+01
DAV:   4    -0.812931840233E+01   -0.25830E-02   -0.25830E-02  5456   0.130E+00
DAV:   5    -0.812932749340E+01   -0.90911E-05   -0.90911E-05  4688   0.595E-02    0.223E+00
RMM:   6    -0.805171700373E+01    0.77610E-01   -0.55368E-02  3521   0.138E+00    0.133E+00
RMM:   7    -0.802474317098E+01    0.26974E-01   -0.83324E-02  3584   0.178E+00    0.187E-01
RMM:   8    -0.802551698307E+01   -0.77381E-03   -0.30700E-03  3750   0.409E-01    0.536E-02
RMM:   9    -0.802581550040E+01   -0.29852E-03   -0.54661E-04  3767   0.164E-01    0.154E-02
RMM:  10    -0.802581345738E+01    0.20430E-05   -0.48309E-05  4180   0.503E-02    0.511E-03
RMM:  11    -0.802581522670E+01   -0.17693E-05   -0.86056E-06  3996   0.228E-02    0.222E-03
RMM:  12    -0.802581579672E+01   -0.57002E-06   -0.50646E-07  2930   0.633E-03
   1 F= -.80258158E+01 E0= -.80258158E+01  d E =0.000000E+00
