   3   3   0   0
  0.2268782E+02  0.4582928E-09  0.4582928E-09  0.4582928E-09  0.5000000E-15
  1.000000000000000E-004
  CAR
 unknown system
     12.50046597    -25.88763105  301      8.23499850      1.00000000
    -25.888  0.0000E+00  0.0000E+00
    -25.760  0.0000E+00  0.0000E+00
    -25.632  0.0000E+00  0.0000E+00
    -25.504  0.0000E+00  0.0000E+00
    -25.376  0.0000E+00  0.0000E+00
    -25.248  0.0000E+00  0.0000E+00
    -25.120  0.0000E+00  0.0000E+00
    -24.992  0.0000E+00  0.0000E+00
    -24.864  0.0000E+00  0.0000E+00
    -24.736  0.0000E+00  0.0000E+00
    -24.608  0.0000E+00  0.0000E+00
    -24.480  0.0000E+00  0.0000E+00
    -24.352  0.0000E+00  0.0000E+00
    -24.224  0.0000E+00  0.0000E+00
    -24.096  0.4689E+02  0.6000E+01
    -23.968  0.0000E+00  0.6000E+01
    -23.840  0.0000E+00  0.6000E+01
    -23.712  0.0000E+00  0.6000E+01
    -23.584  0.0000E+00  0.6000E+01
    -23.456  0.0000E+00  0.6000E+01
    -23.328  0.0000E+00  0.6000E+01
    -23.200  0.0000E+00  0.6000E+01
    -23.073  0.0000E+00  0.6000E+01
    -22.945  0.0000E+00  0.6000E+01
    -22.817  0.0000E+00  0.6000E+01
    -22.689  0.0000E+00  0.6000E+01
    -22.561  0.0000E+00  0.6000E+01
    -22.433  0.0000E+00  0.6000E+01
    -22.305  0.0000E+00  0.6000E+01
    -22.177  0.0000E+00  0.6000E+01
    -22.049  0.0000E+00  0.6000E+01
    -21.921  0.0000E+00  0.6000E+01
    -21.793  0.0000E+00  0.6000E+01
    -21.665  0.0000E+00  0.6000E+01
    -21.537  0.0000E+00  0.6000E+01
    -21.409  0.0000E+00  0.6000E+01
    -21.281  0.0000E+00  0.6000E+01
    -21.153  0.0000E+00  0.6000E+01
    -21.025  0.0000E+00  0.6000E+01
    -20.897  0.0000E+00  0.6000E+01
    -20.769  0.0000E+00  0.6000E+01
    -20.641  0.0000E+00  0.6000E+01
    -20.513  0.0000E+00  0.6000E+01
    -20.385  0.0000E+00  0.6000E+01
    -20.257  0.0000E+00  0.6000E+01
    -20.129  0.0000E+00  0.6000E+01
    -20.001  0.0000E+00  0.6000E+01
    -19.873  0.0000E+00  0.6000E+01
    -19.746  0.0000E+00  0.6000E+01
    -19.618  0.0000E+00  0.6000E+01
    -19.490  0.0000E+00  0.6000E+01
    -19.362  0.0000E+00  0.6000E+01
    -19.234  0.0000E+00  0.6000E+01
    -19.106  0.0000E+00  0.6000E+01
    -18.978  0.0000E+00  0.6000E+01
    -18.850  0.0000E+00  0.6000E+01
    -18.722  0.0000E+00  0.6000E+01
    -18.594  0.0000E+00  0.6000E+01
    -18.466  0.0000E+00  0.6000E+01
    -18.338  0.0000E+00  0.6000E+01
    -18.210  0.0000E+00  0.6000E+01
    -18.082  0.0000E+00  0.6000E+01
    -17.954  0.0000E+00  0.6000E+01
    -17.826  0.0000E+00  0.6000E+01
    -17.698  0.0000E+00  0.6000E+01
    -17.570  0.0000E+00  0.6000E+01
    -17.442  0.0000E+00  0.6000E+01
    -17.314  0.0000E+00  0.6000E+01
    -17.186  0.0000E+00  0.6000E+01
    -17.058  0.0000E+00  0.6000E+01
    -16.930  0.0000E+00  0.6000E+01
    -16.802  0.0000E+00  0.6000E+01
    -16.674  0.0000E+00  0.6000E+01
    -16.547  0.0000E+00  0.6000E+01
    -16.419  0.0000E+00  0.6000E+01
    -16.291  0.0000E+00  0.6000E+01
    -16.163  0.0000E+00  0.6000E+01
    -16.035  0.0000E+00  0.6000E+01
    -15.907  0.0000E+00  0.6000E+01
    -15.779  0.0000E+00  0.6000E+01
    -15.651  0.0000E+00  0.6000E+01
    -15.523  0.0000E+00  0.6000E+01
    -15.395  0.0000E+00  0.6000E+01
    -15.267  0.0000E+00  0.6000E+01
    -15.139  0.0000E+00  0.6000E+01
    -15.011  0.0000E+00  0.6000E+01
    -14.883  0.0000E+00  0.6000E+01
    -14.755  0.0000E+00  0.6000E+01
    -14.627  0.0000E+00  0.6000E+01
    -14.499  0.0000E+00  0.6000E+01
    -14.371  0.0000E+00  0.6000E+01
    -14.243  0.0000E+00  0.6000E+01
    -14.115  0.0000E+00  0.6000E+01
    -13.987  0.0000E+00  0.6000E+01
    -13.859  0.0000E+00  0.6000E+01
    -13.731  0.0000E+00  0.6000E+01
    -13.603  0.0000E+00  0.6000E+01
    -13.475  0.0000E+00  0.6000E+01
    -13.348  0.0000E+00  0.6000E+01
    -13.220  0.0000E+00  0.6000E+01
    -13.092  0.0000E+00  0.6000E+01
    -12.964  0.0000E+00  0.6000E+01
    -12.836  0.0000E+00  0.6000E+01
    -12.708  0.0000E+00  0.6000E+01
    -12.580  0.0000E+00  0.6000E+01
    -12.452  0.0000E+00  0.6000E+01
    -12.324  0.0000E+00  0.6000E+01
    -12.196  0.0000E+00  0.6000E+01
    -12.068  0.0000E+00  0.6000E+01
    -11.940  0.0000E+00  0.6000E+01
    -11.812  0.0000E+00  0.6000E+01
    -11.684  0.0000E+00  0.6000E+01
    -11.556  0.0000E+00  0.6000E+01
    -11.428  0.0000E+00  0.6000E+01
    -11.300  0.0000E+00  0.6000E+01
    -11.172  0.0000E+00  0.6000E+01
    -11.044  0.0000E+00  0.6000E+01
    -10.916  0.0000E+00  0.6000E+01
    -10.788  0.0000E+00  0.6000E+01
    -10.660  0.0000E+00  0.6000E+01
    -10.532  0.0000E+00  0.6000E+01
    -10.404  0.0000E+00  0.6000E+01
    -10.276  0.0000E+00  0.6000E+01
    -10.149  0.0000E+00  0.6000E+01
    -10.021  0.0000E+00  0.6000E+01
     -9.893  0.0000E+00  0.6000E+01
     -9.765  0.0000E+00  0.6000E+01
     -9.637  0.0000E+00  0.6000E+01
     -9.509  0.0000E+00  0.6000E+01
     -9.381  0.0000E+00  0.6000E+01
     -9.253  0.0000E+00  0.6000E+01
     -9.125  0.0000E+00  0.6000E+01
     -8.997  0.0000E+00  0.6000E+01
     -8.869  0.0000E+00  0.6000E+01
     -8.741  0.0000E+00  0.6000E+01
     -8.613  0.0000E+00  0.6000E+01
     -8.485  0.0000E+00  0.6000E+01
     -8.357  0.0000E+00  0.6000E+01
     -8.229  0.0000E+00  0.6000E+01
     -8.101  0.0000E+00  0.6000E+01
     -7.973  0.0000E+00  0.6000E+01
     -7.845  0.0000E+00  0.6000E+01
     -7.717  0.0000E+00  0.6000E+01
     -7.589  0.0000E+00  0.6000E+01
     -7.461  0.0000E+00  0.6000E+01
     -7.333  0.0000E+00  0.6000E+01
     -7.205  0.0000E+00  0.6000E+01
     -7.077  0.0000E+00  0.6000E+01
     -6.950  0.0000E+00  0.6000E+01
     -6.822  0.0000E+00  0.6000E+01
     -6.694  0.0000E+00  0.6000E+01
     -6.566  0.0000E+00  0.6000E+01
     -6.438  0.0000E+00  0.6000E+01
     -6.310  0.0000E+00  0.6000E+01
     -6.182  0.0000E+00  0.6000E+01
     -6.054  0.0000E+00  0.6000E+01
     -5.926  0.0000E+00  0.6000E+01
     -5.798  0.0000E+00  0.6000E+01
     -5.670  0.0000E+00  0.6000E+01
     -5.542  0.0000E+00  0.6000E+01
     -5.414  0.0000E+00  0.6000E+01
     -5.286  0.0000E+00  0.6000E+01
     -5.158  0.0000E+00  0.6000E+01
     -5.030  0.0000E+00  0.6000E+01
     -4.902  0.0000E+00  0.6000E+01
     -4.774  0.0000E+00  0.6000E+01
     -4.646  0.0000E+00  0.6000E+01
     -4.518  0.0000E+00  0.6000E+01
     -4.390  0.0000E+00  0.6000E+01
     -4.262  0.0000E+00  0.6000E+01
     -4.134  0.4439E-02  0.6001E+01
     -4.006  0.9961E-01  0.6014E+01
     -3.878  0.2276E+00  0.6054E+01
     -3.750  0.3304E+00  0.6101E+01
     -3.623  0.3977E+00  0.6154E+01
     -3.495  0.5570E+00  0.6225E+01
     -3.367  0.5102E+00  0.6301E+01
     -3.239  0.5132E+00  0.6374E+01
     -3.111  0.5708E+00  0.6491E+01
     -2.983  0.8594E+00  0.6664E+01
     -2.855  0.6169E+00  0.6870E+01
     -2.727  0.2711E+01  0.7347E+01
     -2.599  0.2646E+01  0.8000E+01
     -2.471  0.0000E+00  0.8000E+01
     -2.343  0.0000E+00  0.8000E+01
     -2.215  0.0000E+00  0.8000E+01
     -2.087  0.0000E+00  0.8000E+01
     -1.959  0.0000E+00  0.8000E+01
     -1.831  0.0000E+00  0.8000E+01
     -1.703  0.0000E+00  0.8000E+01
     -1.575  0.0000E+00  0.8000E+01
     -1.447  0.0000E+00  0.8000E+01
     -1.319  0.0000E+00  0.8000E+01
     -1.191  0.0000E+00  0.8000E+01
     -1.063  0.0000E+00  0.8000E+01
     -0.935  0.0000E+00  0.8000E+01
     -0.807  0.0000E+00  0.8000E+01
     -0.679  0.0000E+00  0.8000E+01
     -0.551  0.0000E+00  0.8000E+01
     -0.424  0.0000E+00  0.8000E+01
     -0.296  0.0000E+00  0.8000E+01
     -0.168  0.0000E+00  0.8000E+01
     -0.040  0.0000E+00  0.8000E+01
      0.088  0.0000E+00  0.8000E+01
      0.216  0.0000E+00  0.8000E+01
      0.344  0.0000E+00  0.8000E+01
      0.472  0.0000E+00  0.8000E+01
      0.600  0.0000E+00  0.8000E+01
      0.728  0.0000E+00  0.8000E+01
      0.856  0.9011E-07  0.8000E+01
      0.984  0.1687E+00  0.8051E+01
      1.112  0.5147E+00  0.8182E+01
      1.240  0.3178E+01  0.8760E+01
      1.368  0.2227E+01  0.9294E+01
      1.496  0.1964E+01  0.9648E+01
      1.624  0.6079E+00  0.9804E+01
      1.752  0.2561E+00  0.9868E+01
      1.880  0.4333E+00  0.9923E+01
      2.008  0.1683E+00  0.9946E+01
      2.136  0.1760E+00  0.9969E+01
      2.264  0.1972E+01  0.1029E+02
      2.392  0.6308E+01  0.1129E+02
      2.520  0.2815E+01  0.1197E+02
      2.648  0.3943E+01  0.1282E+02
      2.775  0.2704E+01  0.1333E+02
      2.903  0.2216E+01  0.1373E+02
      3.031  0.9900E+00  0.1401E+02
      3.159  0.9159E+00  0.1422E+02
      3.287  0.2326E+01  0.1466E+02
      3.415  0.3709E+01  0.1531E+02
      3.543  0.5544E+01  0.1639E+02
      3.671  0.7075E+01  0.1769E+02
      3.799  0.3256E+01  0.1845E+02
      3.927  0.3580E+01  0.1918E+02
      4.055  0.1380E+01  0.1953E+02
      4.183  0.6271E+00  0.1965E+02
      4.311  0.3860E+00  0.1979E+02
      4.439  0.8111E+00  0.1998E+02
      4.567  0.7305E+00  0.2010E+02
      4.695  0.1022E+01  0.2040E+02
      4.823  0.8538E+00  0.2055E+02
      4.951  0.8575E+00  0.2068E+02
      5.079  0.1121E+01  0.2097E+02
      5.207  0.8555E+00  0.2112E+02
      5.335  0.1520E+01  0.2140E+02
      5.463  0.1010E+01  0.2167E+02
      5.591  0.3096E+01  0.2236E+02
      5.719  0.1366E+01  0.2272E+02
      5.847  0.1945E+01  0.2314E+02
      5.974  0.1816E+01  0.2345E+02
      6.102  0.8139E+00  0.2365E+02
      6.230  0.6829E+00  0.2380E+02
      6.358  0.7441E+00  0.2390E+02
      6.486  0.1342E+00  0.2394E+02
      6.614  0.4573E-04  0.2397E+02
      6.742  0.2134E-01  0.2400E+02
      6.870  0.7248E-13  0.2400E+02
      6.998  0.0000E+00  0.2400E+02
      7.126  0.0000E+00  0.2400E+02
      7.254  0.1867E-03  0.2400E+02
      7.382  0.2958E-01  0.2401E+02
      7.510  0.2076E-05  0.2401E+02
      7.638  0.9431E-01  0.2404E+02
      7.766  0.5255E+00  0.2415E+02
      7.894  0.9183E+00  0.2433E+02
      8.022  0.9758E+00  0.2453E+02
      8.150  0.1168E+01  0.2477E+02
      8.278  0.1909E+01  0.2513E+02
      8.406  0.1592E+01  0.2556E+02
      8.534  0.1541E+01  0.2608E+02
      8.662  0.1803E+01  0.2637E+02
      8.790  0.2696E+01  0.2681E+02
      8.918  0.1968E+01  0.2724E+02
      9.046  0.4622E+01  0.2823E+02
      9.173  0.3004E+01  0.2873E+02
      9.301  0.3668E+01  0.2939E+02
      9.429  0.1664E+01  0.2983E+02
      9.557  0.1415E+01  0.3009E+02
      9.685  0.1880E+01  0.3047E+02
      9.813  0.1712E+01  0.3080E+02
      9.941  0.2582E+01  0.3133E+02
     10.069  0.1199E+01  0.3162E+02
     10.197  0.7049E+00  0.3184E+02
     10.325  0.7531E+00  0.3196E+02
     10.453  0.1707E+00  0.3199E+02
     10.581  0.0000E+00  0.3199E+02
     10.709  0.1334E-11  0.3199E+02
     10.837  0.0000E+00  0.3200E+02
     10.965  0.0000E+00  0.3200E+02
     11.093  0.0000E+00  0.3200E+02
     11.221  0.0000E+00  0.3200E+02
     11.349  0.0000E+00  0.3200E+02
     11.477  0.0000E+00  0.3200E+02
     11.605  0.0000E+00  0.3200E+02
     11.733  0.0000E+00  0.3200E+02
     11.861  0.0000E+00  0.3200E+02
     11.989  0.0000E+00  0.3200E+02
     12.117  0.0000E+00  0.3200E+02
     12.245  0.0000E+00  0.3200E+02
     12.373  0.0000E+00  0.3200E+02
     12.500  0.0000E+00  0.3200E+02
