    3    3    1    1
  0.2268782E+02  0.4582928E-09  0.4582928E-09  0.4582928E-09  0.5000000E-15
  1.000000000000000E-004
  CAR
 unknown system
     25     84     16

  0.0000000E+00  0.0000000E+00  0.0000000E+00  0.4551661E-03
    1      -24.128978   1.000000
    2      -24.128978   1.000000
    3      -24.128978   1.000000
    4       -4.136610   1.000000
    5        2.508250   1.000000
    6        2.508250   1.000000
    7        2.508250   1.000000
    8        3.318288   1.000000
    9        3.318288   1.000000
   10        6.710860   1.000000
   11        6.710860   1.000000
   12        6.710860   1.000000
   13        6.917611   1.000000
   14        9.049168   0.000000
   15        9.049168   0.000000
   16        9.049168   0.000000

  0.7692308E-01 -0.6623360E-18 -0.7024823E-18  0.3641329E-02
    1      -24.129763   1.000000
    2      -24.128972   1.000000
    3      -24.128972   1.000000
    4       -4.077085   1.000000
    5        2.426203   1.000000
    6        2.486436   1.000000
    7        2.486436   1.000000
    8        3.352001   1.000000
    9        3.352001   1.000000
   10        6.091039   1.000000
   11        6.644605   1.000000
   12        6.644605   1.000000
   13        7.273315   1.000000
   14        8.894631   0.000000
   15        8.894631   0.000000
   16        9.386172   0.000000

  0.1538462E+00 -0.1448329E-17 -0.1281307E-17  0.3641329E-02
    1      -24.131906   1.000000
    2      -24.128911   1.000000
    3      -24.128911   1.000000
    4       -3.904664   1.000000
    5        2.200025   1.000000
    6        2.439269   1.000000
    7        2.439269   1.000000
    8        3.428633   1.000000
    9        3.428633   1.000000
   10        5.287117   1.000000
   11        6.478423   1.000000
   12        6.478423   1.000000
   13        7.538060   1.000000
   14        8.806530   0.000000
   15        8.806530   0.000000
   16       10.151061   0.000000

  0.2307692E+00 -0.6414928E-17  0.2320473E-17  0.3641329E-02
    1      -24.134927   1.000000
    2      -24.128849   1.000000
    3      -24.128849   1.000000
    4       -3.639211   1.000000
    5        1.871861   1.000000
    6        2.396556   1.000000
    7        2.396556   1.000000
    8        3.502427   1.000000
    9        3.502427   1.000000
   10        4.557457   1.000000
   11        6.283188   1.000000
   12        6.283188   1.000000
   13        7.747727   1.000000
   14        8.844103   0.000000
   15        8.844103   0.000000
   16       10.755552   0.000000

  0.3076923E+00 -0.2896659E-17 -0.2562614E-17  0.3641329E-02
    1      -24.138089   1.000000
    2      -24.128770   1.000000
    3      -24.128770   1.000000
    4       -3.318870   1.000000
    5        1.489440   1.000000
    6        2.373970   1.000000
    7        2.373970   1.000000
    8        3.541603   1.000000
    9        3.541603   1.000000
   10        3.994934   1.000000
   11        6.120298   1.000000
   12        6.120298   1.000000
   13        7.936678   1.000000
   14        8.974122   0.000000
   15        8.974122   0.000000
   16       10.340608   0.000000

  0.3846154E+00 -0.7863257E-17  0.1039166E-17  0.3641329E-02
    1      -24.140695   1.000000
    2      -24.128707   1.000000
    3      -24.128707   1.000000
    4       -3.008958   1.000000
    5        1.124455   1.000000
    6        2.370723   1.000000
    7        2.370723   1.000000
    8        3.543463   1.000000
    9        3.543463   1.000000
   10        3.631559   1.000000
   11        6.017051   1.000000
   12        6.017051   1.000000
   13        8.121453   1.000000
   14        9.147546   0.000000
   15        9.147546   0.000000
   16        9.650812   0.000000

  0.4615385E+00 -0.1295351E-16  0.4764603E-17  0.3641329E-02
    1      -24.142171   1.000000
    2      -24.128679   1.000000
    3      -24.128679   1.000000
    4       -2.807322   1.000000
    5        0.889026   1.000000
    6        2.375082   1.000000
    7        2.375082   1.000000
    8        3.458352   1.000000
    9        3.531688   1.000000
   10        3.531688   1.000000
   11        5.970789   1.000000
   12        5.970789   1.000000
   13        8.288103   0.000000
   14        9.190677   0.000000
   15        9.282054   0.000000
   16        9.282054   0.000000

  0.7692308E-01  0.7692308E-01 -0.3861173E-17  0.2730997E-02
    1      -24.129742   1.000000
    2      -24.129097   1.000000
    3      -24.129097   1.000000
    4       -4.057576   1.000000
    5        2.301511   1.000000
    6        2.537131   1.000000
    7        2.537131   1.000000
    8        3.349040   1.000000
    9        3.363258   1.000000
   10        6.106387   1.000000
   11        6.520040   1.000000
   12        6.520040   1.000000
   13        7.378485   1.000000
   14        8.743930   0.000000
   15        9.317233   0.000000
   16        9.317328   0.000000

  0.1538462E+00  0.7692308E-01 -0.3308461E-17  0.1092399E-01
    1      -24.131341   1.000000
    2      -24.129179   1.000000
    3      -24.129042   1.000000
    4       -3.923857   1.000000
    5        2.093370   1.000000
    6        2.516604   1.000000
    7        2.543974   1.000000
    8        3.405923   1.000000
    9        3.410552   1.000000
   10        5.513551   1.000000
   11        6.332178   1.000000
   12        6.380923   1.000000
   13        7.641721   1.000000
   14        8.611168   0.000000
   15        9.050877   0.000000
   16        9.759421   0.000000

  0.2307692E+00  0.7692308E-01 -0.4010944E-17  0.1092399E-01
    1      -24.134015   1.000000
    2      -24.129191   1.000000
    3      -24.128964   1.000000
    4       -3.691158   1.000000
    5        1.839170   1.000000
    6        2.437389   1.000000
    7        2.523097   1.000000
    8        3.477141   1.000000
    9        3.482849   1.000000
   10        4.796518   1.000000
   11        6.147316   1.000000
   12        6.203998   1.000000
   13        7.920745   1.000000
   14        8.623570   0.000000
   15        8.952981   0.000000
   16       10.284216   0.000000

  0.3076923E+00  0.7692308E-01 -0.8894031E-17  0.1092399E-01
    1      -24.137062   1.000000
    2      -24.129133   1.000000
    3      -24.128953   1.000000
    4       -3.391187   1.000000
    5        1.538179   1.000000
    6        2.364961   1.000000
    7        2.495936   1.000000
    8        3.529414   1.000000
    9        3.534346   1.000000
   10        4.182209   1.000000
   11        6.009249   1.000000
   12        6.030937   1.000000
   13        8.063697   1.000000
   14        8.857682   0.000000
   15        8.976533   0.000000
   16       10.406114   0.000000

  0.3846154E+00  0.7692308E-01 -0.5292251E-17  0.1092399E-01
    1      -24.139784   1.000000
    2      -24.129025   1.000000
    3      -24.129023   1.000000
    4       -3.078916   1.000000
    5        1.221555   1.000000
    6        2.331753   1.000000
    7        2.468278   1.000000
    8        3.541367   1.000000
    9        3.547822   1.000000
   10        3.755216   1.000000
   11        5.900255   1.000000
   12        5.932138   1.000000
   13        8.160461   1.000000
   14        9.098591   0.000000
   15        9.154782   0.000000
   16        9.818492   0.000000

  0.4615385E+00  0.7692308E-01 -0.1566813E-17  0.1092399E-01
    1      -24.141566   1.000000
    2      -24.129137   1.000000
    3      -24.128875   1.000000
    4       -2.839311   1.000000
    5        0.972987   1.000000
    6        2.339155   1.000000
    7        2.433553   1.000000
    8        3.465975   1.000000
    9        3.545748   1.000000
   10        3.583122   1.000000
   11        5.820768   1.000000
   12        5.906308   1.000000
   13        8.291174   0.000000
   14        9.191186   0.000000
   15        9.249748   0.000000
   16        9.476787   0.000000

 -0.4615385E+00  0.7692308E-01 -0.1636528E-16  0.1092399E-01
    1      -24.142030   1.000000
    2      -24.129282   1.000000
    3      -24.128731   1.000000
    4       -2.769225   1.000000
    5        0.900381   1.000000
    6        2.375247   1.000000
    7        2.386979   1.000000
    8        3.414875   1.000000
    9        3.554397   1.000000
   10        3.563233   1.000000
   11        5.779386   1.000000
   12        5.921460   1.000000
   13        8.376533   0.000000
   14        9.017041   0.000000
   15        9.307812   0.000000
   16        9.535340   0.000000

 -0.3846154E+00  0.7692308E-01 -0.7370582E-17  0.1092399E-01
    1      -24.141077   1.000000
    2      -24.129419   1.000000
    3      -24.128623   1.000000
    4       -2.904281   1.000000
    5        1.045143   1.000000
    6        2.337590   1.000000
    7        2.426294   1.000000
    8        3.478574   1.000000
    9        3.573511   1.000000
   10        3.613634   1.000000
   11        5.761802   1.000000
   12        5.982844   1.000000
   13        8.279812   0.000000
   14        9.206617   0.000000
   15        9.220366   0.000000
   16        9.537450   0.000000

 -0.3076923E+00  0.7692308E-01 -0.3768802E-17  0.1092399E-01
    1      -24.138905   1.000000
    2      -24.129501   1.000000
    3      -24.128565   1.000000
    4       -3.179133   1.000000
    5        1.337544   1.000000
    6        2.304256   1.000000
    7        2.482283   1.000000
    8        3.512805   1.000000
    9        3.579400   1.000000
   10        3.880769   1.000000
   11        5.772585   1.000000
   12        6.104702   1.000000
   13        8.173473   1.000000
   14        9.011136   0.000000
   15        9.118267   0.000000
   16       10.033270   0.000000

 -0.2307692E+00  0.7692308E-01  0.5225898E-17  0.1092399E-01
    1      -24.136020   1.000000
    2      -24.129517   1.000000
    3      -24.128589   1.000000
    4       -3.495293   1.000000
    5        1.675355   1.000000
    6        2.303284   1.000000
    7        2.535800   1.000000
    8        3.493274   1.000000
    9        3.550733   1.000000
   10        4.371305   1.000000
   11        5.837501   1.000000
   12        6.287112   1.000000
   13        8.073551   1.000000
   14        8.810056   0.000000
   15        8.953987   0.000000
   16       10.292842   0.000000

 -0.1538462E+00  0.7692308E-01 -0.5050109E-17  0.1092399E-01
    1      -24.133084   1.000000
    2      -24.129441   1.000000
    3      -24.128679   1.000000
    4       -3.777759   1.000000
    5        1.992286   1.000000
    6        2.340825   1.000000
    7        2.572638   1.000000
    8        3.436979   1.000000
    9        3.487225   1.000000
   10        5.020732   1.000000
   11        5.990181   1.000000
   12        6.492106   1.000000
   13        7.876621   1.000000
   14        8.674360   0.000000
   15        8.932174   0.000000
   16        9.847668   0.000000

 -0.7692308E-01  0.7692308E-01 -0.1324672E-17  0.5461994E-02
    1      -24.130817   1.000000
    2      -24.129233   1.000000
    3      -24.128812   1.000000
    4       -3.980262   1.000000
    5        2.255098   1.000000
    6        2.409597   1.000000
    7        2.561310   1.000000
    8        3.378050   1.000000
    9        3.409661   1.000000
   10        5.677317   1.000000
   11        6.283589   1.000000
   12        6.637467   1.000000
   13        7.554907   1.000000
   14        8.681550   0.000000
   15        9.033555   0.000000
   16        9.443234   0.000000

  0.1538462E+00  0.1538462E+00 -0.7722346E-17  0.2730997E-02
    1      -24.131888   1.000000
    2      -24.129411   1.000000
    3      -24.129411   1.000000
    4       -3.833129   1.000000
    5        1.860808   1.000000
    6        2.619372   1.000000
    7        2.619372   1.000000
    8        3.389073   1.000000
    9        3.437059   1.000000
   10        5.452216   1.000000
   11        6.130672   1.000000
   12        6.130672   1.000000
   13        7.662624   1.000000
   14        8.568388   0.000000
   15        9.107518   0.000000
   16        9.879453   0.000000

  0.2307692E+00  0.1538462E+00 -0.1872223E-16  0.1092399E-01
    1      -24.133859   1.000000
    2      -24.129559   1.000000
    3      -24.129506   1.000000
    4       -3.643844   1.000000
    5        1.631431   1.000000
    6        2.614158   1.000000
    7        2.649526   1.000000
    8        3.404718   1.000000
    9        3.505973   1.000000
   10        4.979846   1.000000
   11        5.930230   1.000000
   12        5.944334   1.000000
   13        7.907106   1.000000
   14        8.528725   0.000000
   15        8.985204   0.000000
   16       10.191385   0.000000

  0.3076923E+00  0.1538462E+00 -0.6740580E-17  0.1092399E-01
    1      -24.136422   1.000000
    2      -24.129652   1.000000
    3      -24.129593   1.000000
    4       -3.382669   1.000000
    5        1.422121   1.000000
    6        2.523929   1.000000
    7        2.644384   1.000000
    8        3.458057   1.000000
    9        3.566120   1.000000
   10        4.397840   1.000000
   11        5.730101   1.000000
   12        5.817094   1.000000
   13        8.160019   1.000000
   14        8.719307   0.000000
   15        8.931392   0.000000
   16       10.314569   0.000000

  0.3846154E+00  0.1538462E+00 -0.1174732E-16  0.1092399E-01
    1      -24.138849   1.000000
    2      -24.129959   1.000000
    3      -24.129491   1.000000
    4       -3.095860   1.000000
    5        1.236510   1.000000
    6        2.414791   1.000000
    7        2.612806   1.000000
    8        3.503588   1.000000
    9        3.590905   1.000000
   10        3.911673   1.000000
   11        5.566705   1.000000
   12        5.758710   1.000000
   13        8.184243   1.000000
   14        9.004654   0.000000
   15        9.214081   0.000000
   16        9.905869   0.000000

  0.4615385E+00  0.1538462E+00 -0.8021887E-17  0.1092399E-01
    1      -24.140580   1.000000
    2      -24.130374   1.000000
    3      -24.129297   1.000000
    4       -2.852617   1.000000
    5        1.088050   1.000000
    6        2.340748   1.000000
    7        2.553015   1.000000
    8        3.458362   1.000000
    9        3.596937   1.000000
   10        3.666101   1.000000
   11        5.452344   1.000000
   12        5.750527   1.000000
   13        8.237712   0.350579
   14        9.177461   0.000000
   15        9.337749   0.000000
   16        9.674065   0.000000

 -0.4615385E+00  0.1538462E+00  0.1020448E-16  0.1092399E-01
    1      -24.141240   1.000000
    2      -24.130784   1.000000
    3      -24.129043   1.000000
    4       -2.734759   1.000000
    5        1.018377   1.000000
    6        2.335327   1.000000
    7        2.467337   1.000000
    8        3.360059   1.000000
    9        3.610430   1.000000
   10        3.647693   1.000000
   11        5.374701   1.000000
   12        5.776955   1.000000
   13        8.369577   0.000000
   14        8.984516   0.000000
   15        9.322417   0.000000
   16        9.929652   0.000000

 -0.3846154E+00  0.1538462E+00 -0.1909492E-16  0.1092399E-01
    1      -24.140722   1.000000
    2      -24.131075   1.000000
    3      -24.128784   1.000000
    4       -2.792761   1.000000
    5        1.068815   1.000000
    6        2.373984   1.000000
    7        2.404566   1.000000
    8        3.378764   1.000000
    9        3.630888   1.000000
   10        3.694199   1.000000
   11        5.309275   1.000000
   12        5.845344   1.000000
   13        8.431900   0.000000
   14        9.046459   0.000000
   15        9.292749   0.000000
   16        9.925301   0.000000

 -0.3076923E+00  0.1538462E+00 -0.1022388E-16  0.1092399E-01
    1      -24.139187   1.000000
    2      -24.131123   1.000000
    3      -24.128591   1.000000
    4       -3.001174   1.000000
    5        1.229692   1.000000
    6        2.298953   1.000000
    7        2.518931   1.000000
    8        3.454060   1.000000
    9        3.636688   1.000000
   10        3.866067   1.000000
   11        5.252994   1.000000
   12        5.972868   1.000000
   13        8.429941   0.000000
   14        9.118995   0.000000
   15        9.371557   0.000000
   16        9.823630   0.000000

 -0.2307692E+00  0.1538462E+00 -0.6498439E-17  0.1092399E-01
    1      -24.137035   1.000000
    2      -24.130845   1.000000
    3      -24.128496   1.000000
    4       -3.282321   1.000000
    5        1.458867   1.000000
    6        2.263240   1.000000
    7        2.620098   1.000000
    8        3.478143   1.000000
    9        3.611051   1.000000
   10        4.241585   1.000000
   11        5.258748   1.000000
   12        6.158273   1.000000
   13        8.489062   0.000000
   14        8.903325   0.000000
   15        9.158737   0.000000
   16        9.985600   0.000000

 -0.1538462E+00  0.1538462E+00 -0.2896659E-17  0.5461994E-02
    1      -24.134843   1.000000
    2      -24.130235   1.000000
    3      -24.128530   1.000000
    4       -3.559335   1.000000
    5        1.722573   1.000000
    6        2.277488   1.000000
    7        2.649604   1.000000
    8        3.457692   1.000000
    9        3.555758   1.000000
   10        4.693487   1.000000
   11        5.465046   1.000000
   12        6.359626   1.000000
   13        8.363754   0.000000
   14        8.726869   0.000000
   15        8.930795   0.000000
   16        9.823193   0.000000

  0.2307692E+00  0.2307692E+00 -0.1158352E-16  0.2730997E-02
    1      -24.134962   1.000000
    2      -24.129862   1.000000
    3      -24.129862   1.000000
    4       -3.504534   1.000000
    5        1.422794   1.000000
    6        2.741138   1.000000
    7        2.741138   1.000000
    8        3.324716   1.000000
    9        3.569038   1.000000
   10        4.870258   1.000000
   11        5.747146   1.000000
   12        5.747146   1.000000
   13        7.736367   1.000000
   14        8.603842   0.000000
   15        8.888513   0.000000
   16       10.302833   0.000000

  0.3076923E+00  0.2307692E+00 -0.8767734E-17  0.1092399E-01
    1      -24.136876   1.000000
    2      -24.130145   1.000000
    3      -24.130027   1.000000
    4       -3.295649   1.000000
    5        1.265529   1.000000
    6        2.728417   1.000000
    7        2.782688   1.000000
    8        3.327282   1.000000
    9        3.636805   1.000000
   10        4.486879   1.000000
   11        5.531104   1.000000
   12        5.609883   1.000000
   13        7.882100   1.000000
   14        8.725158   0.000000
   15        8.795813   0.000000
   16       10.311417   0.000000

  0.3846154E+00  0.2307692E+00 -0.1210485E-16  0.1092399E-01
    1      -24.138738   1.000000
    2      -24.130693   1.000000
    3      -24.130019   1.000000
    4       -3.055971   1.000000
    5        1.179257   1.000000
    6        2.599008   1.000000
    7        2.773578   1.000000
    8        3.409297   1.000000
    9        3.672197   1.000000
   10        4.032708   1.000000
   11        5.285956   1.000000
   12        5.551919   1.000000
   13        8.017005   1.000000
   14        8.822903   0.000000
   15        9.145137   0.000000
   16        9.987546   0.000000

  0.4615385E+00  0.2307692E+00 -0.5744779E-17  0.1092399E-01
    1      -24.139993   1.000000
    2      -24.131530   1.000000
    3      -24.129842   1.000000
    4       -2.839767   1.000000
    5        1.164763   1.000000
    6        2.442257   1.000000
    7        2.711639   1.000000
    8        3.428682   1.000000
    9        3.681884   1.000000
   10        3.728117   1.000000
   11        5.084766   1.000000
   12        5.551852   1.000000
   13        8.071228   1.000000
   14        9.009136   0.000000
   15        9.493060   0.000000
   16        9.724368   0.000000

 -0.4615385E+00  0.2307692E+00  0.1582085E-16  0.1092399E-01
    1      -24.140355   1.000000
    2      -24.132462   1.000000
    3      -24.129532   1.000000
    4       -2.707169   1.000000
    5        1.193573   1.000000
    6        2.323706   1.000000
    7        2.603067   1.000000
    8        3.287919   1.000000
    9        3.692396   1.000000
   10        3.740069   1.000000
   11        4.942432   1.000000
   12        5.584913   1.000000
   13        8.182724   1.000000
   14        9.101970   0.000000
   15        9.280019   0.000000
   16       10.042610   0.000000

 -0.3846154E+00  0.2307692E+00 -0.2940024E-17  0.1092399E-01
    1      -24.139871   1.000000
    2      -24.133153   1.000000
    3      -24.129161   1.000000
    4       -2.701841   1.000000
    5        1.215318   1.000000
    6        2.318731   1.000000
    7        2.474122   1.000000
    8        3.257501   1.000000
    9        3.704490   1.000000
   10        3.826819   1.000000
   11        4.845129   1.000000
   12        5.656240   1.000000
   13        8.368285   0.000000
   14        8.937008   0.000000
   15        9.388741   0.000000
   16       10.014523   0.000000

 -0.3076923E+00  0.2307692E+00 -0.1128603E-16  0.1092399E-01
    1      -24.138910   1.000000
    2      -24.133191   1.000000
    3      -24.128811   1.000000
    4       -2.826582   1.000000
    5        1.232815   1.000000
    6        2.358614   1.000000
    7        2.434302   1.000000
    8        3.346802   1.000000
    9        3.699284   1.000000
   10        3.948060   1.000000
   11        4.792320   1.000000
   12        5.784071   1.000000
   13        8.482470   0.000000
   14        9.186031   0.000000
   15        9.271285   0.000000
   16        9.921789   0.000000

 -0.2307692E+00  0.2307692E+00 -0.1282986E-16  0.5461994E-02
    1      -24.137939   1.000000
    2      -24.132305   1.000000
    3      -24.128572   1.000000
    4       -3.040544   1.000000
    5        1.304716   1.000000
    6        2.283184   1.000000
    7        2.570230   1.000000
    8        3.441942   1.000000
    9        3.665937   1.000000
   10        4.110460   1.000000
   11        4.878977   1.000000
   12        5.965434   1.000000
   13        8.543239   0.000000
   14        9.080011   0.000000
   15        9.592602   0.000000
   16        9.822491   0.000000

  0.3076923E+00  0.3076923E+00 -0.1544469E-16  0.2730997E-02
    1      -24.138289   1.000000
    2      -24.130341   1.000000
    3      -24.130341   1.000000
    4       -3.147668   1.000000
    5        1.156390   1.000000
    6        2.877988   1.000000
    7        2.877988   1.000000
    8        3.194408   1.000000
    9        3.721222   1.000000
   10        4.298536   1.000000
   11        5.448098   1.000000
   12        5.448098   1.000000
   13        7.705444   1.000000
   14        8.643622   0.000000
   15        8.762568   0.000000
   16       10.262147   0.000000

  0.3846154E+00  0.3076923E+00 -0.2549882E-16  0.1092399E-01
    1      -24.139770   1.000000
    2      -24.130765   1.000000
    3      -24.130469   1.000000
    4       -2.970115   1.000000
    5        1.133305   1.000000
    6        2.808164   1.000000
    7        2.912471   1.000000
    8        3.248033   1.000000
    9        3.775429   1.000000
   10        3.955988   1.000000
   11        5.240005   1.000000
   12        5.368781   1.000000
   13        7.773847   1.000000
   14        8.592903   0.000000
   15        8.972580   0.000000
   16       10.021773   0.000000

  0.4615385E+00  0.3076923E+00 -0.1219985E-16  0.1092399E-01
    1      -24.140595   1.000000
    2      -24.131693   1.000000
    3      -24.130374   1.000000
    4       -2.803440   1.000000
    5        1.205136   1.000000
    6        2.621478   1.000000
    7        2.875590   1.000000
    8        3.347227   1.000000
    9        3.659555   1.000000
   10        3.788730   1.000000
   11        4.945928   1.000000
   12        5.362372   1.000000
   13        7.861244   1.000000
   14        8.729707   0.000000
   15        9.452642   0.000000
   16        9.692059   0.000000

 -0.4615385E+00  0.3076923E+00 -0.1312053E-16  0.1092399E-01
    1      -24.140458   1.000000
    2      -24.133039   1.000000
    3      -24.130083   1.000000
    4       -2.687174   1.000000
    5        1.337318   1.000000
    6        2.418994   1.000000
    7        2.769074   1.000000
    8        3.186591   1.000000
    9        3.739087   1.000000
   10        3.787292   1.000000
   11        4.684510   1.000000
   12        5.397648   1.000000
   13        7.958288   1.000000
   14        9.070028   0.000000
   15        9.244921   0.000000
   16        9.878594   0.000000

 -0.3846154E+00  0.3076923E+00 -0.2134288E-16  0.1092399E-01
    1      -24.139502   1.000000
    2      -24.134395   1.000000
    3      -24.129661   1.000000
    4       -2.649004   1.000000
    5        1.416343   1.000000
    6        2.266814   1.000000
    7        2.621261   1.000000
    8        3.117319   1.000000
    9        3.778835   1.000000
   10        3.924033   1.000000
   11        4.506982   1.000000
   12        5.472802   1.000000
   13        8.135983   1.000000
   14        8.997595   0.000000
   15        9.449793   0.000000
   16        9.887232   0.000000

 -0.3076923E+00  0.3076923E+00 -0.5793318E-17  0.5461994E-02
    1      -24.138667   1.000000
    2      -24.134732   1.000000
    3      -24.129206   1.000000
    4       -2.698888   1.000000
    5        1.336940   1.000000
    6        2.301784   1.000000
    7        2.473172   1.000000
    8        3.206434   1.000000
    9        3.750623   1.000000
   10        4.020280   1.000000
   11        4.508130   1.000000
   12        5.603635   1.000000
   13        8.367055   0.000000
   14        8.947153   0.000000
   15        9.423725   0.000000
   16        9.804507   0.000000

  0.3846154E+00  0.3846154E+00 -0.1930586E-16  0.2730997E-02
    1      -24.141105   1.000000
    2      -24.130740   1.000000
    3      -24.130740   1.000000
    4       -2.860874   1.000000
    5        1.154470   1.000000
    6        2.997035   1.000000
    7        2.997035   1.000000
    8        3.062393   1.000000
    9        3.693117   1.000000
   10        3.859054   1.000000
   11        5.255781   1.000000
   12        5.255781   1.000000
   13        7.653387   1.000000
   14        8.428754   0.000000
   15        8.861258   0.000000
   16        9.968150   0.000000

  0.4615385E+00  0.3846154E+00 -0.2942211E-16  0.1092399E-01
    1      -24.141862   1.000000
    2      -24.131214   1.000000
    3      -24.130782   1.000000
    4       -2.755689   1.000000
    5        1.255503   1.000000
    6        2.825226   1.000000
    7        3.005255   1.000000
    8        3.205187   1.000000
    9        3.422102   1.000000
   10        3.888658   1.000000
   11        5.073588   1.000000
   12        5.225902   1.000000
   13        7.689051   1.000000
   14        8.444151   0.000000
   15        9.051442   0.000000
   16        9.757441   0.000000

 -0.4615385E+00  0.3846154E+00  0.1357289E-16  0.1092399E-01
    1      -24.141635   1.000000
    2      -24.132298   1.000000
    3      -24.130577   1.000000
    4       -2.677917   1.000000
    5        1.400745   1.000000
    6        2.620706   1.000000
    7        2.928470   1.000000
    8        3.070158   1.000000
    9        3.545695   1.000000
   10        3.875517   1.000000
   11        4.769329   1.000000
   12        5.255767   1.000000
   13        7.774448   1.000000
   14        8.694289   0.000000
   15        9.332740   0.000000
   16        9.735184   0.000000

 -0.3846154E+00  0.3846154E+00 -0.1572651E-16  0.5461994E-02
    1      -24.140531   1.000000
    2      -24.133681   1.000000
    3      -24.130165   1.000000
    4       -2.640848   1.000000
    5        1.496235   1.000000
    6        2.384213   1.000000
    7        2.786391   1.000000
    8        3.016200   1.000000
    9        3.795127   1.000000
   10        3.838194   1.000000
   11        4.514229   1.000000
   12        5.335455   1.000000
   13        7.917363   1.000000
   14        9.143373   0.000000
   15        9.159102   0.000000
   16        9.662974   0.000000

  0.4615385E+00  0.4615385E+00 -0.2316704E-16  0.2730997E-02
    1      -24.142718   1.000000
    2      -24.130969   1.000000
    3      -24.130969   1.000000
    4       -2.712273   1.000000
    5        1.329545   1.000000
    6        3.002609   1.000000
    7        3.066085   1.000000
    8        3.066085   1.000000
    9        3.176859   1.000000
   10        3.942582   1.000000
   11        5.166006   1.000000
   12        5.166006   1.000000
   13        7.618016   1.000000
   14        8.301659   0.000000
   15        8.833089   0.000000
   16        9.750304   0.000000

 -0.4615385E+00  0.4615385E+00 -0.2590703E-16  0.5461994E-02
    1      -24.142623   1.000000
    2      -24.131370   1.000000
    3      -24.130892   1.000000
    4       -2.685091   1.000000
    5        1.392150   1.000000
    6        2.851100   1.000000
    7        3.018989   1.000000
    8        3.038441   1.000000
    9        3.293082   1.000000
   10        3.934150   1.000000
   11        5.021261   1.000000
   12        5.178238   1.000000
   13        7.658003   1.000000
   14        8.390529   0.000000
   15        9.025149   0.000000
   16        9.663614   0.000000

  0.2307692E+00  0.1538462E+00  0.7692308E-01  0.1092399E-01
    1      -24.132920   1.000000
    2      -24.129628   1.000000
    3      -24.128920   1.000000
    4       -3.761200   1.000000
    5        1.857471   1.000000
    6        2.459312   1.000000
    7        2.628674   1.000000
    8        3.425701   1.000000
    9        3.475653   1.000000
   10        5.134178   1.000000
   11        5.872820   1.000000
   12        6.344364   1.000000
   13        7.955085   1.000000
   14        8.535359   0.000000
   15        9.016467   0.000000
   16        9.826705   0.000000

  0.3076923E+00  0.1538462E+00  0.7692308E-01  0.2184797E-01
    1      -24.135327   1.000000
    2      -24.130005   1.000000
    3      -24.128820   1.000000
    4       -3.513274   1.000000
    5        1.610568   1.000000
    6        2.387889   1.000000
    7        2.637673   1.000000
    8        3.467826   1.000000