       N       E                     dE             d eps       ncg     rms          rms(c)
DAV:   1     0.138974138759E+03    0.13897E+03   -0.14188E+04  2704   0.173E+03
DAV:   2    -0.198691374349E+02   -0.15884E+03   -0.15731E+03  3360   0.336E+02
DAV:   3    -0.249352423828E+02   -0.50661E+01   -0.49881E+01  3664   0.523E+01
DAV:   4    -0.250085220613E+02   -0.73280E-01   -0.73211E-01  3264   0.675E+00
DAV:   5    -0.250101636475E+02   -0.16416E-02   -0.16412E-02  3736   0.943E-01    0.387E+01
DAV:   6    -0.241453171259E+02    0.86485E+00   -0.19650E+00  3504   0.925E+00    0.241E+01
DAV:   7    -0.240043426350E+02    0.14097E+00   -0.11110E+00  3816   0.602E+00    0.331E+00
DAV:   8    -0.239818651327E+02    0.22478E-01   -0.42736E-01  3368   0.317E+00    0.939E-01
DAV:   9    -0.239702613395E+02    0.11604E-01   -0.65637E-02  3064   0.182E+00    0.261E-01
DAV:  10    -0.239702037538E+02    0.57586E-04   -0.10372E-02  3672   0.485E-01    0.276E-01
DAV:  11    -0.239700293695E+02    0.17438E-03   -0.92143E-04  3392   0.170E-01    0.491E-02
DAV:  12    -0.239700271335E+02    0.22360E-05   -0.79332E-05  3704   0.570E-02    0.140E-02
DAV:  13    -0.239700258469E+02    0.12866E-05   -0.36429E-06  3104   0.136E-02    0.808E-03
DAV:  14    -0.239700258608E+02   -0.13892E-07   -0.18601E-07  2848   0.367E-03
   1 F= -.23970026E+02 E0= -.23969816E+02  d E =-.418873E-03
