 vasp.6.0.8 29Jun18 (build Jun 13 2019 12:54:44) complex

 executed on      IFC18_CrayMPICH date 2021.12.05  14:21:50
 running   64 mpi-ranks, with    1 threads/rank
 distrk:  each k-point on   16 cores,    4 groups
 distr:  one band on NCORES_PER_BAND=   4 cores,    4 groups


--------------------------------------------------------------------------------------------------------


 INCAR:
 POTCAR:    PAW_PBE Hf_pv 06Sep2000
 POTCAR:    PAW_PBE Sb 06Sep2000
 POTCAR:    PAW_PBE Pt 04Feb2005
 POTCAR:    PAW_PBE Hf_pv 06Sep2000
   VRHFIN =Hf: 5p6s5d
   LEXCH  = PE
   EATOM  =   860.9206 eV,   63.2759 Ry

   TITEL  = PAW_PBE Hf_pv 06Sep2000
   LULTRA =        F    use ultrasoft PP ?
   IUNSCR =        1    unscreen: 0-lin 1-nonlin 2-no
   RPACOR =    2.500    partial core radius
   POMASS =  178.490; ZVAL   =   10.000    mass and valenz
   RCORE  =    2.600    outmost cutoff radius
   RWIGS  =    3.050; RWIGS  =    1.614    wigner-seitz radius (au A)
   ENMAX  =  220.334; ENMIN  =  165.250 eV
   RCLOC  =    2.212    cutoff for local pot
   LCOR   =        T    correct aug charges
   LPAW   =        T    paw PP
   EAUG   =  380.878
   DEXC   =    0.000
   RMAX   =    2.665    core radius for proj-oper
   RAUG   =    1.300    factor for augmentation sphere
   RDEP   =    2.681    radius for radial grids
   RDEPT  =    2.139    core radius for aug-charge

   Atomic configuration
   15 entries
     n  l   j            E        occ.
     1  0  0.50    -65259.4397   2.0000
     2  0  0.50    -11157.9884   2.0000
     2  1  1.50     -9795.2114   6.0000
     3  0  0.50     -2541.4060   2.0000
     3  1  1.50     -2134.4772   6.0000
     3  2  2.50     -1653.5420  10.0000
     4  0  0.50      -510.9577   2.0000
     4  1  1.50      -377.5024   6.0000
     4  2  2.50      -205.2086  10.0000
     4  3  3.50       -15.4906  14.0000
     5  0  0.50       -65.6020   2.0000
     5  1  1.50       -34.2798   6.0000
     5  2  2.50        -1.9877   3.0000
     6  0  0.50        -4.7357   1.0000
     5  3  2.50        -1.3606   0.0000
   Description
     l       E           TYP  RCUT    TYP  RCUT
     1    -34.2797769     23  2.500
     1    -35.6403595     23  2.500
     2     -1.9876655     23  2.500
     2      0.0744675     23  2.500
     0     -4.7356889     23  2.600
     0      3.2364748     23  2.600
  local pseudopotential read in
  partial core-charges read in
  partial kinetic energy density read in
  atomic valenz-charges read in
  non local Contribution for L=           1  read in
    real space projection operators read in
  non local Contribution for L=           1  read in
    real space projection operators read in
  non local Contribution for L=           2  read in
    real space projection operators read in
  non local Contribution for L=           2  read in
    real space projection operators read in
  non local Contribution for L=           0  read in
    real space projection operators read in
  non local Contribution for L=           0  read in
    real space projection operators read in
    PAW grid and wavefunctions read in

   number of l-projection  operators is LMAX  =           6
   number of lm-projection operators is LMMAX =          18

 POTCAR:    PAW_PBE Sb 06Sep2000
   VRHFIN =Sb: s2p3
   LEXCH  = PE
   EATOM  =   149.9515 eV,   11.0211 Ry

   TITEL  = PAW_PBE Sb 06Sep2000
   LULTRA =        F    use ultrasoft PP ?
   IUNSCR =        1    unscreen: 0-lin 1-nonlin 2-no
   RPACOR =    2.200    partial core radius
   POMASS =  121.750; ZVAL   =    5.000    mass and valenz
   RCORE  =    2.300    outmost cutoff radius
   RWIGS  =    2.980; RWIGS  =    1.577    wigner-seitz radius (au A)
   ENMAX  =  172.069; ENMIN  =  129.052 eV
   ICORE  =        3    local potential
   LCOR   =        T    correct aug charges
   LPAW   =        T    paw PP
   EAUG   =  380.513
   DEXC   =    0.000
   RMAX   =    2.346    core radius for proj-oper
   RAUG   =    1.300    factor for augmentation sphere
   RDEP   =    2.360    radius for radial grids
   RDEPT  =    2.192    core radius for aug-charge

   Atomic configuration
   13 entries
     n  l   j            E        occ.
     1  0  0.50    -30298.2797   2.0000
     2  0  0.50     -4610.2252   2.0000
     2  1  1.50     -4138.3407   6.0000
     3  0  0.50      -903.8815   2.0000
     3  1  1.50      -750.1337   6.0000
     3  2  2.50      -515.7092  10.0000
     4  0  0.50      -148.8034   2.0000
     4  1  1.50      -101.7581   6.0000
     4  2  2.50       -33.5048  10.0000
     5  0  0.50       -12.8298   2.0000
     5  1  0.50        -4.8276   3.0000
     5  2  1.50        -4.0817   0.0000
     4  3  2.50        -4.0817   0.0000
   Description
     l       E           TYP  RCUT    TYP  RCUT
     0    -12.8297861     23  2.300
     0     13.6058260     23  2.300
     1     -4.8275512     23  2.300
     1     -0.7245443     23  2.300
     2     -4.0817478     23  2.300
     3     -1.3605826     23  2.300
  local pseudopotential read in
  partial core-charges read in
  partial kinetic energy density read in
  atomic valenz-charges read in
  non local Contribution for L=           0  read in
    real space projection operators read in
  non local Contribution for L=           0  read in
    real space projection operators read in
  non local Contribution for L=           1  read in
    real space projection operators read in
  non local Contribution for L=           1  read in
    real space projection operators read in
  non local Contribution for L=           2  read in
    real space projection operators read in
    PAW grid and wavefunctions read in

   number of l-projection  operators is LMAX  =           5
   number of lm-projection operators is LMMAX =          13

 POTCAR:    PAW_PBE Pt 04Feb2005
   VRHFIN =Pt: s1d9
   LEXCH  = PE
   EATOM  =   729.1176 eV,   53.5886 Ry

   TITEL  = PAW_PBE Pt 04Feb2005
   LULTRA =        F    use ultrasoft PP ?
   IUNSCR =        1    unscreen: 0-lin 1-nonlin 2-no
   RPACOR =    2.330    partial core radius
   POMASS =  195.080; ZVAL   =   10.000    mass and valenz
   RCORE  =    2.600    outmost cutoff radius
   RWIGS  =    2.750; RWIGS  =    1.455    wigner-seitz radius (au A)
   ENMAX  =  230.283; ENMIN  =  172.712 eV
   ICORE  =        3    local potential
   LCOR   =        T    correct aug charges
   LPAW   =        T    paw PP
   EAUG   =  358.966
   DEXC   =    0.000
   RMAX   =    2.658    core radius for proj-oper
   RAUG   =    1.300    factor for augmentation sphere
   RDEP   =    2.761    radius for radial grids
   RDEPT  =    2.203    core radius for aug-charge

   Atomic configuration
   16 entries
     n  l   j            E        occ.
     1  0  0.50    -78401.1885   2.0000
     2  0  0.50    -13770.7750   2.0000
     2  1  1.50    -11931.0468   6.0000
     3  0  0.50     -3234.7234   2.0000
     3  1  1.50     -2699.2216   6.0000
     3  2  2.50     -2119.5714  10.0000
     4  0  0.50      -695.1528   2.0000
     4  1  1.50      -519.6034   6.0000
     4  2  2.50      -306.6786  10.0000
     4  3  3.50       -70.1041  14.0000
     5  0  0.50      -101.7747   2.0000
     5  1  1.50       -55.9873   6.0000
     5  2  2.50        -6.1423   9.0000
     6  0  0.50        -5.6573   1.0000
     6  1  1.50        -6.8029   0.0000
     5  3  2.50        -1.3606   0.0000
   Description
     l       E           TYP  RCUT    TYP  RCUT
     2     -6.1423404     23  2.500
     2     -7.5029230     23  2.500
     0     -5.6573207     23  2.500
     0      0.7416693     23  2.500
     1     -2.7211652     23  2.600
     1     20.4087390     23  2.600
     3     -1.3605826     23  2.500
  local pseudopotential read in
  partial core-charges read in
  partial kinetic energy density read in
  atomic valenz-charges read in
  non local Contribution for L=           2  read in
    real space projection operators read in
  non local Contribution for L=           2  read in
    real space projection operators read in
  non local Contribution for L=           0  read in
    real space projection operators read in
  non local Contribution for L=           0  read in
    real space projection operators read in
  non local Contribution for L=           1  read in
    real space projection operators read in
  non local Contribution for L=           1  read in
    real space projection operators read in
    PAW grid and wavefunctions read in

   number of l-projection  operators is LMAX  =           6
   number of lm-projection operators is LMMAX =          18


 -----------------------------------------------------------------------------
|                                                                             |
|  ADVICE TO THIS USER RUNNING 'VASP/VAMP'   (HEAR YOUR MASTER'S VOICE ...):  |
|                                                                             |
|      You enforced a specific xc-type in the INCAR file,                     |
|      a different type was found on the POTCAR file                          |
|          I HOPE YOU KNOW, WHAT YOU ARE  DOING                               |
|                                                                             |
 -----------------------------------------------------------------------------

  PAW_PBE Hf_pv 06Sep2000               :
 energy of atom  1       EATOM= -860.9206
 kinetic energy error for atom=    0.0004 (will be added to EATOM!!)
  PAW_PBE Sb 06Sep2000                  :
 energy of atom  2       EATOM= -149.9515
 kinetic energy error for atom=    0.0002 (will be added to EATOM!!)
  PAW_PBE Pt 04Feb2005                  :
 energy of atom  3       EATOM= -729.1176
 kinetic energy error for atom=    0.0010 (will be added to EATOM!!)


 POSCAR: Hf1 Sb1 Pt1
  positions in direct lattice
  No initial velocities read in
 exchange correlation table for  LEXCH =       14
   RHO(1)=    0.500       N(1)  =     2000
   RHO(2)=  100.500       N(2)  =     4000



--------------------------------------------------------------------------------------------------------


 ion  position               nearest neighbor table
   1  0.750  0.750  0.750-   3 2.81   3 2.81   3 2.81   3 2.81   2 3.24   2 3.24   2 3.24   2 3.24
                             2 3.24   2 3.24
   2  0.250  0.250  0.250-   3 2.81   3 2.81   3 2.81   3 2.81   1 3.24   1 3.24   1 3.24   1 3.24
                             1 3.24   1 3.24
   3  0.000  0.000  0.000-   1 2.81   1 2.81   1 2.81   2 2.81   2 2.81   2 2.81   2 2.81   1 2.81


  LATTYP: Found a face centered cubic cell.
 ALAT       =     6.4812382394

  Lattice vectors:

 A1 = (   0.0000000000,   3.2406191197,   3.2406191197)
 A2 = (   3.2406191197,   0.0000000000,   3.2406191197)
 A3 = (   3.2406191197,   3.2406191197,   0.0000000000)


Analysis of symmetry for initial positions (statically):
=====================================================================
 Subroutine PRICEL returns:
 Original cell was already a primitive cell.


 Routine SETGRP: Setting up the symmetry group for a
 face centered cubic supercell.


 Subroutine GETGRP returns: Found 24 space group operations
 (whereof 24 operations were pure point group operations)
 out of a pool of 48 trial point group operations.


The static configuration has the point symmetry T_d .


Analysis of symmetry for dynamics (positions and initial velocities):
=====================================================================
 Subroutine PRICEL returns:
 Original cell was already a primitive cell.


 Routine SETGRP: Setting up the symmetry group for a
 face centered cubic supercell.


 Subroutine GETGRP returns: Found 24 space group operations
 (whereof 24 operations were pure point group operations)
 out of a pool of 48 trial point group operations.


The dynamic configuration has the point symmetry T_d .


 Subroutine INISYM returns: Found 24 space group operations
 (whereof 24 operations are pure point group operations),
 and found     1 'primitive' translations


----------------------------------------------------------------------------------------

                                     Primitive cell

  volume of cell :      68.0635

  direct lattice vectors                    reciprocal lattice vectors
     0.000000000  3.240619120  3.240619120    -0.154291505  0.154291505  0.154291505
     3.240619120  0.000000000  3.240619120     0.154291505 -0.154291505  0.154291505
     3.240619120  3.240619120  0.000000000     0.154291505  0.154291505 -0.154291505

  length of vectors
     4.582927510  4.582927510  4.582927510     0.267240725  0.267240725  0.267240725

  position of ions in fractional coordinates (direct lattice)
     0.750000000  0.750000000  0.750000000
     0.250000000  0.250000000  0.250000000
     0.000000000  0.000000000  0.000000000

  ion indices of the primitive-cell ions
   primitive index   ion index
                 1           1
                 2           2
                 3           3

----------------------------------------------------------------------------------------



 KPOINTS: KPOINTS

Automatic generation of k-mesh.
Space group operators:
 irot       det(A)        alpha          n_x          n_y          n_z        tau_x        tau_y        tau_z
    1     1.000000     0.000000     1.000000     0.000000     0.000000     0.000000     0.000000     0.000000
    2     1.000000   120.000000    -0.577350    -0.577350    -0.577350     0.000000     0.000000     0.000000
    3     1.000000   120.000000     0.577350     0.577350     0.577350     0.000000     0.000000     0.000000
    4    -1.000000    90.000000    -0.000000    -0.000000    -1.000000     0.000000     0.000000     0.000000
    5    -1.000000   180.000000     0.000000     0.707107     0.707107     0.000000     0.000000     0.000000
    6    -1.000000    90.000000    -0.000000     1.000000    -0.000000     0.000000     0.000000     0.000000
    7     1.000000   180.000000    -0.000000    -0.000000    -1.000000     0.000000     0.000000     0.000000
    8     1.000000   120.000000    -0.577350     0.577350     0.577350     0.000000     0.000000     0.000000
    9     1.000000   120.000000    -0.577350     0.577350    -0.577350     0.000000     0.000000     0.000000
   10    -1.000000    90.000000     0.000000     0.000000     1.000000     0.000000     0.000000     0.000000
   11    -1.000000    90.000000    -1.000000     0.000000     0.000000     0.000000     0.000000     0.000000
   12    -1.000000   180.000000     0.707107     0.000000     0.707107     0.000000     0.000000     0.000000
   13     1.000000   120.000000     0.577350    -0.577350     0.577350     0.000000     0.000000     0.000000
   14     1.000000   120.000000    -0.577350    -0.577350     0.577350     0.000000     0.000000     0.000000
   15     1.000000   180.000000     1.000000     0.000000     0.000000     0.000000     0.000000     0.000000
   16    -1.000000    90.000000     0.000000    -1.000000     0.000000     0.000000     0.000000     0.000000
   17    -1.000000   180.000000     0.707107     0.707107    -0.000000     0.000000     0.000000     0.000000
   18    -1.000000    90.000000     1.000000     0.000000     0.000000     0.000000     0.000000     0.000000
   19     1.000000   120.000000     0.577350    -0.577350    -0.577350     0.000000     0.000000     0.000000
   20     1.000000   180.000000    -0.000000    -1.000000    -0.000000     0.000000     0.000000     0.000000
   21     1.000000   120.000000     0.577350     0.577350    -0.577350     0.000000     0.000000     0.000000
   22    -1.000000   180.000000    -0.000000    -0.707107     0.707107     0.000000     0.000000     0.000000
   23    -1.000000   180.000000     0.707107    -0.707107     0.000000     0.000000     0.000000     0.000000
   24    -1.000000   180.000000     0.707107     0.000000    -0.707107     0.000000     0.000000     0.000000

 Subroutine IBZKPT returns following result:
 ===========================================

 Found     84 irreducible k-points:

 Following reciprocal coordinates:
            Coordinates               Weight
  0.000000  0.000000  0.000000      1.000000
  0.076923 -0.000000 -0.000000      8.000000
  0.153846 -0.000000 -0.000000      8.000000
  0.230769 -0.000000  0.000000      8.000000
  0.307692 -0.000000 -0.000000      8.000000
  0.384615 -0.000000  0.000000      8.000000
  0.461538 -0.000000  0.000000      8.000000
  0.076923  0.076923 -0.000000      6.000000
  0.153846  0.076923 -0.000000     24.000000
  0.230769  0.076923 -0.000000     24.000000
  0.307692  0.076923 -0.000000     24.000000
  0.384615  0.076923 -0.000000     24.000000
  0.461538  0.076923 -0.000000     24.000000
 -0.461538  0.076923 -0.000000     24.000000
 -0.384615  0.076923 -0.000000     24.000000
 -0.307692  0.076923 -0.000000     24.000000
 -0.230769  0.076923  0.000000     24.000000
 -0.153846  0.076923 -0.000000     24.000000
 -0.076923  0.076923 -0.000000     12.000000
  0.153846  0.153846 -0.000000      6.000000
  0.230769  0.153846 -0.000000     24.000000
  0.307692  0.153846 -0.000000     24.000000
  0.384615  0.153846 -0.000000     24.000000
  0.461538  0.153846 -0.000000     24.000000
 -0.461538  0.153846  0.000000     24.000000
 -0.384615  0.153846 -0.000000     24.000000
 -0.307692  0.153846 -0.000000     24.000000
 -0.230769  0.153846 -0.000000     24.000000
 -0.153846  0.153846 -0.000000     12.000000
  0.230769  0.230769 -0.000000      6.000000
  0.307692  0.230769 -0.000000     24.000000
  0.384615  0.230769 -0.000000     24.000000
  0.461538  0.230769 -0.000000     24.000000
 -0.461538  0.230769  0.000000     24.000000
 -0.384615  0.230769 -0.000000     24.000000
 -0.307692  0.230769 -0.000000     24.000000
 -0.230769  0.230769 -0.000000     12.000000
  0.307692  0.307692 -0.000000      6.000000
  0.384615  0.307692 -0.000000     24.000000
  0.461538  0.307692 -0.000000     24.000000
 -0.461538  0.307692 -0.000000     24.000000
 -0.384615  0.307692 -0.000000     24.000000
 -0.307692  0.307692 -0.000000     12.000000
  0.384615  0.384615 -0.000000      6.000000
  0.461538  0.384615 -0.000000     24.000000
 -0.461538  0.384615  0.000000     24.000000
 -0.384615  0.384615 -0.000000     12.000000
  0.461538  0.461538 -0.000000      6.000000
 -0.461538  0.461538 -0.000000     12.000000
  0.230769  0.153846  0.076923     24.000000
  0.307692  0.153846  0.076923     48.000000
  0.384615  0.153846  0.076923     48.000000
  0.461538  0.153846  0.076923     48.000000
 -0.461538  0.153846  0.076923     48.000000
  0.307692  0.230769  0.076923     24.000000
  0.384615  0.230769  0.076923     48.000000
  0.461538  0.230769  0.076923     48.000000
 -0.461538  0.230769  0.076923     48.000000
 -0.384615  0.230769  0.076923     48.000000
 -0.307692  0.230769  0.076923     48.000000
 -0.230769  0.230769  0.076923     48.000000
 -0.153846  0.230769  0.076923     24.000000
  0.384615  0.307692  0.076923     24.000000
  0.461538  0.307692  0.076923     48.000000
 -0.461538  0.307692  0.076923     48.000000
 -0.384615  0.307692  0.076923     48.000000
 -0.307692  0.307692  0.076923     48.000000
 -0.230769  0.307692  0.076923     24.000000
  0.461538  0.384615  0.076923     24.000000
 -0.461538  0.384615  0.076923     48.000000
 -0.384615  0.384615  0.076923     48.000000
 -0.307692  0.384615  0.076923     24.000000
 -0.461538  0.461538  0.076923     24.000000
 -0.384615  0.461538  0.076923     24.000000
  0.461538  0.307692  0.153846     24.000000
 -0.461538  0.307692  0.153846     48.000000
 -0.384615  0.307692  0.153846     48.000000
 -0.461538  0.384615  0.153846     24.000000
 -0.384615  0.384615  0.153846     48.000000
 -0.307692  0.384615  0.153846     48.000000
 -0.230769  0.384615  0.153846     24.000000
 -0.384615  0.461538  0.153846     24.000000
 -0.307692  0.461538  0.153846     24.000000
 -0.307692  0.461538  0.230769     24.000000

 Following cartesian coordinates:
            Coordinates               Weight
  0.000000  0.000000  0.000000      1.000000
 -0.012101  0.012101  0.012101      8.000000
 -0.024203  0.024203  0.024203      8.000000
 -0.036304  0.036304  0.036304      8.000000
 -0.048405  0.048405  0.048405      8.000000
 -0.060507  0.060507  0.060507      8.000000
 -0.072608  0.072608  0.072608      8.000000
 -0.000000 -0.000000  0.024203      6.000000
 -0.012101  0.012101  0.036304     24.000000
 -0.024203  0.024203  0.048405     24.000000
 -0.036304  0.036304  0.060507     24.000000
 -0.048405  0.048405  0.072608     24.000000
 -0.060507  0.060507  0.084709     24.000000
  0.084709 -0.084709 -0.060507     24.000000
  0.072608 -0.072608 -0.048405     24.000000
  0.060507 -0.060507 -0.036304     24.000000
  0.048405 -0.048405 -0.024203     24.000000
  0.036304 -0.036304 -0.012101     24.000000
  0.024203 -0.024203 -0.000000     12.000000
 -0.000000 -0.000000  0.048405      6.000000
 -0.012101  0.012101  0.060507     24.000000
 -0.024203  0.024203  0.072608     24.000000
 -0.036304  0.036304  0.084709     24.000000
 -0.048405  0.048405  0.096811     24.000000
  0.096811 -0.096811 -0.048405     24.000000
  0.084709 -0.084709 -0.036304     24.000000
  0.072608 -0.072608 -0.024203     24.000000
  0.060507 -0.060507 -0.012101     24.000000
  0.048405 -0.048405 -0.000000     12.000000
  0.000000 -0.000000  0.072608      6.000000
 -0.012101  0.012101  0.084709     24.000000
 -0.024203  0.024203  0.096811     24.000000
 -0.036304  0.036304  0.108912     24.000000
  0.108912 -0.108912 -0.036304     24.000000
  0.096811 -0.096811 -0.024203     24.000000
  0.084709 -0.084709 -0.012101     24.000000
  0.072608 -0.072608 -0.000000     12.000000
 -0.000000 -0.000000  0.096811      6.000000
 -0.012101  0.012101  0.108912     24.000000
 -0.024203  0.024203  0.121014     24.000000
  0.121014 -0.121014 -0.024203     24.000000
  0.108912 -0.108912 -0.012101     24.000000
  0.096811 -0.096811 -0.000000     12.000000
 -0.000000 -0.000000  0.121014      6.000000
 -0.012101  0.012101  0.133115     24.000000
  0.133115 -0.133115 -0.012101     24.000000
  0.121014 -0.121014 -0.000000     12.000000
  0.000000 -0.000000  0.145216      6.000000
  0.145216 -0.145216 -0.000000     12.000000
  0.000000  0.024203  0.048405     24.000000
 -0.012101  0.036304  0.060507     48.000000
 -0.024203  0.048405  0.072608     48.000000
 -0.036304  0.060507  0.084709     48.000000
  0.108912 -0.084709 -0.060507     48.000000
  0.000000  0.024203  0.072608     24.000000
 -0.012101  0.036304  0.084709     48.000000
 -0.024203  0.048405  0.096811     48.000000
  0.121014 -0.096811 -0.048405     48.000000
  0.108912 -0.084709 -0.036304     48.000000
  0.096811 -0.072608 -0.024203     48.000000
  0.084709 -0.060507 -0.012101     48.000000
  0.072608 -0.048405  0.000000     24.000000
 -0.000000  0.024203  0.096811     24.000000
 -0.012101  0.036304  0.108912     48.000000
  0.133115 -0.108912 -0.036304     48.000000
  0.121014 -0.096811 -0.024203     48.000000
  0.108912 -0.084709 -0.012101     48.000000
  0.096811 -0.072608 -0.000000     24.000000
  0.000000  0.024203  0.121014     24.000000
  0.145216 -0.121014 -0.024203     48.000000
  0.133115 -0.108912 -0.012101     48.000000
  0.121014 -0.096811  0.000000     24.000000
  0.157318 -0.133115 -0.012101     24.000000
  0.145216 -0.121014 -0.000000     24.000000
 -0.000000  0.048405  0.096811     24.000000
  0.145216 -0.096811 -0.048405     48.000000
  0.133115 -0.084709 -0.036304     48.000000
  0.157318 -0.108912 -0.036304     24.000000
  0.145216 -0.096811 -0.024203     48.000000
  0.133115 -0.084709 -0.012101     48.000000
  0.121014 -0.072608 -0.000000     24.000000
  0.157318 -0.108912 -0.012101     24.000000
  0.145216 -0.096811  0.000000     24.000000
  0.157318 -0.084709 -0.012101     24.000000



--------------------------------------------------------------------------------------------------------




 Dimension of arrays:
   k-points           NKPTS =     84   k-points in BZ     NKDIM =     84   number of bands    NBANDS=     16
   number of dos      NEDOS =    301   number of ions     NIONS =      3
   non local maximal  LDIM  =      6   non local SUM 2l+1 LMDIM =     18
   total plane-waves  NPLWV =  64000
   max r-space proj   IRMAX =      1   max aug-charges    IRDMAX= 455758
   dimension x,y,z NGX =    40 NGY =   40 NGZ =   40
   dimension x,y,z NGXF=    80 NGYF=   80 NGZF=   80
   support grid    NGXF=   160 NGYF=  160 NGZF=  160
   ions per type =               1   1   1
   NGX,Y,Z   is equivalent  to a cutoff of  14.51, 14.51, 14.51 a.u.
   NGXF,Y,Z  is equivalent  to a cutoff of  29.02, 29.02, 29.02 a.u.

 SYSTEM =  unknown system
 POSCAR =  Hf1 Sb1 Pt1

 Startparameter for this run:
   NWRITE =      2    write-flag & timer
   PREC   = acc       normal or accurate (medium, high low for compatibility)
   ISTART =      0    job   : 0-new  1-cont  2-samecut
   ICHARG =      2    charge: 1-file 2-atom 10-const
   ISPIN  =      1    spin polarized calculation?
   LNONCOLLINEAR =      F non collinear calculations
   LSORBIT =      F    spin-orbit coupling
   INIWAV =      1    electr: 0-lowe 1-rand  2-diag
   LASPH  =      F    aspherical Exc in radial PAW
   METAGGA=      F    non-selfconsistent MetaGGA calc.

 Electronic Relaxation 1
   ENCUT  =  700.0 eV  51.45 Ry    7.17 a.u.   9.89  9.89  9.89*2*pi/ulx,y,z
   ENINI  =  700.0     initial cutoff
   ENAUG  =  380.9 eV  augmentation charge cutoff
   NELM   =     60;   NELMIN=  5; NELMDL= -5     # of ELM steps
   EDIFF  = 0.1E-06   stopping-criterion for ELM
   LREAL  =      F    real-space projection
   NLSPLINE    = F    spline interpolate recip. space projectors
   LCOMPAT=      F    compatible to vasp.4.4
   GGA_COMPAT  = T    GGA compatible to vasp.4.4-vasp.4.6
   LMAXPAW     = -100 max onsite density
   LMAXMIX     =    2 max onsite mixed and CHGCAR
   VOSKOWN=      0    Vosko Wilk Nusair interpolation
   ROPT   =    0.00000   0.00000   0.00000
 Ionic relaxation
   EDIFFG = 0.1E-05   stopping-criterion for IOM
   NSW    =      0    number of steps for IOM
   NBLOCK =      1;   KBLOCK =      1    inner block; outer block
   IBRION =     -1    ionic relax: 0-MD 1-quasi-New 2-CG
   NFREE  =      0    steps in history (QN), initial steepest desc. (CG)
   ISIF   =      3    stress and relaxation
   IWAVPR =     10    prediction:  0-non 1-charg 2-wave 3-comb
   ISYM   =      2    0-nonsym 1-usesym 2-fastsym
   LCORR  =      T    Harris-Foulkes like correction to forces

   POTIM  = 0.5000    time-step for ionic-motion
   TEIN   =    0.0    initial temperature
   TEBEG  =    0.0;   TEEND  =   0.0 temperature during run
   SMASS  =  -3.00    Nose mass-parameter (am)
   estimated Nose-frequenzy (Omega)   =  0.10E-29 period in steps = 0.13E+47 mass=  -0.480E-27a.u.
   SCALEE = 1.0000    scale energy and forces
   NPACO  =    256;   APACO  = 16.0  distance and # of slots for P.C.
   PSTRESS=    0.0 pullay stress

  Mass of Ions in am
   POMASS = 178.49121.75195.08
  Ionic Valenz
   ZVAL   =  10.00  5.00 10.00
  Atomic Wigner-Seitz radii
   RWIGS  =  -1.00 -1.00 -1.00
  virtual crystal weights
   VCA    =   1.00  1.00  1.00
   NELECT =      25.0000    total number of electrons
   NUPDOWN=      -1.0000    fix difference up-down

 DOS related values:
   EMIN   =  10.00;   EMAX   =-10.00  energy-range for DOS
   EFERMI =   0.00
   ISMEAR =     0;   SIGMA  =   0.01  broadening in eV -4-tet -1-fermi 0-gaus

 Electronic relaxation 2 (details)
   IALGO  =     38    algorithm
   LDIAG  =      T    sub-space diagonalisation (order eigenvalues)
   LSUBROT=      F    optimize rotation matrix (better conditioning)
   TURBO    =      0    0=normal 1=particle mesh
   IRESTART =      0    0=no restart 2=restart with 2 vectors
   NREBOOT  =      0    no. of reboots
   NMIN     =      0    reboot dimension
   EREF     =   0.00    reference energy to select bands
   IMIX   =      4    mixing-type and parameters
     AMIX     =   0.40;   BMIX     =  1.00
     AMIX_MAG =   1.60;   BMIX_MAG =  1.00
     AMIN     =   0.10
     WC   =   100.;   INIMIX=   1;  MIXPRE=   1;  MAXMIX= -45

 Intra band minimization:
   WEIMIN = 0.0000     energy-eigenvalue tresh-hold
   EBREAK =  0.16E-08  absolut break condition
   DEPER  =   0.30     relativ break condition

   TIME   =   0.40     timestep for ELM

  volume/ion in A,a.u.               =      22.69       153.10
  Fermi-wavevector in a.u.,A,eV,Ry     =   1.172421  2.215554 18.702167  1.374571
  Thomas-Fermi vector in A             =   2.308850

 Write flags
   LWAVE        =      F    write WAVECAR
   LDOWNSAMPLE  =      F    k-point downsampling of WAVECAR
   LCHARG       =      F    write CHGCAR
   LVTOT        =      F    write LOCPOT, total local potential
   LVHAR        =      F    write LOCPOT, Hartree potential only
   LELF         =      F    write electronic localiz. function (ELF)
   LORBIT       =      0    0 simple, 1 ext, 2 COOP (PROOUT), +10 PAW based schemes


 Dipole corrections
   LMONO  =      F    monopole corrections only (constant potential shift)
   LDIPOL =      F    correct potential (dipole corrections)
   IDIPOL =      0    1-x, 2-y, 3-z, 4-all directions
   EPSILON=  1.0000000 bulk dielectric constant

 Exchange correlation treatment:
   GGA     =    PS    GGA type
   LEXCH   =    14    internal setting for exchange type
   VOSKOWN=      0    Vosko Wilk Nusair interpolation
   LHFCALC =     F    Hartree Fock is set to
   LHFONE  =     F    Hartree Fock one center treatment
   AEXX    =    0.0000 exact exchange contribution

 Linear response parameters
   LEPSILON=     F    determine dielectric tensor
   LRPA    =     F    only Hartree local field effects (RPA)
   LNABLA  =     F    use nabla operator in PAW spheres
   LVEL    =     F    velocity operator in full k-point grid
   LINTERFAST=   F  fast interpolation
   KINTER  =     0    interpolate to denser k-point grid
   CSHIFT  =0.1000    complex shift for real part using Kramers Kronig
   OMEGAMAX=  -1.0    maximum frequency
   DEG_THRESHOLD= 0.2000000E-02 threshold for treating states as degnerate
   RTIME   =   -0.100 relaxation time in fs
  (WPLASMAI=    0.000 imaginary part of plasma frequency in eV, 0.658/RTIME)
   DFIELD  = 0.0000000 0.0000000 0.0000000 field for delta impulse in time

 Orbital magnetization related:
   ORBITALMAG=     F  switch on orbital magnetization
   LCHIMAG   =     F  perturbation theory with respect to B field
   DQ        =  0.001000  dq finite difference perturbation B field
   LLRAUG    =     F  two centre corrections for induced B field



--------------------------------------------------------------------------------------------------------


 Static calculation
 charge density and potential will be updated during run
 non-spin polarized calculation
 Variant of blocked Davidson
 Davidson routine will perform the subspace rotation
 perform sub-space diagonalisation
    after iterative eigenvector-optimisation
 modified Broyden-mixing scheme, WC =      100.0
 initial mixing is a Kerker type mixing with AMIX =  0.4000 and BMIX =      1.0000
 Hartree-type preconditioning will be used
 using additional bands            3
 reciprocal scheme for non local part
 use partial core corrections
 calculate Harris-corrections to forces
   (improved forces if not selfconsistent)
 use gradient corrections
 use of overlap-Matrix (Vanderbilt PP)
 Gauss-broadening in eV      SIGMA  =   0.01


--------------------------------------------------------------------------------------------------------


  energy-cutoff  :      700.00
  volume of cell :       68.06
      direct lattice vectors                 reciprocal lattice vectors
     0.000000000  3.240619120  3.240619120    -0.154291505  0.154291505  0.154291505
     3.240619120  0.000000000  3.240619120     0.154291505 -0.154291505  0.154291505
     3.240619120  3.240619120  0.000000000     0.154291505  0.154291505 -0.154291505

  length of vectors
     4.582927510  4.582927510  4.582927510     0.267240725  0.267240725  0.267240725



 k-points in units of 2pi/SCALE and weight: KPOINTS
   0.00000000  0.00000000  0.00000000       0.000
  -0.01210135  0.01210135  0.01210135       0.004
  -0.02420271  0.02420271  0.02420271       0.004
  -0.03630406  0.03630406  0.03630406       0.004
  -0.04840541  0.04840541  0.04840541       0.004
  -0.06050677  0.06050677  0.06050677       0.004
  -0.07260812  0.07260812  0.07260812       0.004
  -0.00000000 -0.00000000  0.02420271       0.003
  -0.01210135  0.01210135  0.03630406       0.011
  -0.02420271  0.02420271  0.04840541       0.011
  -0.03630406  0.03630406  0.06050677       0.011
  -0.04840541  0.04840541  0.07260812       0.011
  -0.06050677  0.06050677  0.08470948       0.011
   0.08470948 -0.08470948 -0.06050677       0.011
   0.07260812 -0.07260812 -0.04840541       0.011
   0.06050677 -0.06050677 -0.03630406       0.011
   0.04840541 -0.04840541 -0.02420271       0.011
   0.03630406 -0.03630406 -0.01210135       0.011
   0.02420271 -0.02420271 -0.00000000       0.005
  -0.00000000 -0.00000000  0.04840541       0.003
  -0.01210135  0.01210135  0.06050677       0.011
  -0.02420271  0.02420271  0.07260812       0.011
  -0.03630406  0.03630406  0.08470948       0.011
  -0.04840541  0.04840541  0.09681083       0.011
   0.09681083 -0.09681083 -0.04840541       0.011
   0.08470948 -0.08470948 -0.03630406       0.011
   0.07260812 -0.07260812 -0.02420271       0.011
   0.06050677 -0.06050677 -0.01210135       0.011
   0.04840541 -0.04840541 -0.00000000       0.005
   0.00000000 -0.00000000  0.07260812       0.003
  -0.01210135  0.01210135  0.08470948       0.011
  -0.02420271  0.02420271  0.09681083       0.011
  -0.03630406  0.03630406  0.10891218       0.011
   0.10891218 -0.10891218 -0.03630406       0.011
   0.09681083 -0.09681083 -0.02420271       0.011
   0.08470948 -0.08470948 -0.01210135       0.011
   0.07260812 -0.07260812 -0.00000000       0.005
  -0.00000000 -0.00000000  0.09681083       0.003
  -0.01210135  0.01210135  0.10891218       0.011
  -0.02420271  0.02420271  0.12101354       0.011
   0.12101354 -0.12101354 -0.02420271       0.011
   0.10891218 -0.10891218 -0.01210135       0.011
   0.09681083 -0.09681083 -0.00000000       0.005
  -0.00000000 -0.00000000  0.12101354       0.003
  -0.01210135  0.01210135  0.13311489       0.011
   0.13311489 -0.13311489 -0.01210135       0.011
   0.12101354 -0.12101354 -0.00000000       0.005
   0.00000000 -0.00000000  0.14521624       0.003
   0.14521624 -0.14521624 -0.00000000       0.005
   0.00000000  0.02420271  0.04840541       0.011
  -0.01210135  0.03630406  0.06050677       0.022
  -0.02420271  0.04840541  0.07260812       0.022
  -0.03630406  0.06050677  0.08470948       0.022
   0.10891218 -0.08470948 -0.06050677       0.022
   0.00000000  0.02420271  0.07260812       0.011
  -0.01210135  0.03630406  0.08470948       0.022
  -0.02420271  0.04840541  0.09681083       0.022
   0.12101354 -0.09681083 -0.04840541       0.022
   0.10891218 -0.08470948 -0.03630406       0.022
   0.09681083 -0.07260812 -0.02420271       0.022
   0.08470948 -0.06050677 -0.01210135       0.022
   0.07260812 -0.04840541  0.00000000       0.011
  -0.00000000  0.02420271  0.09681083       0.011
  -0.01210135  0.03630406  0.10891218       0.022
   0.13311489 -0.10891218 -0.03630406       0.022
   0.12101354 -0.09681083 -0.02420271       0.022
   0.10891218 -0.08470948 -0.01210135       0.022
   0.09681083 -0.07260812 -0.00000000       0.011
   0.00000000  0.02420271  0.12101354       0.011
   0.14521624 -0.12101354 -0.02420271       0.022
   0.13311489 -0.10891218 -0.01210135       0.022
   0.12101354 -0.09681083  0.00000000       0.011
   0.15731760 -0.13311489 -0.01210135       0.011
   0.14521624 -0.12101354 -0.00000000       0.011
  -0.00000000  0.04840541  0.09681083       0.011
   0.14521624 -0.09681083 -0.04840541       0.022
   0.13311489 -0.08470948 -0.03630406       0.022
   0.15731760 -0.10891218 -0.03630406       0.011
   0.14521624 -0.09681083 -0.02420271       0.022
   0.13311489 -0.08470948 -0.01210135       0.022
   0.12101354 -0.07260812 -0.00000000       0.011
   0.15731760 -0.10891218 -0.01210135       0.011
   0.14521624 -0.09681083  0.00000000       0.011
   0.15731760 -0.08470948 -0.01210135       0.011

 k-points in reciprocal lattice and weights: KPOINTS
   0.00000000  0.00000000  0.00000000       0.000
   0.07692308 -0.00000000 -0.00000000       0.004
   0.15384615 -0.00000000 -0.00000000       0.004
   0.23076923 -0.00000000  0.00000000       0.004
   0.30769231 -0.00000000 -0.00000000       0.004
   0.38461538 -0.00000000  0.00000000       0.004
   0.46153846 -0.00000000  0.00000000       0.004
   0.07692308  0.07692308 -0.00000000       0.003
   0.15384615  0.07692308 -0.00000000       0.011
   0.23076923  0.07692308 -0.00000000       0.011
   0.30769231  0.07692308 -0.00000000       0.011
   0.38461538  0.07692308 -0.00000000       0.011
   0.46153846  0.07692308 -0.00000000       0.011
  -0.46153846  0.07692308 -0.00000000       0.011
  -0.38461538  0.07692308 -0.00000000       0.011
  -0.30769231  0.07692308 -0.00000000       0.011
  -0.23076923  0.07692308  0.00000000       0.011
  -0.15384615  0.07692308 -0.00000000       0.011
  -0.07692308  0.07692308 -0.00000000       0.005
   0.15384615  0.15384615 -0.00000000       0.003
   0.23076923  0.15384615 -0.00000000       0.011
   0.30769231  0.15384615 -0.00000000       0.011
   0.38461538  0.15384615 -0.00000000       0.011
   0.46153846  0.15384615 -0.00000000       0.011
  -0.46153846  0.15384615  0.00000000       0.011
  -0.38461538  0.15384615 -0.00000000       0.011
  -0.30769231  0.15384615 -0.00000000       0.011
  -0.23076923  0.15384615 -0.00000000       0.011
  -0.15384615  0.15384615 -0.00000000       0.005
   0.23076923  0.23076923 -0.00000000       0.003
   0.30769231  0.23076923 -0.00000000       0.011
   0.38461538  0.23076923 -0.00000000       0.011
   0.46153846  0.23076923 -0.00000000       0.011
  -0.46153846  0.23076923  0.00000000       0.011
  -0.38461538  0.23076923 -0.00000000       0.011
  -0.30769231  0.23076923 -0.00000000       0.011
  -0.23076923  0.23076923 -0.00000000       0.005
   0.30769231  0.30769231 -0.00000000       0.003
   0.38461538  0.30769231 -0.00000000       0.011
   0.46153846  0.30769231 -0.00000000       0.011
  -0.46153846  0.30769231 -0.00000000       0.011
  -0.38461538  0.30769231 -0.00000000       0.011
  -0.30769231  0.30769231 -0.00000000       0.005
   0.38461538  0.38461538 -0.00000000       0.003
   0.46153846  0.38461538 -0.00000000       0.011
  -0.46153846  0.38461538  0.00000000       0.011
  -0.38461538  0.38461538 -0.00000000       0.005
   0.46153846  0.46153846 -0.00000000       0.003
  -0.46153846  0.46153846 -0.00000000       0.005
   0.23076923  0.15384615  0.07692308       0.011
   0.30769231  0.15384615  0.07692308       0.022
   0.38461538  0.15384615  0.07692308       0.022
   0.46153846  0.15384615  0.07692308       0.022
  -0.46153846  0.15384615  0.07692308       0.022
   0.30769231  0.23076923  0.07692308       0.011
   0.38461538  0.23076923  0.07692308       0.022
   0.46153846  0.23076923  0.07692308       0.022
  -0.46153846  0.23076923  0.07692308       0.022
  -0.38461538  0.23076923  0.07692308       0.022
  -0.30769231  0.23076923  0.07692308       0.022
  -0.23076923  0.23076923  0.07692308       0.022
  -0.15384615  0.23076923  0.07692308       0.011
   0.38461538  0.30769231  0.07692308       0.011
   0.46153846  0.30769231  0.07692308       0.022
  -0.46153846  0.30769231  0.07692308       0.022
  -0.38461538  0.30769231  0.07692308       0.022
  -0.30769231  0.30769231  0.07692308       0.022
  -0.23076923  0.30769231  0.07692308       0.011
   0.46153846  0.38461538  0.07692308       0.011
  -0.46153846  0.38461538  0.07692308       0.022
  -0.38461538  0.38461538  0.07692308       0.022
  -0.30769231  0.38461538  0.07692308       0.011
  -0.46153846  0.46153846  0.07692308       0.011
  -0.38461538  0.46153846  0.07692308       0.011
   0.46153846  0.30769231  0.15384615       0.011
  -0.46153846  0.30769231  0.15384615       0.022
  -0.38461538  0.30769231  0.15384615       0.022
  -0.46153846  0.38461538  0.15384615       0.011
  -0.38461538  0.38461538  0.15384615       0.022
  -0.30769231  0.38461538  0.15384615       0.022
  -0.23076923  0.38461538  0.15384615       0.011
  -0.38461538  0.46153846  0.15384615       0.011
  -0.30769231  0.46153846  0.15384615       0.011
  -0.30769231  0.46153846  0.23076923       0.011

 position of ions in fractional coordinates (direct lattice)
   0.75000000  0.75000000  0.75000000
   0.25000000  0.25000000  0.25000000
   0.00000000  0.00000000  0.00000000

 position of ions in cartesian coordinates  (Angst):
   4.86092868  4.86092868  4.86092868
   1.62030956  1.62030956  1.62030956
   0.00000000  0.00000000  0.00000000



--------------------------------------------------------------------------------------------------------


 k-point  1 :   0.0000 0.0000 0.0000  plane waves:    2837
 k-point  2 :   0.0769-0.0000-0.0000  plane waves:    2815
 k-point  3 :   0.1538-0.0000-0.0000  plane waves:    2836
 k-point  4 :   0.2308-0.0000 0.0000  plane waves:    2854
 k-point  5 :   0.3077-0.0000-0.0000  plane waves:    2866
 k-point  6 :   0.3846-0.0000 0.0000  plane waves:    2863
 k-point  7 :   0.4615-0.0000 0.0000  plane waves:    2872
 k-point  8 :   0.0769 0.0769-0.0000  plane waves:    2822
 k-point  9 :   0.1538 0.0769-0.0000  plane waves:    2827
 k-point 10 :   0.2308 0.0769-0.0000  plane waves:    2847
 k-point 11 :   0.3077 0.0769-0.0000  plane waves:    2865
 k-point 12 :   0.3846 0.0769-0.0000  plane waves:    2863
 k-point 13 :   0.4615 0.0769-0.0000  plane waves:    2865
 k-point 14 :  -0.4615 0.0769-0.0000  plane waves:    2865
 k-point 15 :  -0.3846 0.0769-0.0000  plane waves:    2867
 k-point 16 :  -0.3077 0.0769-0.0000  plane waves:    2868
 k-point 17 :  -0.2308 0.0769 0.0000  plane waves:    2861
 k-point 18 :  -0.1538 0.0769-0.0000  plane waves:    2850
 k-point 19 :  -0.0769 0.0769-0.0000  plane waves:    2824
 k-point 20 :   0.1538 0.1538-0.0000  plane waves:    2846
 k-point 21 :   0.2308 0.1538-0.0000  plane waves:    2854
 k-point 22 :   0.3077 0.1538-0.0000  plane waves:    2861
 k-point 23 :   0.3846 0.1538-0.0000  plane waves:    2875
 k-point 24 :   0.4615 0.1538-0.0000  plane waves:    2865
 k-point 25 :  -0.4615 0.1538 0.0000  plane waves:    2870
 k-point 26 :  -0.3846 0.1538-0.0000  plane waves:    2861
 k-point 27 :  -0.3077 0.1538-0.0000  plane waves:    2861
 k-point 28 :  -0.2308 0.1538-0.0000  plane waves:    2865
 k-point 29 :  -0.1538 0.1538-0.0000  plane waves:    2846
 k-point 30 :   0.2308 0.2308-0.0000  plane waves:    2866
 k-point 31 :   0.3077 0.2308-0.0000  plane waves:    2866
 k-point 32 :   0.3846 0.2308-0.0000  plane waves:    2858
 k-point 33 :   0.4615 0.2308-0.0000  plane waves:    2859
 k-point 34 :  -0.4615 0.2308 0.0000  plane waves:    2873
 k-point 35 :  -0.3846 0.2308-0.0000  plane waves:    2877
 k-point 36 :  -0.3077 0.2308-0.0000  plane waves:    2864
 k-point 37 :  -0.2308 0.2308-0.0000  plane waves:    2860
 k-point 38 :   0.3077 0.3077-0.0000  plane waves:    2866
 k-point 39 :   0.3846 0.3077-0.0000  plane waves:    2863
 k-point 40 :   0.4615 0.3077-0.0000  plane waves:    2865
 k-point 41 :  -0.4615 0.3077-0.0000  plane waves:    2869
 k-point 42 :  -0.3846 0.3077-0.0000  plane waves:    2868
 k-point 43 :  -0.3077 0.3077-0.0000  plane waves:    2866
 k-point 44 :   0.3846 0.3846-0.0000  plane waves:    2862
 k-point 45 :   0.4615 0.3846-0.0000  plane waves:    2865
 k-point 46 :  -0.4615 0.3846 0.0000  plane waves:    2869
 k-point 47 :  -0.3846 0.3846-0.0000  plane waves:    2862
 k-point 48 :   0.4615 0.4615-0.0000  plane waves:    2862
 k-point 49 :  -0.4615 0.4615-0.0000  plane waves:    2876
 k-point 50 :   0.2308 0.1538 0.0769  plane waves:    2841
 k-point 51 :   0.3077 0.1538 0.0769  plane waves:    2856
 k-point 52 :   0.3846 0.1538 0.0769  plane waves:    2869
 k-point 53 :   0.4615 0.1538 0.0769  plane waves:    2859
 k-point 54 :  -0.4615 0.1538 0.0769  plane waves:    2874
 k-point 55 :   0.3077 0.2308 0.0769  plane waves:    2855
 k-point 56 :   0.3846 0.2308 0.0769  plane waves:    2858
 k-point 57 :   0.4615 0.2308 0.0769  plane waves:    2865
 k-point 58 :  -0.4615 0.2308 0.0769  plane waves:    2857
 k-point 59 :  -0.3846 0.2308 0.0769  plane waves:    2867
 k-point 60 :  -0.3077 0.2308 0.0769  plane waves:    2860
 k-point 61 :  -0.2308 0.2308 0.0769  plane waves:    2863
 k-point 62 :  -0.1538 0.2308 0.0769  plane waves:    2854
 k-point 63 :   0.3846 0.3077 0.0769  plane waves:    2862
 k-point 64 :   0.4615 0.3077 0.0769  plane waves:    2854
 k-point 65 :  -0.4615 0.3077 0.0769  plane waves:    2864
 k-point 66 :  -0.3846 0.3077 0.0769  plane waves:    2873
 k-point 67 :  -0.3077 0.3077 0.0769  plane waves:    2864
 k-point 68 :  -0.2308 0.3077 0.0769  plane waves:    2870
 k-point 69 :   0.4615 0.3846 0.0769  plane waves:    2857
 k-point 70 :  -0.4615 0.3846 0.0769  plane waves:    2871
 k-point 71 :  -0.3846 0.3846 0.0769  plane waves:    2865
 k-point 72 :  -0.3077 0.3846 0.0769  plane waves:    2858
 k-point 73 :  -0.4615 0.4615 0.0769  plane waves:    2862
 k-point 74 :  -0.3846 0.4615 0.0769  plane waves:    2869
 k-point 75 :   0.4615 0.3077 0.1538  plane waves:    2867
 k-point 76 :  -0.4615 0.3077 0.1538  plane waves:    2859
 k-point 77 :  -0.3846 0.3077 0.1538  plane waves:    2868
 k-point 78 :  -0.4615 0.3846 0.1538  plane waves:    2874
 k-point 79 :  -0.3846 0.3846 0.1538  plane waves:    2870
 k-point 80 :  -0.3077 0.3846 0.1538  plane waves:    2873
 k-point 81 :  -0.2308 0.3846 0.1538  plane waves:    2868
 k-point 82 :  -0.3846 0.4615 0.1538  plane waves:    2872
 k-point 83 :  -0.3077 0.4615 0.1538  plane waves:    2857
 k-point 84 :  -0.3077 0.4615 0.2308  plane waves:    2856

 maximum and minimum number of plane-waves per node :       732      690

 maximum number of plane-waves:      2877
 maximum index in each direction:
   IXMAX=   10   IYMAX=    9   IZMAX=    9
   IXMIN=  -10   IYMIN=  -10   IZMIN=  -10


 parallel 3D FFT for wavefunctions:
    minimum data exchange during FFTs selected (reduces bandwidth)
 parallel 3D FFT for charge:
    minimum data exchange during FFTs selected (reduces bandwidth)


 total amount of memory used by VASP MPI-rank0    68591. kBytes
=======================================================================

   base      :      30000. kBytes
   nonl-proj :      26597. kBytes
   fftplans  :       5205. kBytes
   grid      :       2732. kBytes
   one-center:         15. kBytes
   wavefun   :       4042. kBytes

     INWAV:  cpu time    0.0002: real time    0.0750
 Broyden mixing: mesh for mixing (old mesh)
   NGX = 19   NGY = 19   NGZ = 19
  (NGX  = 80   NGY  = 80   NGZ  = 80)
  gives a total of   6859 points

 initial charge density was supplied:
 charge density of overlapping atoms calculated
 number of electron      25.0000000 magnetization
 keeping initial charge density in first step


--------------------------------------------------------------------------------------------------------


 Maximum index for augmentation-charges        27639 (set IRDMAX)


--------------------------------------------------------------------------------------------------------


 First call to EWALD:  gamma=   0.434
 Maximum number of real-space cells 3x 3x 3
 Maximum number of reciprocal cells 3x 3x 3

    FEWALD:  cpu time    0.0054: real time    0.0057


--------------------------------------- Iteration      1(   1)  ---------------------------------------


    POTLOK:  cpu time    0.0504: real time    0.1105
    SETDIJ:  cpu time    0.0727: real time    0.0728
     EDDAV:  cpu time    0.9232: real time    0.9264
       DOS:  cpu time    0.0038: real time    0.0046
    --------------------------------------------
      LOOP:  cpu time    1.0504: real time    1.1152

 eigenvalue-minimisations  :  2704
 total energy-change (2. order) : 0.1389741E+03  (-0.1418813E+04)
 number of electron      25.0000000 magnetization
 augmentation part       25.0000000 magnetization

 Free energy of the ion-electron system (eV)
  ---------------------------------------------------
  alpha Z        PSCENC =       100.09415357
  Ewald energy   TEWEN  =     -1534.29310292
  -Hartree energ DENC   =      -334.69094678
  -exchange      EXHF   =         0.00000000
  -V(xc)+E(xc)   XCENC  =       -19.47101305
  PAW double counting   =      1514.36848356    -1421.27055995
  entropy T*S    EENTRO =        -0.00018377
  eigenvalues    EBANDS =        93.13279688
  atomic energy  EATOM  =      1741.10451121
  Solvation  Ediel_sol  =         0.00000000
  ---------------------------------------------------
  free energy    TOTEN  =       138.97413876 eV

  energy without entropy =      138.97432253  energy(sigma->0) =      138.97423064


--------------------------------------------------------------------------------------------------------




--------------------------------------- Iteration      1(   2)  ---------------------------------------


     EDDAV:  cpu time    1.0798: real time    1.1018
       DOS:  cpu time    0.0027: real time    0.0029
    --------------------------------------------
      LOOP:  cpu time    1.0827: real time    1.1072

 eigenvalue-minimisations  :  3360
 total energy-change (2. order) :-0.1588433E+03  (-0.1573111E+03)
 number of electron      25.0000000 magnetization
 augmentation part       25.0000000 magnetization

 Free energy of the ion-electron system (eV)
  ---------------------------------------------------
  alpha Z        PSCENC =       100.09415357
  Ewald energy   TEWEN  =     -1534.29310292
  -Hartree energ DENC   =      -334.69094678
  -exchange      EXHF   =         0.00000000
  -V(xc)+E(xc)   XCENC  =       -19.47101305
  PAW double counting   =      1514.36848356    -1421.27055995
  entropy T*S    EENTRO =        -0.00008363
  eigenvalues    EBANDS =       -65.71057945
  atomic energy  EATOM  =      1741.10451121
  Solvation  Ediel_sol  =         0.00000000
  ---------------------------------------------------
  free energy    TOTEN  =       -19.86913743 eV

  energy without entropy =      -19.86905380  energy(sigma->0) =      -19.86909562


--------------------------------------------------------------------------------------------------------




--------------------------------------- Iteration      1(   3)  ---------------------------------------


     EDDAV:  cpu time    1.1870: real time    1.2092
       DOS:  cpu time    0.0024: real time    0.0026
    --------------------------------------------
      LOOP:  cpu time    1.1894: real time    1.2126

 eigenvalue-minimisations  :  3664
 total energy-change (2. order) :-0.5066105E+01  (-0.4988094E+01)
 number of electron      25.0000000 magnetization
 augmentation part       25.0000000 magnetization

 Free energy of the ion-electron system (eV)
  ---------------------------------------------------
  alpha Z        PSCENC =       100.09415357
  Ewald energy   TEWEN  =     -1534.29310292
  -Hartree energ DENC   =      -334.69094678
  -exchange      EXHF   =         0.00000000
  -V(xc)+E(xc)   XCENC  =       -19.47101305
  PAW double counting   =      1514.36848356    -1421.27055995
  entropy T*S    EENTRO =        -0.00007999
  eigenvalues    EBANDS =       -70.77668804
  atomic energy  EATOM  =      1741.10451121
  Solvation  Ediel_sol  =         0.00000000
  ---------------------------------------------------
  free energy    TOTEN  =       -24.93524238 eV

  energy without entropy =      -24.93516239  energy(sigma->0) =      -24.93520239


--------------------------------------------------------------------------------------------------------




--------------------------------------- Iteration      1(   4)  ---------------------------------------


     EDDAV:  cpu time    1.0538: real time    1.0854
       DOS:  cpu time    0.0026: real time    0.0029
    --------------------------------------------
      LOOP:  cpu time    1.0564: real time    1.0871

 eigenvalue-minimisations  :  3264
 total energy-change (2. order) :-0.7327968E-01  (-0.7321119E-01)
 number of electron      25.0000000 magnetization
 augmentation part       25.0000000 magnetization

 Free energy of the ion-electron system (eV)
  ---------------------------------------------------
  alpha Z        PSCENC =       100.09415357
  Ewald energy   TEWEN  =     -1534.29310292
  -Hartree energ DENC   =      -334.69094678
  -exchange      EXHF   =         0.00000000
  -V(xc)+E(xc)   XCENC  =       -19.47101305
  PAW double counting   =      1514.36848356    -1421.27055995
  entropy T*S    EENTRO =        -0.00012904
  eigenvalues    EBANDS =       -70.84991867
  atomic energy  EATOM  =      1741.10451121
  Solvation  Ediel_sol  =         0.00000000
  ---------------------------------------------------
  free energy    TOTEN  =       -25.00852206 eV

  energy without entropy =      -25.00839302  energy(sigma->0) =      -25.00845754


--------------------------------------------------------------------------------------------------------




--------------------------------------- Iteration      1(   5)  ---------------------------------------


     EDDAV:  cpu time    1.1616: real time    1.2190
       DOS:  cpu time    0.0027: real time    0.0030
    CHARGE:  cpu time    0.2265: real time    0.2269
    MIXING:  cpu time    0.0048: real time    0.0056
    --------------------------------------------
      LOOP:  cpu time    1.3956: real time    1.4543

 eigenvalue-minimisations  :  3736
 total energy-change (2. order) :-0.1641586E-02  (-0.1641161E-02)
 number of electron      25.0000000 magnetization
 augmentation part        4.7670235 magnetization

 Broyden mixing:
  rms(total) = 0.38675E+01    rms(broyden)= 0.38675E+01
  rms(prec ) = 0.41027E+01
  weight for this iteration     100.00

 Free energy of the ion-electron system (eV)
  ---------------------------------------------------
  alpha Z        PSCENC =       100.09415357
  Ewald energy   TEWEN  =     -1534.29310292
  -Hartree energ DENC   =      -334.69094678
  -exchange      EXHF   =         0.00000000
  -V(xc)+E(xc)   XCENC  =       -19.47101305
  PAW double counting   =      1514.36848356    -1421.27055995
  entropy T*S    EENTRO =        -0.00012910
  eigenvalues    EBANDS =       -70.85156019
  atomic energy  EATOM  =      1741.10451121
  Solvation  Ediel_sol  =         0.00000000
  ---------------------------------------------------
  free energy    TOTEN  =       -25.01016365 eV

  energy without entropy =      -25.01003455  energy(sigma->0) =      -25.01009910


--------------------------------------------------------------------------------------------------------




--------------------------------------- Iteration      1(   6)  ---------------------------------------


    POTLOK:  cpu time    0.0535: real time    0.0769
    SETDIJ:  cpu time    0.0792: real time    0.0792
     EDDAV:  cpu time    1.1025: real time    1.1028
       DOS:  cpu time    0.0027: real time    0.0029
    CHARGE:  cpu time    0.1838: real time    0.1850
    MIXING:  cpu time    0.0062: real time    0.0063
    --------------------------------------------
      LOOP:  cpu time    1.4279: real time    1.4522

 eigenvalue-minimisations  :  3504
 total energy-change (2. order) : 0.8648465E+00  (-0.1965031E+00)
 number of electron      25.0000000 magnetization
 augmentation part        4.9309053 magnetization

 Broyden mixing:
  rms(total) = 0.24117E+01    rms(broyden)= 0.24117E+01
  rms(prec ) = 0.24759E+01
  weight for this iteration     100.00

 eigenvalues of (default mixing * dielectric matrix)
  average eigenvalue GAMMA=   2.5740
  2.5740

 Free energy of the ion-electron system (eV)
  ---------------------------------------------------
  alpha Z        PSCENC =       100.09415357
  Ewald energy   TEWEN  =     -1534.29310292
  -Hartree energ DENC   =      -319.55042691
  -exchange      EXHF   =         0.00000000
  -V(xc)+E(xc)   XCENC  =       -20.00191104
  PAW double counting   =      1873.14057650    -1782.41565617
  entropy T*S    EENTRO =        -0.00027312
  eigenvalues    EBANDS =       -82.22318826
  atomic energy  EATOM  =      1741.10451121
  Solvation  Ediel_sol  =         0.00000000
  ---------------------------------------------------
  free energy    TOTEN  =       -24.14531713 eV

  energy without entropy =      -24.14504400  energy(sigma->0) =      -24.14518056


--------------------------------------------------------------------------------------------------------




--------------------------------------- Iteration      1(   7)  ---------------------------------------


    POTLOK:  cpu time    0.0503: real time    0.0674
    SETDIJ:  cpu time    0.0696: real time    0.0699
     EDDAV:  cpu time    1.1665: real time    1.1667
       DOS:  cpu time    0.0025: real time    0.0049
    CHARGE:  cpu time    0.1637: real time    0.1638
    MIXING:  cpu time    0.0044: real time    0.0045
    --------------------------------------------
      LOOP:  cpu time    1.4572: real time    1.4778

 eigenvalue-minimisations  :  3816
 total energy-change (2. order) : 0.1409745E+00  (-0.1110966E+00)
 number of electron      25.0000000 magnetization
 augmentation part        4.9977724 magnetization

 Broyden mixing:
  rms(total) = 0.33124E+00    rms(broyden)= 0.33124E+00
  rms(prec ) = 0.43674E+00
  weight for this iteration     100.00

 eigenvalues of (default mixing * dielectric matrix)
  average eigenvalue GAMMA=   1.9194
  1.2886  2.5503

 Free energy of the ion-electron system (eV)
  ---------------------------------------------------
  alpha Z        PSCENC =       100.09415357
  Ewald energy   TEWEN  =     -1534.29310292
  -Hartree energ DENC   =      -309.93976763
  -exchange      EXHF   =         0.00000000
  -V(xc)+E(xc)   XCENC  =       -20.27773633
  PAW double counting   =      2386.46518022    -2298.53489380
  entropy T*S    EENTRO =        -0.00018747
  eigenvalues    EBANDS =       -88.62249948
  atomic energy  EATOM  =      1741.10451121
  Solvation  Ediel_sol  =         0.00000000
  ---------------------------------------------------
  free energy    TOTEN  =       -24.00434264 eV

  energy without entropy =      -24.00415516  energy(sigma->0) =      -24.00424890


--------------------------------------------------------------------------------------------------------




--------------------------------------- Iteration      1(   8)  ---------------------------------------


    POTLOK:  cpu time    0.0481: real time    0.0728
    SETDIJ:  cpu time    0.0689: real time    0.0692
     EDDAV:  cpu time    1.0750: real time    1.0751
       DOS:  cpu time    0.0025: real time    0.0029
    CHARGE:  cpu time    0.2001: real time    0.2002
    MIXING:  cpu time    0.0044: real time    0.0045
    --------------------------------------------
      LOOP:  cpu time    1.3991: real time    1.4236

 eigenvalue-minimisations  :  3368
 total energy-change (2. order) : 0.2247750E-01  (-0.4273552E-01)
 number of electron      25.0000000 magnetization
 augmentation part        5.0280664 magnetization

 Broyden mixing:
  rms(total) = 0.93894E-01    rms(broyden)= 0.93894E-01
  rms(prec ) = 0.22518E+00
  weight for this iteration     100.00

 eigenvalues of (default mixing * dielectric matrix)
  average eigenvalue GAMMA=   1.4934
  2.4409  1.4090  0.6305

 Free energy of the ion-electron system (eV)
  ---------------------------------------------------
  alpha Z        PSCENC =       100.09415357
  Ewald energy   TEWEN  =     -1534.29310292
  -Hartree energ DENC   =      -311.39730262
  -exchange      EXHF   =         0.00000000
  -V(xc)+E(xc)   XCENC  =       -20.19917981
  PAW double counting   =      2413.68238760    -2325.79018692
  entropy T*S    EENTRO =        -0.00028074
  eigenvalues    EBANDS =       -87.18286451
  atomic energy  EATOM  =      1741.10451121
  Solvation  Ediel_sol  =         0.00000000
  ---------------------------------------------------
  free energy    TOTEN  =       -23.98186513 eV

  energy without entropy =      -23.98158439  energy(sigma->0) =      -23.98172476


--------------------------------------------------------------------------------------------------------




--------------------------------------- Iteration      1(   9)  ---------------------------------------


    POTLOK:  cpu time    0.0313: real time    0.0790
    SETDIJ:  cpu time    0.0703: real time    0.0705
     EDDAV:  cpu time    1.0165: real time    1.0174
       DOS:  cpu time    0.0027: real time    0.0029
    CHARGE:  cpu time    0.1622: real time    0.1624
    MIXING:  cpu time    0.0051: real time    0.0052
    --------------------------------------------
      LOOP:  cpu time    1.2880: real time    1.3384

 eigenvalue-minimisations  :  3064
 total energy-change (2. order) : 0.1160379E-01  (-0.6563748E-02)
 number of electron      25.0000000 magnetization
 augmentation part        4.9939055 magnetization

 Broyden mixing:
  rms(total) = 0.26075E-01    rms(broyden)= 0.26075E-01
  rms(prec ) = 0.47652E-01
  weight for this iteration     100.00

 eigenvalues of (default mixing * dielectric matrix)
  average eigenvalue GAMMA=   1.4283
  2.4166  1.3355  1.3355  0.6254

 Free energy of the ion-electron system (eV)
  ---------------------------------------------------
  alpha Z        PSCENC =       100.09415357
  Ewald energy   TEWEN  =     -1534.29310292
  -Hartree energ DENC   =      -312.48599682
  -exchange      EXHF   =         0.00000000
  -V(xc)+E(xc)   XCENC  =       -20.16276031
  PAW double counting   =      2409.07381664    -2321.11019016
  entropy T*S    EENTRO =        -0.00040706
  eigenvalues    EBANDS =       -86.19028550
  atomic energy  EATOM  =      1741.10451121
  Solvation  Ediel_sol  =         0.00000000
  ---------------------------------------------------
  free energy    TOTEN  =       -23.97026134 eV

  energy without entropy =      -23.96985428  energy(sigma->0) =      -23.97005781


--------------------------------------------------------------------------------------------------------




--------------------------------------- Iteration      1(  10)  ---------------------------------------


    POTLOK:  cpu time    0.0466: real time    0.0666
    SETDIJ:  cpu time    0.0702: real time    0.0703
     EDDAV:  cpu time    1.1563: real time    1.1565
       DOS:  cpu time    0.0032: real time    0.0034
    CHARGE:  cpu time    0.1613: real time    0.1614
    MIXING:  cpu time    0.0052: real time    0.0052
    --------------------------------------------
      LOOP:  cpu time    1.4427: real time    1.4644

 eigenvalue-minimisations  :  3672
 total energy-change (2. order) : 0.5758575E-04  (-0.1037212E-02)
 number of electron      25.0000000 magnetization
 augmentation part        4.9904725 magnetization

 Broyden mixing:
  rms(total) = 0.27642E-01    rms(broyden)= 0.27642E-01
  rms(prec ) = 0.36145E-01
  weight for this iteration     100.00

 eigenvalues of (default mixing * dielectric matrix)
  average eigenvalue GAMMA=   1.3695
  2.4992  1.7695  1.1151  0.7318  0.7318

 Free energy of the ion-electron system (eV)
  ---------------------------------------------------
  alpha Z        PSCENC =       100.09415357
  Ewald energy   TEWEN  =     -1534.29310292
  -Hartree energ DENC   =      -312.33815574
  -exchange      EXHF   =         0.00000000
  -V(xc)+E(xc)   XCENC  =       -20.16669825
  PAW double counting   =      2420.01960860    -2332.01106310
  entropy T*S    EENTRO =        -0.00042923
  eigenvalues    EBANDS =       -86.37902790
  atomic energy  EATOM  =      1741.10451121
  Solvation  Ediel_sol  =         0.00000000
  ---------------------------------------------------
  free energy    TOTEN  =       -23.97020375 eV

  energy without entropy =      -23.96977452  energy(sigma->0) =      -23.96998914


--------------------------------------------------------------------------------------------------------




--------------------------------------- Iteration      1(  11)  ---------------------------------------


    POTLOK:  cpu time    0.0334: real time    0.0683
    SETDIJ:  cpu time    0.0691: real time    0.0692
     EDDAV:  cpu time    1.0845: real time    1.0847
       DOS:  cpu time    0.0027: real time    0.0028
    CHARGE:  cpu time    0.1627: real time    0.1629
    MIXING:  cpu time    0.0049: real time    0.0050
    --------------------------------------------
      LOOP:  cpu time    1.3573: real time    1.3935

 eigenvalue-minimisations  :  3392
 total energy-change (2. order) : 0.1743843E-03  (-0.9214295E-04)
 number of electron      25.0000000 magnetization
 augmentation part        4.9926054 magnetization

 Broyden mixing:
  rms(total) = 0.49088E-02    rms(broyden)= 0.49088E-02
  rms(prec ) = 0.65250E-02
  weight for this iteration     100.00

 eigenvalues of (default mixing * dielectric matrix)
  average eigenvalue GAMMA=   1.4296
  2.5732  2.2321  1.1746  0.9609  0.9609  0.6758

 Free energy of the ion-electron system (eV)
  ---------------------------------------------------
  alpha Z        PSCENC =       100.09415357
  Ewald energy   TEWEN  =     -1534.29310292
  -Hartree energ DENC   =      -312.45087341
  -exchange      EXHF   =         0.00000000
  -V(xc)+E(xc)   XCENC  =       -20.16025058
  PAW double counting   =      2423.28018302    -2335.25175700
  entropy T*S    EENTRO =        -0.00042011
  eigenvalues    EBANDS =       -86.29247315
  atomic energy  EATOM  =      1741.10451121
  Solvation  Ediel_sol  =         0.00000000
  ---------------------------------------------------
  free energy    TOTEN  =       -23.97002937 eV

  energy without entropy =      -23.96960926  energy(sigma->0) =      -23.96981932


--------------------------------------------------------------------------------------------------------




--------------------------------------- Iteration      1(  12)  ---------------------------------------


    POTLOK:  cpu time    0.0383: real time    0.0652
    SETDIJ:  cpu time    0.0698: real time    0.0699
     EDDAV:  cpu time    1.1573: real time    1.1577
       DOS:  cpu time    0.0026: real time    0.0029
    CHARGE:  cpu time    0.1622: real time    0.1622
    MIXING:  cpu time    0.0056: real time    0.0057
    --------------------------------------------
      LOOP:  cpu time    1.4359: real time    1.4645

 eigenvalue-minimisations  :  3704
 total energy-change (2. order) : 0.2236016E-05  (-0.7933203E-05)
 number of electron      25.0000000 magnetization
 augmentation part        4.9924017 magnetization

 Broyden mixing:
  rms(total) = 0.13974E-02    rms(broyden)= 0.13974E-02
  rms(prec ) = 0.15639E-02
  weight for this iteration     100.00

 eigenvalues of (default mixing * dielectric matrix)
  average eigenvalue GAMMA=   1.4640
  2.3430  2.3430  1.9116  1.0362  1.0362  0.8907  0.6874

 Free energy of the ion-electron system (eV)
  ---------------------------------------------------
  alpha Z        PSCENC =       100.09415357
  Ewald energy   TEWEN  =     -1534.29310292
  -Hartree energ DENC   =      -312.51610441
  -exchange      EXHF   =         0.00000000
  -V(xc)+E(xc)   XCENC  =       -20.15730975
  PAW double counting   =      2423.43769271    -2335.39177745
  entropy T*S    EENTRO =        -0.00041860
  eigenvalues    EBANDS =       -86.24767150
  atomic energy  EATOM  =      1741.10451121
  Solvation  Ediel_sol  =         0.00000000
  ---------------------------------------------------
  free energy    TOTEN  =       -23.97002713 eV

  energy without entropy =      -23.96960853  energy(sigma->0) =      -23.96981783


--------------------------------------------------------------------------------------------------------




--------------------------------------- Iteration      1(  13)  ---------------------------------------


    POTLOK:  cpu time    0.0319: real time    0.0671
    SETDIJ:  cpu time    0.0682: real time    0.0683
     EDDAV:  cpu time    1.0052: real time    1.0053
       DOS:  cpu time    0.0026: real time    0.0028
    CHARGE:  cpu time    0.1632: real time    0.1633
    MIXING:  cpu time    0.0054: real time    0.0055
    --------------------------------------------
      LOOP:  cpu time    1.2765: real time    1.3097

 eigenvalue-minimisations  :  3104
 total energy-change (2. order) : 0.1286611E-05  (-0.3642923E-06)
 number of electron      25.0000000 magnetization
 augmentation part        4.9924458 magnetization

 Broyden mixing:
  rms(total) = 0.80802E-03    rms(broyden)= 0.80802E-03
  rms(prec ) = 0.89486E-03
  weight for this iteration     100.00

 eigenvalues of (default mixing * dielectric matrix)
  average eigenvalue GAMMA=   1.4789
  2.5746  2.5746  1.9512  0.6859  1.1634  0.9753  0.9532  0.9532

 Free energy of the ion-electron system (eV)
  ---------------------------------------------------
  alpha Z        PSCENC =       100.09415357
  Ewald energy   TEWEN  =     -1534.29310292
  -Hartree energ DENC   =      -312.50554816
  -exchange      EXHF   =         0.00000000
  -V(xc)+E(xc)   XCENC  =       -20.15778067
  PAW double counting   =      2423.47725231    -2335.42803779
  entropy T*S    EENTRO =        -0.00041888
  eigenvalues    EBANDS =       -86.26105453
  atomic energy  EATOM  =      1741.10451121
  Solvation  Ediel_sol  =         0.00000000
  ---------------------------------------------------
  free energy    TOTEN  =       -23.97002585 eV

  energy without entropy =      -23.96960696  energy(sigma->0) =      -23.96981641


--------------------------------------------------------------------------------------------------------




--------------------------------------- Iteration      1(  14)  ---------------------------------------


    POTLOK:  cpu time    0.0312: real time    0.0922
    SETDIJ:  cpu time    0.0701: real time    0.0702
     EDDAV:  cpu time    0.9626: real time    0.9628
       DOS:  cpu time    0.0025: real time    0.0028
    --------------------------------------------
      LOOP:  cpu time    1.0664: real time    1.1264

 eigenvalue-minimisations  :  2848
 total energy-change (2. order) :-0.1389185E-07  (-0.1860086E-07)
 number of electron      25.0000000 magnetization
 augmentation part        4.9924458 magnetization

 Free energy of the ion-electron system (eV)
  ---------------------------------------------------
  alpha Z        PSCENC =       100.09415357
  Ewald energy   TEWEN  =     -1534.29310292
  -Hartree energ DENC   =      -312.51122128
  -exchange      EXHF   =         0.00000000
  -V(xc)+E(xc)   XCENC  =       -20.15744729
  PAW double counting   =      2423.75691351    -2335.70512671
  entropy T*S    EENTRO =        -0.00041887
  eigenvalues    EBANDS =       -86.25828709
  atomic energy  EATOM  =      1741.10451121
  Solvation  Ediel_sol  =         0.00000000
  ---------------------------------------------------
  free energy    TOTEN  =       -23.97002586 eV

  energy without entropy =      -23.96960699  energy(sigma->0) =      -23.96981642


--------------------------------------------------------------------------------------------------------




 average (electrostatic) potential at core
  the test charge radii are     1.1707  1.1712  1.2059
  (the norm of the test charge is              1.0000)
       1 -35.6775       2 -85.2868       3 -66.9243



 E-fermi :   8.2350     XC(G=0): -11.0695     alpha+bet :-12.8613


 k-point     1 :       0.0000    0.0000    0.0000
  band No.  band energies     occupation
      1     -24.1290      2.00000
      2     -24.1290      2.00000
      3     -24.1290      2.00000
      4      -4.1366      2.00000
      5       2.5082      2.00000
      6       2.5082      2.00000
      7       2.5082      2.00000
      8       3.3183      2.00000
      9       3.3183      2.00000
     10       6.7109      2.00000
     11       6.7109      2.00000
     12       6.7109      2.00000
     13       6.9176      2.00000
     14       9.0492      0.00000
     15       9.0492      0.00000
     16       9.0492      0.00000

 k-point     2 :       0.0769   -0.0000   -0.0000
  band No.  band energies     occupation
      1     -24.1298      2.00000
      2     -24.1290      2.00000
      3     -24.1290      2.00000
      4      -4.0771      2.00000
      5       2.4262      2.00000
      6       2.4864      2.00000
      7       2.4864      2.00000
      8       3.3520      2.00000
      9       3.3520      2.00000
     10       6.0910      2.00000
     11       6.6446      2.00000
     12       6.6446      2.00000
     13       7.2733      2.00000
     14       8.8946      0.00000
     15       8.8946      0.00000
     16       9.3862      0.00000

 k-point     3 :       0.1538   -0.0000   -0.0000
  band No.  band energies     occupation
      1     -24.1319      2.00000
      2     -24.1289      2.00000
      3     -24.1289      2.00000
      4      -3.9047      2.00000
      5       2.2000      2.00000
      6       2.4393      2.00000
      7       2.4393      2.00000
      8       3.4286      2.00000
      9       3.4286      2.00000
     10       5.2871      2.00000
     11       6.4784      2.00000
     12       6.4784      2.00000
     13       7.5381      2.00000
     14       8.8065      0.00000
     15       8.8065      0.00000
     16      10.1511      0.00000

 k-point     4 :       0.2308   -0.0000    0.0000
  band No.  band energies     occupation
      1     -24.1349      2.00000
      2     -24.1288      2.00000
      3     -24.1288      2.00000
      4      -3.6392      2.00000
      5       1.8719      2.00000
      6       2.3966      2.00000
      7       2.3966      2.00000
      8       3.5024      2.00000
      9       3.5024      2.00000
     10       4.5575      2.00000
     11       6.2832      2.00000
     12       6.2832      2.00000
     13       7.7477      2.00000
     14       8.8441      0.00000
     15       8.8441      0.00000
     16      10.7556      0.00000

 k-point     5 :       0.3077   -0.0000   -0.0000
  band No.  band energies     occupation
      1     -24.1381      2.00000
      2     -24.1288      2.00000
      3     -24.1288      2.00000
      4      -3.3189      2.00000
      5       1.4894      2.00000
      6       2.3740      2.00000
      7       2.3740      2.00000
      8       3.5416      2.00000
      9       3.5416      2.00000
     10       3.9949      2.00000
     11       6.1203      2.00000
     12       6.1203      2.00000
     13       7.9367      2.00000
     14       8.9741      0.00000
     15       8.9741      0.00000
     16      10.3406      0.00000

 k-point     6 :       0.3846   -0.0000    0.0000
  band No.  band energies     occupation
      1     -24.1407      2.00000
      2     -24.1287      2.00000
      3     -24.1287      2.00000
      4      -3.0090      2.00000
      5       1.1245      2.00000
      6       2.3707      2.00000
      7       2.3707      2.00000
      8       3.5435      2.00000
      9       3.5435      2.00000
     10       3.6316      2.00000
     11       6.0171      2.00000
     12       6.0171      2.00000
     13       8.1215      2.00000
     14       9.1475      0.00000
     15       9.1475      0.00000
     16       9.6508      0.00000

 k-point     7 :       0.4615   -0.0000    0.0000
  band No.  band energies     occupation
      1     -24.1422      2.00000
      2     -24.1287      2.00000
      3     -24.1287      2.00000
      4      -2.8073      2.00000
      5       0.8890      2.00000
      6       2.3751      2.00000
      7       2.3751      2.00000
      8       3.4584      2.00000
      9       3.5317      2.00000
     10       3.5317      2.00000
     11       5.9708      2.00000
     12       5.9708      2.00000
     13       8.2881      0.00000
     14       9.1907      0.00000
     15       9.2821      0.00000
     16       9.2821      0.00000

 k-point     8 :       0.0769    0.0769   -0.0000
  band No.  band energies     occupation
      1     -24.1297      2.00000
      2     -24.1291      2.00000
      3     -24.1291      2.00000
      4      -4.0576      2.00000
      5       2.3015      2.00000
      6       2.5371      2.00000
      7       2.5371      2.00000
      8       3.3490      2.00000
      9       3.3633      2.00000
     10       6.1064      2.00000
     11       6.5200      2.00000
     12       6.5200      2.00000
     13       7.3785      2.00000
     14       8.7439      0.00000
     15       9.3172      0.00000
     16       9.3173      0.00000

 k-point     9 :       0.1538    0.0769   -0.0000
  band No.  band energies     occupation
      1     -24.1313      2.00000
      2     -24.1292      2.00000
      3     -24.1290      2.00000
      4      -3.9239      2.00000
      5       2.0934      2.00000
      6       2.5166      2.00000
      7       2.5440      2.00000
      8       3.4059      2.00000
      9       3.4106      2.00000
     10       5.5136      2.00000
     11       6.3322      2.00000
     12       6.3809      2.00000
     13       7.6417      2.00000
     14       8.6112      0.00000
     15       9.0509      0.00000
     16       9.7594      0.00000

 k-point    10 :       0.2308    0.0769   -0.0000
  band No.  band energies     occupation
      1     -24.1340      2.00000
      2     -24.1292      2.00000
      3     -24.1290      2.00000
      4      -3.6912      2.00000
      5       1.8392      2.00000
      6       2.4374      2.00000
      7       2.5231      2.00000
      8       3.4771      2.00000
      9       3.4828      2.00000
     10       4.7965      2.00000
     11       6.1473      2.00000
     12       6.2040      2.00000
     13       7.9207      2.00000
     14       8.6236      0.00000
     15       8.9530      0.00000
     16      10.2842      0.00000

 k-point    11 :       0.3077    0.0769   -0.0000
  band No.  band energies     occupation
      1     -24.1371      2.00000
      2     -24.1291      2.00000
      3     -24.1290      2.00000
      4      -3.3912      2.00000
      5       1.5382      2.00000
      6       2.3650      2.00000
      7       2.4959      2.00000
      8       3.5294      2.00000
      9       3.5343      2.00000
     10       4.1822      2.00000
     11       6.0092      2.00000
     12       6.0309      2.00000
     13       8.0637      2.00000
     14       8.8577      0.00000
     15       8.9765      0.00000
     16      10.4061      0.00000

 k-point    12 :       0.3846    0.0769   -0.0000
  band No.  band energies     occupation
      1     -24.1398      2.00000
      2     -24.1290      2.00000
      3     -24.1290      2.00000
      4      -3.0789      2.00000
      5       1.2216      2.00000
      6       2.3318      2.00000
      7       2.4683      2.00000
      8       3.5414      2.00000
      9       3.5478      2.00000
     10       3.7552      2.00000
     11       5.9003      2.00000
     12       5.9321      2.00000
     13       8.1605      2.00000
     14       9.0986      0.00000
     15       9.1548      0.00000
     16       9.8185      0.00000

 k-point    13 :       0.4615    0.0769   -0.0000
  band No.  band energies     occupation
      1     -24.1416      2.00000
      2     -24.1291      2.00000
      3     -24.1289      2.00000
      4      -2.8393      2.00000
      5       0.9730      2.00000
      6       2.3392      2.00000
      7       2.4336      2.00000
      8       3.4660      2.00000
      9       3.5457      2.00000
     10       3.5831      2.00000
     11       5.8208      2.00000
     12       5.9063      2.00000
     13       8.2912      0.00000
     14       9.1912      0.00000
     15       9.2497      0.00000
     16       9.4768      0.00000

 k-point    14 :      -0.4615    0.0769   -0.0000
  band No.  band energies     occupation
      1     -24.1420      2.00000
      2     -24.1293      2.00000
      3     -24.1287      2.00000
      4      -2.7692      2.00000
      5       0.9004      2.00000
      6       2.3752      2.00000
      7       2.3870      2.00000
      8       3.4149      2.00000
[...]
  212              fftbas_plan_mpi                       0.061178                     12   6
  213                dfftw_execute                         0.025557                   36   7
  214                map_backward                          0.004069                   12   7
  215                  map_gather                            0.000682                  6   8
  216                  m_alltoallv_z                         0.001987                  6   8
  217                  map_scatter                           0.001111                  6   8
  218                map_forward                           0.028291                   12   7
  219                  map_gather                            0.015995                  6   8
  220                  m_alltoallv_z                         0.005463                  6   8
  221                  map_scatter                           0.006516                  6   8
  222            M_sumb_d                              0.002205                        6   5
  223          M_sumb_d                              0.000028                          1   4
  224        setdij_                               1.192734                           20   3
  225          fft3d_mpi                             0.220618                         40   4
  226            fftbas_plan_mpi                       0.201540                       40   5
  227              dfftw_execute                         0.087301                    120   6
  228              map_backward                          0.012681                     40   6
  229                map_gather                            0.002818                   20   7
  230                m_alltoallv_z                         0.005174                   20   7
  231                map_scatter                           0.003674                   20   7
  232              map_forward                           0.090893                     40   6
  233                map_gather                            0.051286                   20   7
  234                m_alltoallv_z                         0.017379                   20   7
  235                map_scatter                           0.021224                   20   7
  236          M_sumb_d                              0.010578                         20   4
  237        set_dd_magatom                        0.000004                            1   3
  238        set_dd_paw                            0.009331                            1   3
  239          set_rsgf_all                          0.000004                          1   4
  240          M_sumb_d                              0.009168                          8   4
  241        strkin                                0.000993                            1   3
  242          M_sumb_d                              0.000506                          1   4
  243        strelo                                0.002581                            1   3
  244          M_sumb_d                              0.000133                          2   4
  245        strenl                                0.727532                            1   3
  246          spher                                 0.584591                         19   4
  247          phase                                 0.011991                        189   4
  248          proj1                                 0.116229                        756   4
  249            crexp_mul_wave                        0.018865                     2268   5
  250            M_sumb_d                              0.029497                      756   5
  251          M_sumb_d                              0.002028                          1   4
  252        M_sumb_d                              0.000226                            6   3
  253        fft3d_mpi                             0.014997                           11   3
  254          fftbas_plan_mpi                       0.013994                         11   4
  255            dfftw_execute                         0.004875                       33   5
  256            map_forward                           0.002956                       10   5
  257              map_gather                            0.000593                      5   6
  258              m_alltoallv_z                         0.001486                      5   6
  259              map_scatter                           0.000639                      5   6
  260            map_backward                          0.003687                       12   5
  261              map_gather                            0.000724                      6   6
  262              m_alltoallv_z                         0.001540                      6   6
  263              map_scatter                           0.001130                      6   6
  264        ggaall_grid                           0.001572                            1   3
  265        forhar                                0.006281                            2   3
  266          M_sumb_d                              0.000386                          2   4
  267        strehar                               0.002755                            1   3
  268          M_sumb_d                              0.000151                          1   4
  269        chggra                                0.005716                            1   3
  270          fft3d_mpi                             0.003971                          3   4
  271            fftbas_plan_mpi                       0.003694                        3   5
  272              dfftw_execute                         0.001336                      9   6
  273              map_backward                          0.000608                      2   6
  274                map_gather                            0.000110                    1   7
  275                m_alltoallv_z                         0.000253                    1   7
  276                map_scatter                           0.000191                    1   7
  277              map_forward                           0.001072                      4   6
  278                map_gather                            0.000233                    2   7
  279                m_alltoallv_z                         0.000493                    2   7
  280                map_scatter                           0.000249                    2   7
  281          M_sumb_d                              0.000133                          3   4
  282        brmix                                 0.012555                            1   3
  283          M_sumb_d                              0.000279                          6   4
  284          brpre                                 0.000047                          1   4
  285          setg0                                 0.001228                          1   4
  286          broyd                                 0.001755                          1   4
  287            M_sumb_d                              0.000476                       16   5
  288            brget                                 0.000249                       54   5
  289            brsav                                 0.000105                       14   5
  290          M_bcast_z                             0.008299                          1   4
  291          M_bcast_d                             0.000050                          1   4
  292        M_bcast_d                             0.000053                            2   3
  293      potlok                                0.027172                              1   2
  294        fft3d_mpi                             0.018870                           13   3
  295          fftbas_plan_mpi                       0.017674                         13   4
  296            dfftw_execute                         0.005998                       39   5
  297            map_forward                           0.003935                       14   5
  298              map_gather                            0.000945                      8   6
  299              m_alltoallv_z                         0.001769                      8   6
  300              map_scatter                           0.000874                      8   6
  301            map_backward                          0.004527                       12   5
  302              map_gather                            0.001004                      6   6
  303              m_alltoallv_z                         0.001832                      6   6
  304              map_scatter                           0.001377                      6   6
  305        ggaall_grid                           0.001528                            1   3
  306        M_sumb_d                              0.000280                            6   3
  307        M_bcast_d                             0.000111                            1   3
  308      potlok_metagga                        0.000003                              1   2
  309      set_dd_magatom                        0.000004                              1   2
  310      set_dd_paw                            0.000367                              1   2
  311        set_rsgf_all                          0.000004                            1   3
  312        M_sumb_d                              0.000230                            8   3
  313      densta                                0.002000                              1   2
  314        M_sumb_d                              0.000837                           40   3
  315      lprj_proall                           0.000007                              1   2

 Flat profile
 ============

             routine name                   CPU           calls
 ---------------------------------------------------------------
 total_time                             12.127817           1
 dfftw_execute                           2.854846       27840
 eddav                                   2.834523          14
 setdij_                                 1.929763          38
 fftbas_plan_mpi                         1.880388        9282
 M_sumb_d                                1.434486       26342
 elmin                                   1.233300           1
 m_alltoallv_z                           1.033179        9301
 set_charge                              0.939941          10
 crpa_reader                             0.669431           1
 spher                                   0.663600          20
 M_alltoall_d                            0.622704       30492
 pdssyex_zheevx                          0.595942         294
 orth1                                   0.467343        6213
 vhamil                                  0.416039        4128
 proj1                                   0.403212        3792
 map_gather                              0.399352        9301
 map_forward                             0.370433       10042
 fftwav_mpi                              0.361082        4898
 map_scatter                             0.353058        9301
 gemm                                    0.344996       12384
 M_bcast_z                               0.323875        3771
 vnlac0                                  0.270878        4128
 redis_pw                                0.251666       11838
 redis_proj                              0.223366       14811
 hamiltmu                                0.222752        2064
 fft3d_mpi                               0.172598        9280
 w1_copy                                 0.163685       12384
 map_backward                            0.150045        8518
 work_mul_crexp                          0.132673       12384
 fftext_mpi                              0.131161        4128
 eccp                                    0.105008        1176
 crexp_mul_wave                          0.101197       11376
 kinhamil                                0.081397        4128
 overl                                   0.077727        7101
 potlok                                  0.073227          11
 M_bcast_d                               0.068556        2092
 force_and_stress                        0.051942           1
 overl1                                  0.050539        4128
 pw_charge                               0.050217         770
 lincom                                  0.045452         315
 apply_precond                           0.038177        2952
 setup_precond                           0.038115        1176
 phase                                   0.033300         526
 w1_projall                              0.031367        1476
 fornl                                   0.021033           1
 soft_charge                             0.019634          10
 ggaall_grid                             0.018492          12
 truncate_high_frequency_w1              0.017918        5304
 densta                                  0.017521          15
 strenl                                  0.012693           1
 setg0                                   0.011382          11
 brmix                                   0.010209          10
 broyd                                   0.005953          10
 forhar                                  0.005895           2
 forloc                                  0.002893           1
 set_dd_paw                              0.002707          12
 strehar                                 0.002604           1
 strelo                                  0.002448           1
 depsum                                  0.002347          10
 orthch                                  0.002003           1
 chggra                                  0.001612           1
 brget                                   0.001439         309
 brgrid                                  0.001128           1
 proj                                    0.000977          21
 choleski                                0.000892          21
 brpre                                   0.000826          10
 brsav                                   0.000706          96
 strkin                                  0.000487           1
 fordep                                  0.000107           1
 set_rsgf_all                            0.000060          12
 vectorpot                               0.000053          11
 set_dd_magatom                          0.000043          12
 potlok_metagga                          0.000041          11
 set_kineden                             0.000035           9
 rotate_active_occupied_orbital          0.000015           1
 lprj_proall                             0.000007           1
 redis_pw_over_bands                     0.000003           1
 ---------------------------------------------------------------
  summed up times    34.9885201454163

 Accumulative profile
 ====================

             routine name                   CPU           calls
 ---------------------------------------------------------------
 total_time                             34.988520           1
 elmin                                  18.919835           1
 eddav                                  15.056719          14
 fft3d_mpi                               7.157560        9280
 fftbas_plan_mpi                         7.041301        9282
 hamiltmu                                4.700315        2064
 fftwav_mpi                              3.893772        4898
 kinhamil                                3.010950        4128
 fftext_mpi                              2.929553        4128
 dfftw_execute                           2.854846       27840
 force_and_stress                        2.589127           1
 setdij_                                 2.391759          38
 set_charge                              1.742807          10
 M_sumb_d                                1.434486       26342
 map_forward                             1.376087       10042
 m_alltoallv_z                           1.033179        9301
 vnlac0                                  1.000036        4128
 map_backward                            0.929980        8518
 strenl                                  0.727532           1
 proj1                                   0.708556        3792
 soft_charge                             0.671619          10
 crpa_reader                             0.669431           1
 spher                                   0.663600          20
 M_alltoall_d                            0.622704       30492
 w1_projall                              0.610839        1476
 redis_pw                                0.600178       11838
 pdssyex_zheevx                          0.595942         294
 redis_proj                              0.497557       14811
 orth1                                   0.467343        6213
 vhamil                                  0.416039        4128
 map_gather                              0.399352        9301
 fordep                                  0.366247           1
 map_scatter                             0.353058        9301
 gemm                                    0.344996       12384
 M_bcast_z                               0.323875        3771
 potlok                                  0.292691          11
 eccp                                    0.169675        1176
 w1_copy                                 0.163685       12384
 work_mul_crexp                          0.132673       12384
 crexp_mul_wave                          0.101197       11376
 overl                                   0.077727        7101
 set_dd_paw                              0.072017          12
 M_bcast_d                               0.068556        2092
 setup_precond                           0.066566        1176
 brmix                                   0.056732          10
 overl1                                  0.050539        4128
 pw_charge                               0.050217         770
 lincom                                  0.045452         315
 apply_precond                           0.038177        2952
 phase                                   0.033300         526
 fornl                                   0.029905           1
 densta                                  0.028832          15
 orthch                                  0.020993           1
 ggaall_grid                             0.018492          12
 truncate_high_frequency_w1              0.017918        5304
 proj                                    0.013832          21
 broyd                                   0.011657          10
 setg0                                   0.011382          11
 forhar                                  0.006281           2
 depsum                                  0.005855          10
 chggra                                  0.005716           1
 forloc                                  0.002949           1
 strehar                                 0.002755           1
 strelo                                  0.002581           1
 brget                                   0.001439         309
 brgrid                                  0.001128           1
 strkin                                  0.000993           1
 choleski                                0.000892          21
 brpre                                   0.000826          10
 brsav                                   0.000706          96
 set_rsgf_all                            0.000060          12
 vectorpot                               0.000053          11
 set_dd_magatom                          0.000043          12
 potlok_metagga                          0.000041          11
 set_kineden                             0.000035           9
 rotate_active_occupied_orbital          0.000015           1
 lprj_proall                             0.000007           1
 redis_pw_over_bands                     0.000003           1
 ---------------------------------------------------------------

Profiling took   0.731703  0.889476  0.006164  0.004779 seconds
Profiling took   0.706071 seconds
