<?xml version="1.0" encoding="ISO-8859-1"?>
<modeling>
 <generator>
  <i name="program" type="string">vasp </i>
  <i name="version" type="string">6.0.8  </i>
  <i name="subversion" type="string">29Jun18 (build Jun 13 2019 12:54:44) complex                          parallel </i>
  <i name="platform" type="string">IFC18_CrayMPICH </i>
  <i name="date" type="string">2021 12 05 </i>
  <i name="time" type="string">14:21:50 </i>
 </generator>
 <incar>
  <i type="int" name="KPAR">     4</i>
  <i type="int" name="NPAR">     4</i>
  <i type="int" name="ISTART">     0</i>
  <i type="string" name="PREC"> ACC</i>
  <i type="string" name="ALGO"> Normal</i>
  <i type="logical" name="ADDGRID"> T  </i>
  <i type="int" name="ISPIN">     1</i>
  <i type="int" name="NELMIN">     5</i>
  <i type="int" name="IBRION">    -1</i>
  <i name="EDIFF">      0.00000010</i>
  <i type="int" name="NSW">     0</i>
  <i type="int" name="ISIF">     3</i>
  <i name="ENCUT">    700.00000000</i>
  <i type="logical" name="LREAL"> F  </i>
  <i type="int" name="ISMEAR">     0</i>
  <i name="SIGMA">      0.01000000</i>
  <i type="logical" name="LWAVE"> F  </i>
  <i type="logical" name="LCHARG"> F  </i>
  <i type="logical" name="LVTOT"> F  </i>
  <i type="string" name="ALGO"> Normal</i>
  <i type="string" name="GGA"> PS</i>
  <i name="EDIFF">      0.00000010</i>
  <i type="int" name="ISPIN">     1</i>
 </incar>
 <structure name="primitive_cell" >
  <crystal>
   <varray name="basis" >
    <v>       0.00000000       3.24061912       3.24061912 </v>
    <v>       3.24061912       0.00000000       3.24061912 </v>
    <v>       3.24061912       3.24061912       0.00000000 </v>
   </varray>
   <i name="volume">     68.06345108 </i>
   <varray name="rec_basis" >
    <v>      -0.15429150       0.15429150       0.15429150 </v>
    <v>       0.15429150      -0.15429150       0.15429150 </v>
    <v>       0.15429150       0.15429150      -0.15429150 </v>
   </varray>
  </crystal>
  <varray name="positions" >
   <v>       0.75000000       0.75000000       0.75000000 </v>
   <v>       0.25000000       0.25000000       0.25000000 </v>
   <v>       0.00000000       0.00000000       0.00000000 </v>
  </varray>
 </structure>
 <varray name="primitive_index" >
  <v type="int" >        1 </v>
  <v type="int" >        2 </v>
  <v type="int" >        3 </v>
 </varray>
 <kpoints>
  <generation param="Gamma">
   <v type="int" name="divisions">      13       13       13 </v>
   <v name="usershift">      0.00000000       0.00000000       0.00000000 </v>
   <v name="genvec1">      0.07692308       0.00000000      -0.00000000 </v>
   <v name="genvec2">      0.00000000       0.07692308       0.00000000 </v>
   <v name="genvec3">     -0.00000000      -0.00000000       0.07692308 </v>
   <v name="shift">      0.00000000       0.00000000       0.00000000 </v>
  </generation>
  <varray name="kpointlist" >
   <v>       0.00000000       0.00000000       0.00000000 </v>
   <v>       0.07692308      -0.00000000      -0.00000000 </v>
   <v>       0.15384615      -0.00000000      -0.00000000 </v>
   <v>       0.23076923      -0.00000000       0.00000000 </v>
   <v>       0.30769231      -0.00000000      -0.00000000 </v>
   <v>       0.38461538      -0.00000000       0.00000000 </v>
   <v>       0.46153846      -0.00000000       0.00000000 </v>
   <v>       0.07692308       0.07692308      -0.00000000 </v>
   <v>       0.15384615       0.07692308      -0.00000000 </v>
   <v>       0.23076923       0.07692308      -0.00000000 </v>
   <v>       0.30769231       0.07692308      -0.00000000 </v>
   <v>       0.38461538       0.07692308      -0.00000000 </v>
   <v>       0.46153846       0.07692308      -0.00000000 </v>
   <v>      -0.46153846       0.07692308      -0.00000000 </v>
   <v>      -0.38461538       0.07692308      -0.00000000 </v>
   <v>      -0.30769231       0.07692308      -0.00000000 </v>
   <v>      -0.23076923       0.07692308       0.00000000 </v>
   <v>      -0.15384615       0.07692308      -0.00000000 </v>
   <v>      -0.07692308       0.07692308      -0.00000000 </v>
   <v>       0.15384615       0.15384615      -0.00000000 </v>
   <v>       0.23076923       0.15384615      -0.00000000 </v>
   <v>       0.30769231       0.15384615      -0.00000000 </v>
   <v>       0.38461538       0.15384615      -0.00000000 </v>
   <v>       0.46153846       0.15384615      -0.00000000 </v>
   <v>      -0.46153846       0.15384615       0.00000000 </v>
   <v>      -0.38461538       0.15384615      -0.00000000 </v>
   <v>      -0.30769231       0.15384615      -0.00000000 </v>
   <v>      -0.23076923       0.15384615      -0.00000000 </v>
   <v>      -0.15384615       0.15384615      -0.00000000 </v>
   <v>       0.23076923       0.23076923      -0.00000000 </v>
   <v>       0.30769231       0.23076923      -0.00000000 </v>
   <v>       0.38461538       0.23076923      -0.00000000 </v>
   <v>       0.46153846       0.23076923      -0.00000000 </v>
   <v>      -0.46153846       0.23076923       0.00000000 </v>
   <v>      -0.38461538       0.23076923      -0.00000000 </v>
   <v>      -0.30769231       0.23076923      -0.00000000 </v>
   <v>      -0.23076923       0.23076923      -0.00000000 </v>
   <v>       0.30769231       0.30769231      -0.00000000 </v>
   <v>       0.38461538       0.30769231      -0.00000000 </v>
   <v>       0.46153846       0.30769231      -0.00000000 </v>
   <v>      -0.46153846       0.30769231      -0.00000000 </v>
   <v>      -0.38461538       0.30769231      -0.00000000 </v>
   <v>      -0.30769231       0.30769231      -0.00000000 </v>
   <v>       0.38461538       0.38461538      -0.00000000 </v>
   <v>       0.46153846       0.38461538      -0.00000000 </v>
   <v>      -0.46153846       0.38461538       0.00000000 </v>
   <v>      -0.38461538       0.38461538      -0.00000000 </v>
   <v>       0.46153846       0.46153846      -0.00000000 </v>
   <v>      -0.46153846       0.46153846      -0.00000000 </v>
   <v>       0.23076923       0.15384615       0.07692308 </v>
   <v>       0.30769231       0.15384615       0.07692308 </v>
   <v>       0.38461538       0.15384615       0.07692308 </v>
   <v>       0.46153846       0.15384615       0.07692308 </v>
   <v>      -0.46153846       0.15384615       0.07692308 </v>
   <v>       0.30769231       0.23076923       0.07692308 </v>
   <v>       0.38461538       0.23076923       0.07692308 </v>
   <v>       0.46153846       0.23076923       0.07692308 </v>
   <v>      -0.46153846       0.23076923       0.07692308 </v>
   <v>      -0.38461538       0.23076923       0.07692308 </v>
   <v>      -0.30769231       0.23076923       0.07692308 </v>
   <v>      -0.23076923       0.23076923       0.07692308 </v>
   <v>      -0.15384615       0.23076923       0.07692308 </v>
   <v>       0.38461538       0.30769231       0.07692308 </v>
   <v>       0.46153846       0.30769231       0.07692308 </v>
   <v>      -0.46153846       0.30769231       0.07692308 </v>
   <v>      -0.38461538       0.30769231       0.07692308 </v>
   <v>      -0.30769231       0.30769231       0.07692308 </v>
   <v>      -0.23076923       0.30769231       0.07692308 </v>
   <v>       0.46153846       0.38461538       0.07692308 </v>
   <v>      -0.46153846       0.38461538       0.07692308 </v>
   <v>      -0.38461538       0.38461538       0.07692308 </v>
   <v>      -0.30769231       0.38461538       0.07692308 </v>
   <v>      -0.46153846       0.46153846       0.07692308 </v>
   <v>      -0.38461538       0.46153846       0.07692308 </v>
   <v>       0.46153846       0.30769231       0.15384615 </v>
   <v>      -0.46153846       0.30769231       0.15384615 </v>
   <v>      -0.38461538       0.30769231       0.15384615 </v>
   <v>      -0.46153846       0.38461538       0.15384615 </v>
   <v>      -0.38461538       0.38461538       0.15384615 </v>
   <v>      -0.30769231       0.38461538       0.15384615 </v>
   <v>      -0.23076923       0.38461538       0.15384615 </v>
   <v>      -0.38461538       0.46153846       0.15384615 </v>
   <v>      -0.30769231       0.46153846       0.15384615 </v>
   <v>      -0.30769231       0.46153846       0.23076923 </v>
  </varray>
  <varray name="weights" >
   <v>       0.00045517 </v>
   <v>       0.00364133 </v>
   <v>       0.00364133 </v>
   <v>       0.00364133 </v>
   <v>       0.00364133 </v>
   <v>       0.00364133 </v>
   <v>       0.00364133 </v>
   <v>       0.00273100 </v>
   <v>       0.01092399 </v>
   <v>       0.01092399 </v>
   <v>       0.01092399 </v>
   <v>       0.01092399 </v>
   <v>       0.01092399 </v>
   <v>       0.01092399 </v>
   <v>       0.01092399 </v>
   <v>       0.01092399 </v>
   <v>       0.01092399 </v>
   <v>       0.01092399 </v>
   <v>       0.00546199 </v>
   <v>       0.00273100 </v>
   <v>       0.01092399 </v>
   <v>       0.01092399 </v>
   <v>       0.01092399 </v>
   <v>       0.01092399 </v>
   <v>       0.01092399 </v>
   <v>       0.01092399 </v>
   <v>       0.01092399 </v>
   <v>       0.01092399 </v>
   <v>       0.00546199 </v>
   <v>       0.00273100 </v>
   <v>       0.01092399 </v>
   <v>       0.01092399 </v>
   <v>       0.01092399 </v>
   <v>       0.01092399 </v>
   <v>       0.01092399 </v>
   <v>       0.01092399 </v>
   <v>       0.00546199 </v>
   <v>       0.00273100 </v>
   <v>       0.01092399 </v>
   <v>       0.01092399 </v>
   <v>       0.01092399 </v>
   <v>       0.01092399 </v>
   <v>       0.00546199 </v>
   <v>       0.00273100 </v>
   <v>       0.01092399 </v>
   <v>       0.01092399 </v>
   <v>       0.00546199 </v>
   <v>       0.00273100 </v>
   <v>       0.00546199 </v>
   <v>       0.01092399 </v>
   <v>       0.02184797 </v>
   <v>       0.02184797 </v>
   <v>       0.02184797 </v>
   <v>       0.02184797 </v>
   <v>       0.01092399 </v>
   <v>       0.02184797 </v>
   <v>       0.02184797 </v>
   <v>       0.02184797 </v>
   <v>       0.02184797 </v>
   <v>       0.02184797 </v>
   <v>       0.02184797 </v>
   <v>       0.01092399 </v>
   <v>       0.01092399 </v>
   <v>       0.02184797 </v>
   <v>       0.02184797 </v>
   <v>       0.02184797 </v>
   <v>       0.02184797 </v>
   <v>       0.01092399 </v>
   <v>       0.01092399 </v>
   <v>       0.02184797 </v>
   <v>       0.02184797 </v>
   <v>       0.01092399 </v>
   <v>       0.01092399 </v>
   <v>       0.01092399 </v>
   <v>       0.01092399 </v>
   <v>       0.02184797 </v>
   <v>       0.02184797 </v>
   <v>       0.01092399 </v>
   <v>       0.02184797 </v>
   <v>       0.02184797 </v>
   <v>       0.01092399 </v>
   <v>       0.01092399 </v>
   <v>       0.01092399 </v>
   <v>       0.01092399 </v>
  </varray>
 </kpoints>
 <parameters>
  <separator name="general" >
   <i type="string" name="SYSTEM">unknown system</i>
   <i type="logical" name="LCOMPAT"> F  </i>
  </separator>
  <separator name="electronic" >
   <i type="string" name="PREC">acc</i>
   <i name="ENMAX">    700.00000000</i>
   <i name="ENAUG">    380.87800000</i>
   <i name="EDIFF">      0.00000010</i>
   <i type="int" name="IALGO">    38</i>
   <i type="int" name="IWAVPR">    10</i>
   <i type="int" name="NBANDS">    16</i>
   <i type="int" name="NBANDSLOW">    -1</i>
   <i type="int" name="NBANDSHIGH">    -1</i>
   <i name="NELECT">     25.00000000</i>
   <i type="int" name="TURBO">     0</i>
   <i type="int" name="IRESTART">     0</i>
   <i type="int" name="NREBOOT">     0</i>
   <i type="int" name="NMIN">     0</i>
   <i name="EREF">      0.00000000</i>
   <separator name="electronic smearing" >
    <i type="int" name="ISMEAR">     0</i>
    <i name="SIGMA">      0.01000000</i>
    <i name="KSPACING">      0.50000000</i>
    <i type="logical" name="KGAMMA"> T  </i>
    <i type="logical" name="KBLOWUP"> T  </i>
   </separator>
   <separator name="electronic projectors" >
    <i type="logical" name="LREAL"> F  </i>
    <v name="ROPT">      0.00000000      0.00000000      0.00000000</v>
    <i type="int" name="LMAXPAW">  -100</i>
    <i type="int" name="LMAXMIX">     2</i>
    <i type="logical" name="NLSPLINE"> F  </i>
   </separator>
   <separator name="electronic startup" >
    <i type="int" name="ISTART">     0</i>
    <i type="int" name="ICHARG">     2</i>
    <i type="int" name="INIWAV">     1</i>
   </separator>
   <separator name="electronic spin" >
    <i type="int" name="ISPIN">     1</i>
    <i type="logical" name="LNONCOLLINEAR"> F  </i>
    <v name="MAGMOM">      1.00000000      1.00000000      1.00000000</v>
    <i name="NUPDOWN">     -1.00000000</i>
    <i type="logical" name="LSORBIT"> F  </i>
    <v name="SAXIS">      0.00000000      0.00000000      1.00000000</v>
    <i type="logical" name="LSPIRAL"> F  </i>
    <v name="QSPIRAL">      0.00000000      0.00000000      0.00000000</v>
    <i type="logical" name="LZEROZ"> F  </i>
   </separator>
   <separator name="electronic exchange-correlation" >
    <i type="logical" name="LASPH"> F  </i>
    <i type="logical" name="LMETAGGA"> F  </i>
   </separator>
   <separator name="electronic convergence" >
    <i type="int" name="NELM">    60</i>
    <i type="int" name="NELMDL">    -5</i>
    <i type="int" name="NELMIN">     5</i>
    <i name="ENINI">    700.00000000</i>
    <separator name="electronic convergence detail" >
     <i type="logical" name="LDIAG"> T  </i>
     <i type="logical" name="LSUBROT"> F  </i>
     <i name="WEIMIN">      0.00000000</i>
     <i name="EBREAK">      0.00000000</i>
     <i name="DEPER">      0.30000000</i>
     <i type="int" name="NRMM">     4</i>
     <i name="TIME">      0.40000000</i>
    </separator>
   </separator>
   <separator name="electronic mixer" >
    <i name="AMIX">      0.40000000</i>
    <i name="BMIX">      1.00000000</i>
    <i name="AMIN">      0.10000000</i>
    <i name="AMIX_MAG">      1.60000000</i>
    <i name="BMIX_MAG">      1.00000000</i>
    <separator name="electronic mixer details" >
     <i type="int" name="IMIX">     4</i>
     <i type="logical" name="MIXFIRST"> F  </i>
     <i type="int" name="MAXMIX">   -45</i>
     <i name="WC">    100.00000000</i>
     <i type="int" name="INIMIX">     1</i>
     <i type="int" name="MIXPRE">     1</i>
     <i type="int" name="MREMOVE">     5</i>
    </separator>
   </separator>
   <separator name="electronic dipolcorrection" >
    <i type="logical" name="LDIPOL"> F  </i>
    <i type="logical" name="LMONO"> F  </i>
    <i type="int" name="IDIPOL">     0</i>
    <i name="EPSILON">      1.00000000</i>
    <v name="DIPOL">   -100.00000000   -100.00000000   -100.00000000</v>
    <i name="EFIELD">      0.00000000</i>
   </separator>
  </separator>
  <separator name="grids" >
   <i type="int" name="NGX">    40</i>
   <i type="int" name="NGY">    40</i>
   <i type="int" name="NGZ">    40</i>
   <i type="int" name="NGXF">    80</i>
   <i type="int" name="NGYF">    80</i>
   <i type="int" name="NGZF">    80</i>
   <i type="logical" name="ADDGRID"> T  </i>
  </separator>
  <separator name="ionic" >
   <i type="int" name="NSW">     0</i>
   <i type="int" name="IBRION">    -1</i>
   <i type="int" name="MDALGO">     0</i>
   <i type="int" name="ISIF">     3</i>
   <i name="PSTRESS">      0.00000000</i>
   <i name="EDIFFG">      0.00000100</i>
   <i type="int" name="NFREE">     0</i>
   <i name="POTIM">      0.50000000</i>
   <i name="SMASS">     -3.00000000</i>
   <i name="SCALEE">      1.00000000</i>
  </separator>
  <separator name="ionic md" >
   <i name="TEBEG">      0.00010000</i>
   <i name="TEEND">      0.00010000</i>
   <i type="int" name="NBLOCK">     1</i>
   <i type="int" name="KBLOCK">     1</i>
   <i type="int" name="NPACO">   256</i>
   <i name="APACO">     16.00000000</i>
  </separator>
  <separator name="symmetry" >
   <i type="int" name="ISYM">     2</i>
   <i name="SYMPREC">      0.00001000</i>
  </separator>
  <separator name="dos" >
   <i type="int" name="LORBIT">     0</i>
   <v name="RWIGS">     -1.00000000     -1.00000000     -1.00000000</v>
   <i type="int" name="NEDOS">   301</i>
   <i name="EMIN">     10.00000000</i>
   <i name="EMAX">    -10.00000000</i>
   <i name="EFERMI">      0.00000000</i>
  </separator>
  <separator name="writing" >
   <i type="int" name="NWRITE">     2</i>
   <i type="logical" name="LWAVE"> F  </i>
   <i type="logical" name="LDOWNSAMPLE"> F  </i>
   <i type="logical" name="LCHARG"> F  </i>
   <i type="logical" name="LPARD"> F  </i>
   <i type="logical" name="LVTOT"> F  </i>
   <i type="logical" name="LVHAR"> F  </i>
   <i type="logical" name="LELF"> F  </i>
   <i type="logical" name="LOPTICS"> F  </i>
   <v name="STM">      0.00000000      0.00000000      0.00000000      0.00000000      0.00000000      0.00000000      0.00000000</v>
  </separator>
  <separator name="performance" >
   <i type="int" name="NPAR">     4</i>
   <i type="int" name="NSIM">     4</i>
   <i type="int" name="NBLK">    -1</i>
   <i type="logical" name="LPLANE"> T  </i>
   <i type="logical" name="LSCALAPACK"> T  </i>
   <i type="logical" name="LSCAAWARE"> F  </i>
   <i type="logical" name="LSCALU"> F  </i>
   <i type="logical" name="LASYNC"> F  </i>
   <i type="logical" name="LORBITALREAL"> F  </i>
  </separator>
  <separator name="miscellaneous" >
   <i type="int" name="IDIOT">     3</i>
   <i type="int" name="PHON_NSTRUCT">    -1</i>
   <i type="logical" name="LMUSIC"> F  </i>
   <v name="POMASS">    178.49000000    121.75000000    195.08000000</v>
   <v name="DARWINR">      0.00000000      0.00000000      0.00000000</v>
   <v name="DARWINV">      1.00000000      1.00000000      1.00000000</v>
   <i type="logical" name="LCORR"> T  </i>
  </separator>
  <i type="logical" name="GGA_COMPAT"> T  </i>
  <i type="logical" name="LBERRY"> F  </i>
  <i type="int" name="ICORELEVEL">     0</i>
  <i type="logical" name="LDAU"> F  </i>
  <i type="int" name="I_CONSTRAINED_M">     0</i>
  <separator name="electronic exchange-correlation" >
   <i type="string" name="GGA">PS</i>
   <i type="int" name="VOSKOWN">     0</i>
   <i type="logical" name="LHFCALC"> F  </i>
   <i type="string" name="PRECFOCK"></i>
   <i type="logical" name="LSYMGRAD"> F  </i>
   <i type="logical" name="LHFONE"> F  </i>
   <i type="logical" name="LRHFCALC"> F  </i>
   <i type="logical" name="LTHOMAS"> F  </i>
   <i type="logical" name="LMODELHF"> F  </i>
   <i type="logical" name="LFOCKACE"> F  </i>
   <i name="ENCUT4O">     -1.00000000</i>
   <i type="int" name="EXXOEP">     0</i>
   <i type="int" name="FOURORBIT">     0</i>
   <i name="AEXX">      0.00000000</i>
   <i name="HFALPHA">      0.00000000</i>
   <i name="MCALPHA">      0.00000000</i>
   <i name="ALDAX">      1.00000000</i>
   <i name="AGGAX">      1.00000000</i>
   <i name="ALDAC">      1.00000000</i>
   <i name="AGGAC">      1.00000000</i>
   <i type="int" name="NKREDX">     1</i>
   <i type="int" name="NKREDY">     1</i>
   <i type="int" name="NKREDZ">     1</i>
   <i type="logical" name="SHIFTRED"> F  </i>
   <i type="logical" name="ODDONLY"> F  </i>
   <i type="logical" name="EVENONLY"> F  </i>
   <i type="int" name="LMAXFOCK">     0</i>
   <i type="int" name="NMAXFOCKAE">     0</i>
   <i type="logical" name="LFOCKAEDFT"> F  </i>
   <i name="HFSCREEN">      0.00000000</i>
   <i name="HFSCREENC">      0.00000000</i>
   <i type="int" name="NBANDSGWLOW">     0</i>
  </separator>
  <separator name="vdW DFT" >
   <i type="logical" name="LUSE_VDW"> F  </i>
   <i name="Zab_VDW">     -0.84910000</i>
   <i name="PARAM1">      0.12340000</i>
   <i name="PARAM2">      1.00000000</i>
   <i name="PARAM3">      0.00000000</i>
  </separator>
  <separator name="model GW" >
   <i type="int" name="MODEL_GW">     0</i>
   <i name="MODEL_EPS0">     13.61269022</i>
   <i name="MODEL_ALPHA">      1.00000000</i>
  </separator>
  <separator name="linear response parameters" >
   <i type="logical" name="LEPSILON"> F  </i>
   <i type="logical" name="LRPA"> F  </i>
   <i type="logical" name="LNABLA"> F  </i>
   <i type="logical" name="LVEL"> F  </i>
   <i type="int" name="KINTER">     0</i>
   <i name="CSHIFT">      0.10000000</i>
   <i name="OMEGAMAX">     -1.00000000</i>
   <i name="DEG_THRESHOLD">      0.00200000</i>
   <i name="RTIME">     -0.10000000</i>
   <i name="WPLASMAI">      0.00000000</i>
   <v name="DFIELD">      0.00000000      0.00000000      0.00000000</v>
   <v name="WPLASMA">      0.00000000      0.00000000      0.00000000      0.00000000      0.00000000      0.00000000      0.00000000      0.00000000      0.00000000</v>
  </separator>
  <separator name="orbital magnetization" >
   <i type="logical" name="NUCIND"> F  </i>
   <v name="MAGPOS">      0.00000000      0.00000000      0.00000000</v>
   <i type="logical" name="LNICSALL"> T  </i>
   <i type="logical" name="ORBITALMAG"> F  </i>
   <i type="logical" name="LMAGBLOCH"> F  </i>
   <i type="logical" name="LCHIMAG"> F  </i>
   <i type="logical" name="LGAUGE"> T  </i>
   <i type="int" name="MAGATOM">     0</i>
   <v name="MAGDIPOL">      0.00000000      0.00000000      0.00000000</v>
   <v name="AVECCONST">      0.00000000      0.00000000      0.00000000</v>
  </separator>
  <separator name="response functions" >
   <i type="logical" name="LFINITE_TEMPERATURE"> F  </i>
   <i type="logical" name="LADDER"> F  </i>
   <i type="logical" name="LRPAFORCE"> F  </i>
   <i type="logical" name="LFXC"> F  </i>
   <i type="logical" name="LHARTREE"> T  </i>
   <i type="int" name="IBSE">     0</i>
   <v type="int" name="KPOINT">    -1     0     0     0</v>
   <i type="logical" name="LTCTC"> F  </i>
   <i type="logical" name="LTCTE"> F  </i>
   <i type="logical" name="LTETE"> F  </i>
   <i type="logical" name="LTRIPLET"> F  </i>
   <i type="logical" name="LFXCEPS"> F  </i>
   <i type="logical" name="LFXHEG"> F  </i>
   <i type="int" name="NATURALO">     2</i>
   <i type="logical" name="L2ORDER"> F  </i>
   <i type="logical" name="LDMP1"> F  </i>
   <i type="logical" name="LMP2LT"> F  </i>
   <i type="logical" name="LSMP2LT"> F  </i>
   <i type="logical" name="LUSEW"> F  </i>
   <i name="ENCUTGW">     -2.00000000</i>
   <i name="ENCUTGWSOFT">     -2.00000000</i>
   <i name="ENCUTLF">     -1.00000000</i>
   <i type="int" name="LMAXMP2">    -1</i>
   <i name="SCISSOR">      0.00000000</i>
   <i type="int" name="NOMEGA">     0</i>
   <i type="int" name="NOMEGAR">     0</i>
   <i type="int" name="NBANDSGW">    -1</i>
   <i type="int" name="NBANDSO">    -1</i>
   <i type="int" name="NBANDSV">    -1</i>
   <i type="int" name="NELM">     1</i>
   <i type="int" name="NELMHF">     1</i>
   <i type="int" name="DIM">     3</i>
   <i type="int" name="IESPILON">     4</i>
   <i type="int" name="ANTIRES">     0</i>
   <i name="OMEGAMAX">    -30.00000000</i>
   <i name="OMEGAMIN">    -30.00000000</i>
   <i name="OMEGATL">   -200.00000000</i>
   <i type="int" name="OMEGAGRID">   145</i>
   <i name="CSHIFT">     -0.10000000</i>
   <i type="logical" name="LSELFENERGY"> F  </i>
   <i type="logical" name="LSPECTRAL"> F  </i>
   <i type="logical" name="LSPECTRALGW"> F  </i>
   <i type="logical" name="LSINGLES"> F  </i>
   <i type="logical" name="LFERMIGW"> F  </i>
   <i type="logical" name="ODDONLYGW"> F  </i>
   <i type="logical" name="EVENONLYGW"> F  </i>
   <i type="int" name="NKREDLFX">     1</i>
   <i type="int" name="NKREDLFY">     1</i>
   <i type="int" name="NKREDLFZ">     1</i>
   <i type="int" name="MAXMEM">  2800</i>
   <i type="int" name="TELESCOPE">     0</i>
   <i type="int" name="NTAUPAR">     1</i>
   <i type="int" name="NOMEGAPAR">    -1</i>
   <i name="LAMBDA">      1.00000000</i>
  </separator>
  <separator name="External order field" >
   <i name="OFIELD_KAPPA">      0.00000000</i>
   <v name="OFIELD_K">      0.00000000      0.00000000      0.00000000</v>
   <i name="OFIELD_Q6_NEAR">      0.00000000</i>
   <i name="OFIELD_Q6_FAR">      0.00000000</i>
   <i name="OFIELD_A">      0.00000000</i>
  </separator>
 </parameters>
 <atominfo>
  <atoms>       3 </atoms>
  <types>       3 </types>
  <array name="atoms" >
   <dimension dim="1">ion</dimension>
   <field type="string">element</field>
   <field type="int">atomtype</field>
   <set>
    <rc><c>Hf</c><c>   1</c></rc>
    <rc><c>Sb</c><c>   2</c></rc>
    <rc><c>Pt</c><c>   3</c></rc>
   </set>
  </array>
  <array name="atomtypes" >
   <dimension dim="1">type</dimension>
   <field type="int">atomspertype</field>
   <field type="string">element</field>
   <field>mass</field>
   <field>valence</field>
   <field type="string">pseudopotential</field>
   <set>
    <rc><c>   1</c><c>Hf</c><c>    178.49000000</c><c>     10.00000000</c><c>  PAW_PBE Hf_pv 06Sep2000               </c></rc>
    <rc><c>   1</c><c>Sb</c><c>    121.75000000</c><c>      5.00000000</c><c>  PAW_PBE Sb 06Sep2000                  </c></rc>
    <rc><c>   1</c><c>Pt</c><c>    195.08000000</c><c>     10.00000000</c><c>  PAW_PBE Pt 04Feb2005                  </c></rc>
   </set>
  </array>
 </atominfo>
 <structure name="initialpos" >
  <crystal>
   <varray name="basis" >
    <v>       0.00000000       3.24061912       3.24061912 </v>
    <v>       3.24061912       0.00000000       3.24061912 </v>
    <v>       3.24061912       3.24061912       0.00000000 </v>
   </varray>
   <i name="volume">     68.06345108 </i>
   <varray name="rec_basis" >
    <v>      -0.15429150       0.15429150       0.15429150 </v>
    <v>       0.15429150      -0.15429150       0.15429150 </v>
    <v>       0.15429150       0.15429150      -0.15429150 </v>
   </varray>
  </crystal>
  <varray name="positions" >
   <v>       0.75000000       0.75000000       0.75000000 </v>
   <v>       0.25000000       0.25000000       0.25000000 </v>
   <v>       0.00000000       0.00000000       0.00000000 </v>
  </varray>
 </structure>
 <calculation>
  <scstep>
   <time name="dav">    0.92    0.93</time>
   <time name="total">    1.05    1.12</time>
   <energy>
    <i name="alphaZ">    100.09415357 </i>
    <i name="ewald">  -1534.29310292 </i>
    <i name="hartreedc">   -334.69094678 </i>
    <i name="XCdc">    -19.47101305 </i>
    <i name="pawpsdc">   1514.36848356 </i>
    <i name="pawaedc">  -1421.27055995 </i>
    <i name="eentropy">     -0.00018377 </i>
    <i name="bandstr">     93.13279688 </i>
    <i name="atom">   1741.10451121 </i>
    <i name="e_fr_energy">    138.97413876 </i>
    <i name="e_wo_entrp">    138.97432253 </i>
    <i name="e_0_energy">    138.97423064 </i>
   </energy>
  </scstep>
  <scstep>
   <time name="dav">    1.08    1.10</time>
   <time name="total">    1.08    1.11</time>
   <energy>
    <i name="e_fr_energy">    -19.86913743 </i>
    <i name="e_wo_entrp">    -19.86905380 </i>
    <i name="e_0_energy">    -19.86909562 </i>
   </energy>
  </scstep>
  <scstep>
   <time name="dav">    1.19    1.21</time>
   <time name="total">    1.19    1.21</time>
   <energy>
    <i name="e_fr_energy">    -24.93524238 </i>
    <i name="e_wo_entrp">    -24.93516239 </i>
    <i name="e_0_energy">    -24.93520239 </i>
   </energy>
  </scstep>
  <scstep>
   <time name="dav">    1.05    1.09</time>
   <time name="total">    1.06    1.09</time>
   <energy>
    <i name="e_fr_energy">    -25.00852206 </i>
    <i name="e_wo_entrp">    -25.00839302 </i>
    <i name="e_0_energy">    -25.00845754 </i>
   </energy>
  </scstep>
  <scstep>
   <time name="dav">    1.16    1.22</time>
   <time name="total">    1.40    1.45</time>
   <energy>
    <i name="e_fr_energy">    -25.01016365 </i>
    <i name="e_wo_entrp">    -25.01003455 </i>
    <i name="e_0_energy">    -25.01009910 </i>
   </energy>
  </scstep>
  <scstep>
   <time name="dav">    1.10    1.10</time>
   <time name="total">    1.43    1.45</time>
   <energy>
    <i name="e_fr_energy">    -24.14531713 </i>
    <i name="e_wo_entrp">    -24.14504400 </i>
    <i name="e_0_energy">    -24.14518056 </i>
   </energy>
  </scstep>
  <scstep>
   <time name="dav">    1.17    1.17</time>
   <time name="total">    1.46    1.48</time>
   <energy>
    <i name="e_fr_energy">    -24.00434264 </i>
    <i name="e_wo_entrp">    -24.00415516 </i>
    <i name="e_0_energy">    -24.00424890 </i>
   </energy>
  </scstep>
  <scstep>
   <time name="dav">    1.07    1.08</time>
   <time name="total">    1.40    1.42</time>
   <energy>
    <i name="e_fr_energy">    -23.98186513 </i>
    <i name="e_wo_entrp">    -23.98158439 </i>
    <i name="e_0_energy">    -23.98172476 </i>
   </energy>
  </scstep>
  <scstep>
   <time name="dav">    1.02    1.02</time>
   <time name="total">    1.29    1.34</time>
   <energy>
    <i name="e_fr_energy">    -23.97026134 </i>
    <i name="e_wo_entrp">    -23.96985428 </i>
    <i name="e_0_energy">    -23.97005781 </i>
   </energy>
  </scstep>
  <scstep>
   <time name="dav">    1.16    1.16</time>
   <time name="total">    1.44    1.46</time>
   <energy>
    <i name="e_fr_energy">    -23.97020375 </i>
    <i name="e_wo_entrp">    -23.96977452 </i>
    <i name="e_0_energy">    -23.96998914 </i>
   </energy>
  </scstep>
  <scstep>
   <time name="dav">    1.08    1.08</time>
   <time name="total">    1.36    1.39</time>
   <energy>
    <i name="e_fr_energy">    -23.97002937 </i>
    <i name="e_wo_entrp">    -23.96960926 </i>
    <i name="e_0_energy">    -23.96981932 </i>
   </energy>
  </scstep>
  <scstep>
   <time name="dav">    1.16    1.16</time>
   <time name="total">    1.44    1.46</time>
   <energy>
    <i name="e_fr_energy">    -23.97002713 </i>
    <i name="e_wo_entrp">    -23.96960853 </i>
    <i name="e_0_energy">    -23.96981783 </i>
   </energy>
  </scstep>
  <scstep>
   <time name="dav">    1.01    1.01</time>
   <time name="total">    1.28    1.31</time>
   <energy>
    <i name="e_fr_energy">    -23.97002585 </i>
    <i name="e_wo_entrp">    -23.96960696 </i>
    <i name="e_0_energy">    -23.96981641 </i>
   </energy>
  </scstep>
  <scstep>
   <time name="dav">    0.96    0.96</time>
   <time name="total">    1.07    1.13</time>
   <energy>
    <i name="alphaZ">    100.09415357 </i>
    <i name="ewald">  -1534.29310292 </i>
    <i name="hartreedc">   -312.51122128 </i>
    <i name="XCdc">    -20.15744729 </i>
    <i name="pawpsdc">   2423.75691351 </i>
    <i name="pawaedc">  -2335.70512671 </i>
    <i name="eentropy">     -0.00041887 </i>
    <i name="bandstr">    -86.25828709 </i>
    <i name="atom">   1741.10451121 </i>
    <i name="e_fr_energy">    -23.97002586 </i>
    <i name="e_wo_entrp">    -23.96960699 </i>
    <i name="e_0_energy">    -23.96981642 </i>
   </energy>
  </scstep>
  <structure>
   <crystal>
    <varray name="basis" >
     <v>       0.00000000       3.24061912       3.24061912 </v>
     <v>       3.24061912       0.00000000       3.24061912 </v>
     <v>       3.24061912       3.24061912       0.00000000 </v>
    </varray>
    <i name="volume">     68.06345108 </i>
    <varray name="rec_basis" >
     <v>      -0.15429150       0.15429150       0.15429150 </v>
     <v>       0.15429150      -0.15429150       0.15429150 </v>
     <v>       0.15429150       0.15429150      -0.15429150 </v>
    </varray>
   </crystal>
   <varray name="positions" >
    <v>       0.75000000       0.75000000       0.75000000 </v>
    <v>       0.25000000       0.25000000       0.25000000 </v>
    <v>       0.00000000       0.00000000       0.00000000 </v>
   </varray>
  </structure>
  <varray name="forces" >
   <v>      -0.00000000      -0.00000000      -0.00000000 </v>
   <v>       0.00000000      -0.00000000       0.00000000 </v>
   <v>      -0.00000000       0.00000000      -0.00000000 </v>
  </varray>
  <varray name="stress" >
   <v>     -70.89506969       0.00000000      -0.00000000 </v>
   <v>      -0.00000000     -70.89506969       0.00000000 </v>
   <v>       0.00000000      -0.00000000     -70.89506969 </v>
  </varray>
  <energy>
   <i name="e_fr_energy">    -23.97002586 </i>
   <i name="e_wo_entrp">    -23.96981642 </i>
   <i name="e_0_energy">     -0.00041887 </i>
  </energy>
  <time name="totalsc">   20.72   21.70</time>
  <eigenvalues>
   <array>
    <dimension dim="1">band</dimension>
    <dimension dim="2">kpoint</dimension>
    <dimension dim="3">spin</dimension>
    <field>eigene</field>
    <field>occ</field>
    <set>
     <set comment="spin 1">
      <set comment="kpoint 1">
       <r>  -24.1290    1.0000 </r>
       <r>  -24.1290    1.0000 </r>
       <r>  -24.1290    1.0000 </r>
       <r>   -4.1366    1.0000 </r>
       <r>    2.5082    1.0000 </r>
       <r>    2.5082    1.0000 </r>
       <r>    2.5082    1.0000 </r>
       <r>    3.3183    1.0000 </r>
       <r>    3.3183    1.0000 </r>
       <r>    6.7109    1.0000 </r>
       <r>    6.7109    1.0000 </r>
       <r>    6.7109    1.0000 </r>
       <r>    6.9176    1.0000 </r>
       <r>    9.0492    0.0000 </r>
       <r>    9.0492    0.0000 </r>
       <r>    9.0492    0.0000 </r>
      </set>
      <set comment="kpoint 2">
       <r>  -24.1298    1.0000 </r>
       <r>  -24.1290    1.0000 </r>
       <r>  -24.1290    1.0000 </r>
       <r>   -4.0771    1.0000 </r>
       <r>    2.4262    1.0000 </r>
       <r>    2.4864    1.0000 </r>
       <r>    2.4864    1.0000 </r>
       <r>    3.3520    1.0000 </r>
       <r>    3.3520    1.0000 </r>
       <r>    6.0910    1.0000 </r>
       <r>    6.6446    1.0000 </r>
       <r>    6.6446    1.0000 </r>
       <r>    7.2733    1.0000 </r>
       <r>    8.8946    0.0000 </r>
       <r>    8.8946    0.0000 </r>
       <r>    9.3862    0.0000 </r>
      </set>
      <set comment="kpoint 3">
       <r>  -24.1319    1.0000 </r>
       <r>  -24.1289    1.0000 </r>
       <r>  -24.1289    1.0000 </r>
       <r>   -3.9047    1.0000 </r>
       <r>    2.2000    1.0000 </r>
       <r>    2.4393    1.0000 </r>
       <r>    2.4393    1.0000 </r>
       <r>    3.4286    1.0000 </r>
       <r>    3.4286    1.0000 </r>
       <r>    5.2871    1.0000 </r>
       <r>    6.4784    1.0000 </r>
       <r>    6.4784    1.0000 </r>
       <r>    7.5381    1.0000 </r>
       <r>    8.8065    0.0000 </r>
       <r>    8.8065    0.0000 </r>
       <r>   10.1511    0.0000 </r>
      </set>
      <set comment="kpoint 4">
       <r>  -24.1349    1.0000 </r>
       <r>  -24.1288    1.0000 </r>
       <r>  -24.1288    1.0000 </r>
       <r>   -3.6392    1.0000 </r>
       <r>    1.8719    1.0000 </r>
       <r>    2.3966    1.0000 </r>
       <r>    2.3966    1.0000 </r>
       <r>    3.5024    1.0000 </r>
       <r>    3.5024    1.0000 </r>
       <r>    4.5575    1.0000 </r>
       <r>    6.2832    1.0000 </r>
       <r>    6.2832    1.0000 </r>
       <r>    7.7477    1.0000 </r>
       <r>    8.8441    0.0000 </r>
       <r>    8.8441    0.0000 </r>
       <r>   10.7556    0.0000 </r>
      </set>
      <set comment="kpoint 5">
       <r>  -24.1381    1.0000 </r>
       <r>  -24.1288    1.0000 </r>
       <r>  -24.1288    1.0000 </r>
       <r>   -3.3189    1.0000 </r>
       <r>    1.4894    1.0000 </r>
       <r>    2.3740    1.0000 </r>
       <r>    2.3740    1.0000 </r>
       <r>    3.5416    1.0000 </r>
       <r>    3.5416    1.0000 </r>
       <r>    3.9949    1.0000 </r>
       <r>    6.1203    1.0000 </r>
       <r>    6.1203    1.0000 </r>
       <r>    7.9367    1.0000 </r>
       <r>    8.9741    0.0000 </r>
       <r>    8.9741    0.0000 </r>
       <r>   10.3406    0.0000 </r>
      </set>
      <set comment="kpoint 6">
       <r>  -24.1407    1.0000 </r>
       <r>  -24.1287    1.0000 </r>
       <r>  -24.1287    1.0000 </r>
       <r>   -3.0090    1.0000 </r>
       <r>    1.1245    1.0000 </r>
       <r>    2.3707    1.0000 </r>
       <r>    2.3707    1.0000 </r>
       <r>    3.5435    1.0000 </r>
       <r>    3.5435    1.0000 </r>
       <r>    3.6316    1.0000 </r>
       <r>    6.0171    1.0000 </r>
       <r>    6.0171    1.0000 </r>
       <r>    8.1215    1.0000 </r>
       <r>    9.1475    0.0000 </r>
       <r>    9.1475    0.0000 </r>
       <r>    9.6508    0.0000 </r>
      </set>
      <set comment="kpoint 7">
       <r>  -24.1422    1.0000 </r>
       <r>  -24.1287    1.0000 </r>
       <r>  -24.1287    1.0000 </r>
       <r>   -2.8073    1.0000 </r>
       <r>    0.8890    1.0000 </r>
       <r>    2.3751    1.0000 </r>
       <r>    2.3751    1.0000 </r>
       <r>    3.4584    1.0000 </r>
       <r>    3.5317    1.0000 </r>
       <r>    3.5317    1.0000 </r>
       <r>    5.9708    1.0000 </r>
       <r>    5.9708    1.0000 </r>
       <r>    8.2881    0.0000 </r>
       <r>    9.1907    0.0000 </r>
       <r>    9.2821    0.0000 </r>
       <r>    9.2821    0.0000 </r>
      </set>
      <set comment="kpoint 8">
       <r>  -24.1297    1.0000 </r>
       <r>  -24.1291    1.0000 </r>
       <r>  -24.1291    1.0000 </r>
       <r>   -4.0576    1.0000 </r>
       <r>    2.3015    1.0000 </r>
       <r>    2.5371    1.0000 </r>
       <r>    2.5371    1.0000 </r>
       <r>    3.3490    1.0000 </r>
       <r>    3.3633    1.0000 </r>
       <r>    6.1064    1.0000 </r>
       <r>    6.5200    1.0000 </r>
       <r>    6.5200    1.0000 </r>
       <r>    7.3785    1.0000 </r>
       <r>    8.7439    0.0000 </r>
       <r>    9.3172    0.0000 </r>
       <r>    9.3173    0.0000 </r>
      </set>
      <set comment="kpoint 9">
       <r>  -24.1313    1.0000 </r>
       <r>  -24.1292    1.0000 </r>
       <r>  -24.1290    1.0000 </r>
       <r>   -3.9239    1.0000 </r>
       <r>    2.0934    1.0000 </r>
       <r>    2.5166    1.0000 </r>
       <r>    2.5440    1.0000 </r>
       <r>    3.4059    1.0000 </r>
       <r>    3.4106    1.0000 </r>
       <r>    5.5136    1.0000 </r>
       <r>    6.3322    1.0000 </r>
       <r>    6.3809    1.0000 </r>
       <r>    7.6417    1.0000 </r>
       <r>    8.6112    0.0000 </r>
       <r>    9.0509    0.0000 </r>
       <r>    9.7594    0.0000 </r>
      </set>
      <set comment="kpoint 10">
       <r>  -24.1340    1.0000 </r>
       <r>  -24.1292    1.0000 </r>
       <r>  -24.1290    1.0000 </r>
       <r>   -3.6912    1.0000 </r>
       <r>    1.8392    1.0000 </r>
       <r>    2.4374    1.0000 </r>
       <r>    2.5231    1.0000 </r>
       <r>    3.4771    1.0000 </r>
       <r>    3.4828    1.0000 </r>
       <r>    4.7965    1.0000 </r>
       <r>    6.1473    1.0000 </r>
       <r>    6.2040    1.0000 </r>
       <r>    7.9207    1.0000 </r>
       <r>    8.6236    0.0000 </r>
       <r>    8.9530    0.0000 </r>
       <r>   10.2842    0.0000 </r>
      </set>
      <set comment="kpoint 11">
       <r>  -24.1371    1.0000 </r>
       <r>  -24.1291    1.0000 </r>
       <r>  -24.1290    1.0000 </r>
       <r>   -3.3912    1.0000 </r>
       <r>    1.5382    1.0000 </r>
       <r>    2.3650    1.0000 </r>
       <r>    2.4959    1.0000 </r>
       <r>    3.5294    1.0000 </r>
       <r>    3.5343    1.0000 </r>
       <r>    4.1822    1.0000 </r>
       <r>    6.0092    1.0000 </r>
       <r>    6.0309    1.0000 </r>
       <r>    8.0637    1.0000 </r>
       <r>    8.8577    0.0000 </r>
       <r>    8.9765    0.0000 </r>
       <r>   10.4061    0.0000 </r>
      </set>
      <set comment="kpoint 12">
       <r>  -24.1398    1.0000 </r>
       <r>  -24.1290    1.0000 </r>
       <r>  -24.1290    1.0000 </r>
       <r>   -3.0789    1.0000 </r>
       <r>    1.2216    1.0000 </r>
       <r>    2.3318    1.0000 </r>
       <r>    2.4683    1.0000 </r>
       <r>    3.5414    1.0000 </r>
       <r>    3.5478    1.0000 </r>
       <r>    3.7552    1.0000 </r>
       <r>    5.9003    1.0000 </r>
       <r>    5.9321    1.0000 </r>
       <r>    8.1605    1.0000 </r>
       <r>    9.0986    0.0000 </r>
       <r>    9.1548    0.0000 </r>
       <r>    9.8185    0.0000 </r>
      </set>
      <set comment="kpoint 13">
       <r>  -24.1416    1.0000 </r>
       <r>  -24.1291    1.0000 </r>
       <r>  -24.1289    1.0000 </r>
       <r>   -2.8393    1.0000 </r>
       <r>    0.9730    1.0000 </r>
       <r>    2.3392    1.0000 </r>
       <r>    2.4336    1.0000 </r>
       <r>    3.4660    1.0000 </r>
       <r>    3.5457    1.0000 </r>
       <r>    3.5831    1.0000 </r>
       <r>    5.8208    1.0000 </r>
       <r>    5.9063    1.0000 </r>
       <r>    8.2912    0.0000 </r>
       <r>    9.1912    0.0000 </r>
       <r>    9.2497    0.0000 </r>
       <r>    9.4768    0.0000 </r>
      </set>
      <set comment="kpoint 14">
       <r>  -24.1420    1.0000 </r>
       <r>  -24.1293    1.0000 </r>
       <r>  -24.1287    1.0000 </r>
       <r>   -2.7692    1.0000 </r>
       <r>    0.9004    1.0000 </r>
       <r>    2.3752    1.0000 </r>
       <r>    2.3870    1.0000 </r>
       <r>    3.4149    1.0000 </r>
       <r>    3.5544    1.0000 </r>
       <r>    3.5632    1.0000 </r>
       <r>    5.7794    1.0000 </r>
       <r>    5.9215    1.0000 </r>
       <r>    8.3765    0.0000 </r>
       <r>    9.0170    0.0000 </r>
       <r>    9.3078    0.0000 </r>
       <r>    9.5353    0.0000 </r>
      </set>
      <set comment="kpoint 15">
       <r>  -24.1411    1.0000 </r>
       <r>  -24.1294    1.0000 </r>
       <r>  -24.1286    1.0000 </r>
       <r>   -2.9043    1.0000 </r>
       <r>    1.0451    1.0000 </r>
       <r>    2.3376    1.0000 </r>
       <r>    2.4263    1.0000 </r>
       <r>    3.4786    1.0000 </r>
       <r>    3.5735    1.0000 </r>
       <r>    3.6136    1.0000 </r>
       <r>    5.7618    1.0000 </r>
       <r>    5.9828    1.0000 </r>
       <r>    8.2798    0.0000 </r>
       <r>    9.2066    0.0000 </r>
       <r>    9.2204    0.0000 </r>
       <r>    9.5375    0.0000 </r>
      </set>
      <set comment="kpoint 16">
       <r>  -24.1389    1.0000 </r>
       <r>  -24.1295    1.0000 </r>
       <r>  -24.1286    1.0000 </r>
       <r>   -3.1791    1.0000 </r>
       <r>    1.3375    1.0000 </r>
       <r>    2.3043    1.0000 </r>
       <r>    2.4823    1.0000 </r>
       <r>    3.5128    1.0000 </r>
       <r>    3.5794    1.0000 </r>
       <r>    3.8808    1.0000 </r>
       <r>    5.7726    1.0000 </r>
       <r>    6.1047    1.0000 </r>
       <r>    8.1735    1.0000 </r>
       <r>    9.0111    0.0000 </r>
       <r>    9.1183    0.0000 </r>
       <r>   10.0333    0.0000 </r>
      </set>
      <set comment="kpoint 17">
       <r>  -24.1360    1.0000 </r>
       <r>  -24.1295    1.0000 </r>
       <r>  -24.1286    1.0000 </r>
       <r>   -3.4953    1.0000 </r>
       <r>    1.6754    1.0000 </r>
       <r>    2.3033    1.0000 </r>
       <r>    2.5358    1.0000 </r>
       <r>    3.4933    1.0000 </r>
       <r>    3.5507    1.0000 </r>
       <r>    4.3713    1.0000 </r>
       <r>    5.8375    1.0000 </r>
       <r>    6.2871    1.0000 </r>
       <r>    8.0736    1.0000 </r>
       <r>    8.8101    0.0000 </r>
       <r>    8.9540    0.0000 </r>
       <r>   10.2928    0.0000 </r>
      </set>
      <set comment="kpoint 18">
       <r>  -24.1331    1.0000 </r>
       <r>  -24.1294    1.0000 </r>
       <r>  -24.1287    1.0000 </r>
       <r>   -3.7778    1.0000 </r>
       <r>    1.9923    1.0000 </r>
       <r>    2.3408    1.0000 </r>
       <r>    2.5726    1.0000 </r>
       <r>    3.4370    1.0000 </r>
       <r>    3.4872    1.0000 </r>
       <r>    5.0207    1.0000 </r>
       <r>    5.9902    1.0000 </r>
       <r>    6.4921    1.0000 </r>
       <r>    7.8766    1.0000 </r>
       <r>    8.6744    0.0000 </r>
       <r>    8.9322    0.0000 </r>
       <r>    9.8477    0.0000 </r>
      </set>
      <set comment="kpoint 19">
       <r>  -24.1308    1.0000 </r>
       <r>  -24.1292    1.0000 </r>
       <r>  -24.1288    1.0000 </r>
       <r>   -3.9803    1.0000 </r>
       <r>    2.2551    1.0000 </r>
       <r>    2.4096    1.0000 </r>
       <r>    2.5613    1.0000 </r>
       <r>    3.3781    1.0000 </r>
       <r>    3.4097    1.0000 </r>
       <r>    5.6773    1.0000 </r>
       <r>    6.2836    1.0000 </r>
       <r>    6.6375    1.0000 </r>
       <r>    7.5549    1.0000 </r>
       <r>    8.6816    0.0000 </r>
       <r>    9.0336    0.0000 </r>
       <r>    9.4432    0.0000 </r>
      </set>
      <set comment="kpoint 20">
       <r>  -24.1319    1.0000 </r>
       <r>  -24.1294    1.0000 </r>
       <r>  -24.1294    1.0000 </r>
       <r>   -3.8331    1.0000 </r>
       <r>    1.8608    1.0000 </r>
       <r>    2.6194    1.0000 </r>
       <r>    2.6194    1.0000 </r>
       <r>    3.3891    1.0000 </r>
       <r>    3.4371    1.0000 </r>
       <r>    5.4522    1.0000 </r>
       <r>    6.1307    1.0000 </r>
       <r>    6.1307    1.0000 </r>
       <r>    7.6626    1.0000 </r>
       <r>    8.5684    0.0000 </r>
       <r>    9.1075    0.0000 </r>
       <r>    9.8795    0.0000 </r>
      </set>
      <set comment="kpoint 21">
       <r>  -24.1339    1.0000 </r>
       <r>  -24.1296    1.0000 </r>
       <r>  -24.1295    1.0000 </r>
       <r>   -3.6438    1.0000 </r>
       <r>    1.6314    1.0000 </r>
       <r>    2.6142    1.0000 </r>
       <r>    2.6495    1.0000 </r>
       <r>    3.4047    1.0000 </r>
       <r>    3.5060    1.0000 </r>
       <r>    4.9798    1.0000 </r>
       <r>    5.9302    1.0000 </r>
       <r>    5.9443    1.0000 </r>
       <r>    7.9071    1.0000 </r>
       <r>    8.5287    0.0000 </r>
       <r>    8.9852    0.0000 </r>
       <r>   10.1914    0.0000 </r>
      </set>
      <set comment="kpoint 22">
       <r>  -24.1364    1.0000 </r>
       <r>  -24.1297    1.0000 </r>
       <r>  -24.1296    1.0000 </r>
       <r>   -3.3827    1.0000 </r>
       <r>    1.4221    1.0000 </r>
       <r>    2.5239    1.0000 </r>
       <r>    2.6444    1.0000 </r>
       <r>    3.4581    1.0000 </r>
       <r>    3.5661    1.0000 </r>
       <r>    4.3978    1.0000 </r>
       <r>    5.7301    1.0000 </r>
       <r>    5.8171    1.0000 </r>
       <r>    8.1600    1.0000 </r>
       <r>    8.7193    0.0000 </r>
       <r>    8.9314    0.0000 </r>
       <r>   10.3146    0.0000 </r>
      </set>
      <set comment="kpoint 23">
       <r>  -24.1388    1.0000 </r>
       <r>  -24.1300    1.0000 </r>
       <r>  -24.1295    1.0000 </r>
       <r>   -3.0959    1.0000 </r>
       <r>    1.2365    1.0000 </r>
       <r>    2.4148    1.0000 </r>
       <r>    2.6128    1.0000 </r>
       <r>    3.5036    1.0000 </r>
       <r>    3.5909    1.0000 </r>
       <r>    3.9117    1.0000 </r>
       <r>    5.5667    1.0000 </r>
       <r>    5.7587    1.0000 </r>
       <r>    8.1842    1.0000 </r>
       <r>    9.0047    0.0000 </r>
       <r>    9.2141    0.0000 </r>
       <r>    9.9059    0.0000 </r>
      </set>
      <set comment="kpoint 24">
       <r>  -24.1406    1.0000 </r>
       <r>  -24.1304    1.0000 </r>
       <r>  -24.1293    1.0000 </r>
       <r>   -2.8526    1.0000 </r>
       <r>    1.0881    1.0000 </r>
       <r>    2.3407    1.0000 </r>
       <r>    2.5530    1.0000 </r>
       <r>    3.4584    1.0000 </r>
       <r>    3.5969    1.0000 </r>
       <r>    3.6661    1.0000 </r>
       <r>    5.4523    1.0000 </r>
       <r>    5.7505    1.0000 </r>
       <r>    8.2377    0.3506 </r>
       <r>    9.1775    0.0000 </r>
       <r>    9.3377    0.0000 </r>
       <r>    9.6741    0.0000 </r>
      </set>
      <set comment="kpoint 25">
       <r>  -24.1412    1.0000 </r>
       <r>  -24.1308    1.0000 </r>
       <r>  -24.1290    1.0000 </r>
       <r>   -2.7348    1.0000 </r>
       <r>    1.0184    1.0000 </r>
       <r>    2.3353    1.0000 </r>
       <r>    2.4673    1.0000 </r>
       <r>    3.3601    1.0000 </r>
       <r>    3.6104    1.0000 </r>
       <r>    3.6477    1.0000 </r>
       <r>    5.3747    1.0000 </r>
       <r>    5.7770    1.0000 </r>
       <r>    8.3696    0.0000 </r>
       <r>    8.9845    0.0000 </r>
       <r>    9.3224    0.0000 </r>
       <r>    9.9297    0.0000 </r>
      </set>
      <set comment="kpoint 26">
       <r>  -24.1407    1.0000 </r>
       <r>  -24.1311    1.0000 </r>
       <r>  -24.1288    1.0000 </r>
       <r>   -2.7928    1.0000 </r>
       <r>    1.0688    1.0000 </r>
       <r>    2.3740    1.0000 </r>
       <r>    2.4046    1.0000 </r>
       <r>    3.3788    1.0000 </r>
       <r>    3.6309    1.0000 </r>
       <r>    3.6942    1.0000 </r>
       <r>    5.3093    1.0000 </r>
       <r>    5.8453    1.0000 </r>
       <r>    8.4319    0.0000 </r>
       <r>    9.0465    0.0000 </r>
       <r>    9.2927    0.0000 </r>
       <r>    9.9253    0.0000 </r>
      </set>
      <set comment="kpoint 27">
       <r>  -24.1392    1.0000 </r>
       <r>  -24.1311    1.0000 </r>
       <r>  -24.1286    1.0000 </r>
       <r>   -3.0012    1.0000 </r>
       <r>    1.2297    1.0000 </r>
       <r>    2.2990    1.0000 </r>
       <r>    2.5189    1.0000 </r>
       <r>    3.4541    1.0000 </r>
       <r>    3.6367    1.0000 </r>
       <r>    3.8661    1.0000 </r>
       <r>    5.2530    1.0000 </r>
       <r>    5.9729    1.0000 </r>
       <r>    8.4299    0.0000 </r>
       <r>    9.1190    0.0000 </r>
       <r>    9.3716    0.0000 </r>
       <r>    9.8236    0.0000 </r>
      </set>
      <set comment="kpoint 28">
       <r>  -24.1370    1.0000 </r>
       <r>  -24.1308    1.0000 </r>
       <r>  -24.1285    1.0000 </r>
       <r>   -3.2823    1.0000 </r>
       <r>    1.4589    1.0000 </r>
       <r>    2.2632    1.0000 </r>
       <r>    2.6201    1.0000 </r>
       <r>    3.4781    1.0000 </r>
       <r>    3.6111    1.0000 </r>
       <r>    4.2416    1.0000 </r>
       <r>    5.2587    1.0000 </r>
       <r>    6.1583    1.0000 </r>
       <r>    8.4891    0.0000 </r>
       <r>    8.9033    0.0000 </r>
       <r>    9.1587    0.0000 </r>
       <r>    9.9856    0.0000 </r>
      </set>
      <set comment="kpoint 29">
       <r>  -24.1348    1.0000 </r>
       <r>  -24.1302    1.0000 </r>
       <r>  -24.1285    1.0000 </r>
       <r>   -3.5593    1.0000 </r>
       <r>    1.7226    1.0000 </r>
       <r>    2.2775    1.0000 </r>
       <r>    2.6496    1.0000 </r>
       <r>    3.4577    1.0000 </r>
       <r>    3.5558    1.0000 </r>
       <r>    4.6935    1.0000 </r>
       <r>    5.4650    1.0000 </r>
       <r>    6.3596    1.0000 </r>
       <r>    8.3638    0.0000 </r>
       <r>    8.7269    0.0000 </r>
       <r>    8.9308    0.0000 </r>
       <r>    9.8232    0.0000 </r>
      </set>
      <set comment="kpoint 30">
       <r>  -24.1350    1.0000 </r>
       <r>  -24.1299    1.0000 </r>
       <r>  -24.1299    1.0000 </r>
       <r>   -3.5045    1.0000 </r>
       <r>    1.4228    1.0000 </r>
       <r>    2.7411    1.0000 </r>
       <r>    2.7411    1.0000 </r>
       <r>    3.3247    1.0000 </r>
       <r>    3.5690    1.0000 </r>
       <r>    4.8703    1.0000 </r>
       <r>    5.7471    1.0000 </r>
       <r>    5.7471    1.0000 </r>
       <r>    7.7364    1.0000 </r>
       <r>    8.6038    0.0000 </r>
       <r>    8.8885    0.0000 </r>
       <r>   10.3028    0.0000 </r>
      </set>
      <set comment="kpoint 31">
       <r>  -24.1369    1.0000 </r>
       <r>  -24.1301    1.0000 </r>
       <r>  -24.1300    1.0000 </r>
       <r>   -3.2956    1.0000 </r>
       <r>    1.2655    1.0000 </r>
       <r>    2.7284    1.0000 </r>
       <r>    2.7827    1.0000 </r>
       <r>    3.3273    1.0000 </r>
       <r>    3.6368    1.0000 </r>
       <r>    4.4869    1.0000 </r>
       <r>    5.5311    1.0000 </r>
       <r>    5.6099    1.0000 </r>
       <r>    7.8821    1.0000 </r>
       <r>    8.7252    0.0000 </r>
       <r>    8.7958    0.0000 </r>
       <r>   10.3114    0.0000 </r>
      </set>
      <set comment="kpoint 32">
       <r>  -24.1387    1.0000 </r>
       <r>  -24.1307    1.0000 </r>
       <r>  -24.1300    1.0000 </r>
       <r>   -3.0560    1.0000 </r>
       <r>    1.1793    1.0000 </r>
       <r>    2.5990    1.0000 </r>
       <r>    2.7736    1.0000 </r>
       <r>    3.4093    1.0000 </r>
       <r>    3.6722    1.0000 </r>
       <r>    4.0327    1.0000 </r>
       <r>    5.2860    1.0000 </r>
       <r>    5.5519    1.0000 </r>
       <r>    8.0170    1.0000 </r>
       <r>    8.8229    0.0000 </r>
       <r>    9.1451    0.0000 </r>
       <r>    9.9875    0.0000 </r>
      </set>
      <set comment="kpoint 33">
       <r>  -24.1400    1.0000 </r>
       <r>  -24.1315    1.0000 </r>
       <r>  -24.1298    1.0000 </r>
       <r>   -2.8398    1.0000 </r>
       <r>    1.1648    1.0000 </r>
       <r>    2.4423    1.0000 </r>
       <r>    2.7116    1.0000 </r>
       <r>    3.4287    1.0000 </r>
       <r>    3.6819    1.0000 </r>
       <r>    3.7281    1.0000 </r>
       <r>    5.0848    1.0000 </r>
       <r>    5.5519    1.0000 </r>
       <r>    8.0712    1.0000 </r>
       <r>    9.0091    0.0000 </r>
       <r>    9.4931    0.0000 </r>
       <r>    9.7244    0.0000 </r>
      </set>
      <set comment="kpoint 34">
       <r>  -24.1404    1.0000 </r>
       <r>  -24.1325    1.0000 </r>
       <r>  -24.1295    1.0000 </r>
       <r>   -2.7072    1.0000 </r>
       <r>    1.1936    1.0000 </r>
       <r>    2.3237    1.0000 </r>
       <r>    2.6031    1.0000 </r>
       <r>    3.2879    1.0000 </r>
       <r>    3.6924    1.0000 </r>
       <r>    3.7401    1.0000 </r>
       <r>    4.9424    1.0000 </r>
       <r>    5.5849    1.0000 </r>
       <r>    8.1827    1.0000 </r>
       <r>    9.1020    0.0000 </r>
       <r>    9.2800    0.0000 </r>
       <r>   10.0426    0.0000 </r>
      </set>
      <set comment="kpoint 35">
       <r>  -24.1399    1.0000 </r>
       <r>  -24.1332    1.0000 </r>
       <r>  -24.1292    1.0000 </r>
       <r>   -2.7018    1.0000 </r>
       <r>    1.2153    1.0000 </r>
       <r>    2.3187    1.0000 </r>
       <r>    2.4741    1.0000 </r>
       <r>    3.2575    1.0000 </r>
       <r>    3.7045    1.0000 </r>
       <r>    3.8268    1.0000 </r>
       <r>    4.8451    1.0000 </r>
       <r>    5.6562    1.0000 </r>
       <r>    8.3683    0.0000 </r>
       <r>    8.9370    0.0000 </r>
       <r>    9.3887    0.0000 </r>
       <r>   10.0145    0.0000 </r>
      </set>
      <set comment="kpoint 36">
       <r>  -24.1389    1.0000 </r>
       <r>  -24.1332    1.0000 </r>
       <r>  -24.1288    1.0000 </r>
       <r>   -2.8266    1.0000 </r>
       <r>    1.2328    1.0000 </r>
       <r>    2.3586    1.0000 </r>
       <r>    2.4343    1.0000 </r>
       <r>    3.3468    1.0000 </r>
       <r>    3.6993    1.0000 </r>
       <r>    3.9481    1.0000 </r>
       <r>    4.7923    1.0000 </r>
       <r>    5.7841    1.0000 </r>
       <r>    8.4825    0.0000 </r>
       <r>    9.1860    0.0000 </r>
       <r>    9.2713    0.0000 </r>
       <r>    9.9218    0.0000 </r>
      </set>
      <set comment="kpoint 37">
       <r>  -24.1379    1.0000 </r>
       <r>  -24.1323    1.0000 </r>
       <r>  -24.1286    1.0000 </r>
       <r>   -3.0405    1.0000 </r>
       <r>    1.3047    1.0000 </r>
       <r>    2.2832    1.0000 </r>
       <r>    2.5702    1.0000 </r>
       <r>    3.4419    1.0000 </r>
       <r>    3.6659    1.0000 </r>
       <r>    4.1105    1.0000 </r>
       <r>    4.8790    1.0000 </r>
       <r>    5.9654    1.0000 </r>
       <r>    8.5432    0.0000 </r>
       <r>    9.0800    0.0000 </r>
       <r>    9.5926    0.0000 </r>
       <r>    9.8225    0.0000 </r>
      </set>
      <set comment="kpoint 38">
       <r>  -24.1383    1.0000 </r>
       <r>  -24.1303    1.0000 </r>
       <r>  -24.1303    1.0000 </r>
       <r>   -3.1477    1.0000 </r>
       <r>    1.1564    1.0000 </r>
       <r>    2.8780    1.0000 </r>
       <r>    2.8780    1.0000 </r>
       <r>    3.1944    1.0000 </r>
       <r>    3.7212    1.0000 </r>
       <r>    4.2985    1.0000 </r>
       <r>    5.4481    1.0000 </r>
       <r>    5.4481    1.0000 </r>
       <r>    7.7054    1.0000 </r>
       <r>    8.6436    0.0000 </r>
       <r>    8.7626    0.0000 </r>
       <r>   10.2621    0.0000 </r>
      </set>
      <set comment="kpoint 39">
       <r>  -24.1398    1.0000 </r>
       <r>  -24.1308    1.0000 </r>
       <r>  -24.1305    1.0000 </r>
       <r>   -2.9701    1.0000 </r>
       <r>    1.1333    1.0000 </r>
       <r>    2.8082    1.0000 </r>
       <r>    2.9125    1.0000 </r>
       <r>    3.2480    1.0000 </r>
       <r>    3.7754    1.0000 </r>
       <r>    3.9560    1.0000 </r>
       <r>    5.2400    1.0000 </r>
       <r>    5.3688    1.0000 </r>
       <r>    7.7738    1.0000 </r>
       <r>    8.5929    0.0000 </r>
       <r>    8.9726    0.0000 </r>
       <r>   10.0218    0.0000 </r>
      </set>
      <set comment="kpoint 40">
       <r>  -24.1406    1.0000 </r>
       <r>  -24.1317    1.0000 </r>
       <r>  -24.1304    1.0000 </r>
       <r>   -2.8034    1.0000 </r>
       <r>    1.2051    1.0000 </r>
       <r>    2.6215    1.0000 </r>
       <r>    2.8756    1.0000 </r>
       <r>    3.3472    1.0000 </r>
       <r>    3.6596    1.0000 </r>
       <r>    3.7887    1.0000 </r>
       <r>    4.9459    1.0000 </r>
       <r>    5.3624    1.0000 </r>
       <r>    7.8612    1.0000 </r>
       <r>    8.7297    0.0000 </r>
       <r>    9.4526    0.0000 </r>
       <r>    9.6921    0.0000 </r>
      </set>
      <set comment="kpoint 41">
       <r>  -24.1405    1.0000 </r>
       <r>  -24.1330    1.0000 </r>
       <r>  -24.1301    1.0000 </r>
       <r>   -2.6872    1.0000 </r>
       <r>    1.3373    1.0000 </r>
       <r>    2.4190    1.0000 </r>
       <r>    2.7691    1.0000 </r>
       <r>    3.1866    1.0000 </r>
       <r>    3.7391    1.0000 </r>
       <r>    3.7873    1.0000 </r>
       <r>    4.6845    1.0000 </r>
       <r>    5.3976    1.0000 </r>
       <r>    7.9583    1.0000 </r>
       <r>    9.0700    0.0000 </r>
       <r>    9.2449    0.0000 </r>
       <r>    9.8786    0.0000 </r>
      </set>
      <set comment="kpoint 42">
       <r>  -24.1395    1.0000 </r>
       <r>  -24.1344    1.0000 </r>
       <r>  -24.1297    1.0000 </r>
       <r>   -2.6490    1.0000 </r>
       <r>    1.4163    1.0000 </r>
       <r>    2.2668    1.0000 </r>
       <r>    2.6213    1.0000 </r>
       <r>    3.1173    1.0000 </r>
       <r>    3.7788    1.0000 </r>
       <r>    3.9240    1.0000 </r>
       <r>    4.5070    1.0000 </r>
       <r>    5.4728    1.0000 </r>
       <r>    8.1360    1.0000 </r>
       <r>    8.9976    0.0000 </r>
       <r>    9.4498    0.0000 </r>
       <r>    9.8872    0.0000 </r>
      </set>
      <set comment="kpoint 43">
       <r>  -24.1387    1.0000 </r>
       <r>  -24.1347    1.0000 </r>
       <r>  -24.1292    1.0000 </r>
       <r>   -2.6989    1.0000 </r>
       <r>    1.3369    1.0000 </r>
       <r>    2.3018    1.0000 </r>
       <r>    2.4732    1.0000 </r>
       <r>    3.2064    1.0000 </r>
       <r>    3.7506    1.0000 </r>
       <r>    4.0203    1.0000 </r>
       <r>    4.5081    1.0000 </r>
       <r>    5.6036    1.0000 </r>
       <r>    8.3671    0.0000 </r>
       <r>    8.9472    0.0000 </r>
       <r>    9.4237    0.0000 </r>
       <r>    9.8045    0.0000 </r>
      </set>
      <set comment="kpoint 44">
       <r>  -24.1411    1.0000 </r>
       <r>  -24.1307    1.0000 </r>
       <r>  -24.1307    1.0000 </r>
       <r>   -2.8609    1.0000 </r>
       <r>    1.1545    1.0000 </r>
       <r>    2.9970    1.0000 </r>
       <r>    2.9970    1.0000 </r>
       <r>    3.0624    1.0000 </r>
       <r>    3.6931    1.0000 </r>
       <r>    3.8591    1.0000 </r>
       <r>    5.2558    1.0000 </r>
       <r>    5.2558    1.0000 </r>
       <r>    7.6534    1.0000 </r>
       <r>    8.4288    0.0000 </r>
       <r>    8.8613    0.0000 </r>
       <r>    9.9682    0.0000 </r>
      </set>
      <set comment="kpoint 45">
       <r>  -24.1419    1.0000 </r>
       <r>  -24.1312    1.0000 </r>
       <r>  -24.1308    1.0000 </r>
       <r>   -2.7557    1.0000 </r>
       <r>    1.2555    1.0000 </r>
       <r>    2.8252    1.0000 </r>
       <r>    3.0053    1.0000 </r>
       <r>    3.2052    1.0000 </r>
       <r>    3.4221    1.0000 </r>
       <r>    3.8887    1.0000 </r>
       <r>    5.0736    1.0000 </r>
       <r>    5.2259    1.0000 </r>
       <r>    7.6891    1.0000 </r>
       <r>    8.4442    0.0000 </r>
       <r>    9.0514    0.0000 </r>
       <r>    9.7574    0.0000 </r>
      </set>
      <set comment="kpoint 46">
       <r>  -24.1416    1.0000 </r>
       <r>  -24.1323    1.0000 </r>
       <r>  -24.1306    1.0000 </r>
       <r>   -2.6779    1.0000 </r>
       <r>    1.4007    1.0000 </r>
       <r>    2.6207    1.0000 </r>
       <r>    2.9285    1.0000 </r>
       <r>    3.0702    1.0000 </r>
       <r>    3.5457    1.0000 </r>
       <r>    3.8755    1.0000 </r>
       <r>    4.7693    1.0000 </r>
       <r>    5.2558    1.0000 </r>
       <r>    7.7744    1.0000 </r>
       <r>    8.6943    0.0000 </r>
       <r>    9.3327    0.0000 </r>
       <r>    9.7352    0.0000 </r>
      </set>
      <set comment="kpoint 47">
       <r>  -24.1405    1.0000 </r>
       <r>  -24.1337    1.0000 </r>
       <r>  -24.1302    1.0000 </r>
       <r>   -2.6408    1.0000 </r>
       <r>    1.4962    1.0000 </r>
       <r>    2.3842    1.0000 </r>
       <r>    2.7864    1.0000 </r>
       <r>    3.0162    1.0000 </r>
       <r>    3.7951    1.0000 </r>
       <r>    3.8382    1.0000 </r>
       <r>    4.5142    1.0000 </r>
       <r>    5.3355    1.0000 </r>
       <r>    7.9174    1.0000 </r>
       <r>    9.1434    0.0000 </r>
       <r>    9.1591    0.0000 </r>
       <r>    9.6630    0.0000 </r>
      </set>
      <set comment="kpoint 48">
       <r>  -24.1427    1.0000 </r>
       <r>  -24.1310    1.0000 </r>
       <r>  -24.1310    1.0000 </r>
       <r>   -2.7123    1.0000 </r>
       <r>    1.3295    1.0000 </r>
       <r>    3.0026    1.0000 </r>
       <r>    3.0661    1.0000 </r>
       <r>    3.0661    1.0000 </r>
       <r>    3.1769    1.0000 </r>
       <r>    3.9426    1.0000 </r>
       <r>    5.1660    1.0000 </r>
       <r>    5.1660    1.0000 </r>
       <r>    7.6180    1.0000 </r>
       <r>    8.3017    0.0000 </r>
       <r>    8.8331    0.0000 </r>
       <r>    9.7503    0.0000 </r>
      </set>
      <set comment="kpoint 49">
       <r>  -24.1426    1.0000 </r>
       <r>  -24.1314    1.0000 </r>
       <r>  -24.1309    1.0000 </r>
       <r>   -2.6851    1.0000 </r>
       <r>    1.3922    1.0000 </r>
       <r>    2.8511    1.0000 </r>
       <r>    3.0190    1.0000 </r>
       <r>    3.0384    1.0000 </r>
       <r>    3.2931    1.0000 </r>
       <r>    3.9342    1.0000 </r>
       <r>    5.0213    1.0000 </r>
       <r>    5.1782    1.0000 </r>
       <r>    7.6580    1.0000 </r>
       <r>    8.3905    0.0000 </r>
       <r>    9.0251    0.0000 </r>
       <r>    9.6636    0.0000 </r>
      </set>
      <set comment="kpoint 50">
       <r>  -24.1329    1.0000 </r>
       <r>  -24.1296    1.0000 </r>
       <r>  -24.1289    1.0000 </r>
       <r>   -3.7612    1.0000 </r>
       <r>    1.8575    1.0000 </r>
       <r>    2.4593    1.0000 </r>
       <r>    2.6287    1.0000 </r>
       <r>    3.4257    1.0000 </r>
       <r>    3.4757    1.0000 </r>
       <r>    5.1342    1.0000 </r>
       <r>    5.8728    1.0000 </r>
       <r>    6.3444    1.0000 </r>
       <r>    7.9551    1.0000 </r>
       <r>    8.5354    0.0000 </r>
       <r>    9.0165    0.0000 </r>
       <r>    9.8267    0.0000 </r>
      </set>
      <set comment="kpoint 51">
       <r>  -24.1353    1.0000 </r>
       <r>  -24.1300    1.0000 </r>
       <r>  -24.1288    1.0000 </r>
       <r>   -3.5133    1.0000 </r>
       <r>    1.6106    1.0000 </r>
       <r>    2.3879    1.0000 </r>
       <r>    2.6377    1.0000 </r>
       <r>    3.4678    1.0000 </r>
       <r>    3.5451    1.0000 </r>
       <r>    4.5846    1.0000 </r>
       <r>    5.5965    1.0000 </r>
       <r>    6.1962    1.0000 </r>
       <r>    8.2865    0.0000 </r>
       <r>    8.6156    0.0000 </r>
       <r>    8.9682    0.0000 </r>
       <r>   10.0855    0.0000 </r>
      </set>
      <set comment="kpoint 52">
       <r>  -24.1379    1.0000 </r>
       <r>  -24.1302    1.0000 </r>
       <r>  -24.1288    1.0000 </r>
       <r>   -3.2192    1.0000 </r>
       <r>    1.3638    1.0000 </r>
       <r>    2.3409    1.0000 </r>
       <r>    2.5873    1.0000 </r>
       <r>    3.4999    1.0000 </r>
       <r>    3.5870    1.0000 </r>
       <r>    4.0613    1.0000 </r>
       <r>    5.5001    1.0000 </r>
       <r>    6.0230    1.0000 </r>
       <r>    8.3039    0.0000 </r>
       <r>    8.9213    0.0000 </r>
       <r>    9.1392    0.0000 </r>
       <r>   10.0982    0.0000 </r>
      </set>
      <set comment="kpoint 53">
       <r>  -24.1401    1.0000 </r>
       <r>  -24.1303    1.0000 </r>
       <r>  -24.1289    1.0000 </r>
       <r>   -2.9420    1.0000 </r>
       <r>    1.1409    1.0000 </r>
       <r>    2.3269    1.0000 </r>
       <r>    2.5147    1.0000 </r>
       <r>    3.4767    1.0000 </r>
       <r>    3.5939    1.0000 </r>
       <r>    3.7299    1.0000 </r>
       <r>    5.4825    1.0000 </r>
       <r>    5.8951    1.0000 </r>
       <r>    8.3135    0.0000 </r>
       <r>    9.1052    0.0000 </r>
       <r>    9.3846    0.0000 </r>
       <r>    9.6617    0.0000 </r>
      </set>
      <set comment="kpoint 54">
       <r>  -24.1413    1.0000 </r>
       <r>  -24.1303    1.0000 </r>
       <r>  -24.1289    1.0000 </r>
       <r>   -2.7668    1.0000 </r>
       <r>    0.9981    1.0000 </r>
       <r>    2.3363    1.0000 </r>
       <r>    2.4556    1.0000 </r>
       <r>    3.3930    1.0000 </r>
       <r>    3.5783    1.0000 </r>
       <r>    3.6423    1.0000 </r>
       <r>    5.4854    1.0000 </r>
       <r>    5.8339    1.0000 </r>
       <r>    8.3965    0.0000 </r>
       <r>    8.9927    0.0000 </r>
       <r>    9.3169    0.0000 </r>
       <r>    9.8008    0.0000 </r>
      </set>
      <set comment="kpoint 55">
       <r>  -24.1356    1.0000 </r>
       <r>  -24.1302    1.0000 </r>
       <r>  -24.1294    1.0000 </r>
       <r>   -3.4425    1.0000 </r>
       <r>    1.4287    1.0000 </r>
       <r>    2.5837    1.0000 </r>
       <r>    2.7250    1.0000 </r>
       <r>    3.4040    1.0000 </r>
       <r>    3.5705    1.0000 </r>
       <r>    4.6575    1.0000 </r>
       <r>    5.5090    1.0000 </r>
       <r>    5.9199    1.0000 </r>
       <r>    8.0898    1.0000 </r>
       <r>    8.6009    0.0000 </r>
       <r>    8.9161    0.0000 </r>
       <r>   10.2186    0.0000 </r>
      </set>
      <set comment="kpoint 56">
       <r>  -24.1376    1.0000 </r>
       <r>  -24.1308    1.0000 </r>
       <r>  -24.1294    1.0000 </r>
       <r>   -3.1906    1.0000 </r>
       <r>    1.2757    1.0000 </r>
       <r>    2.5034    1.0000 </r>
       <r>    2.7199    1.0000 </r>
       <r>    3.4522    1.0000 </r>
       <r>    3.6118    1.0000 </r>
       <r>    4.2223    1.0000 </r>
       <r>    5.2606    1.0000 </r>
       <r>    5.8066    1.0000 </r>
       <r>    8.2311    0.7114 </r>
       <r>    8.7767    0.0000 </r>
       <r>    9.0989    0.0000 </r>
       <r>   10.1504    0.0000 </r>
      </set>
      <set comment="kpoint 57">
       <r>  -24.1393    1.0000 </r>
       <r>  -24.1313    1.0000 </r>
       <r>  -24.1294    1.0000 </r>
       <r>   -2.9401    1.0000 </r>
       <r>    1.1810    1.0000 </r>
       <r>    2.4037    1.0000 </r>
       <r>    2.6657    1.0000 </r>
       <r>    3.4797    1.0000 </r>
       <r>    3.6096    1.0000 </r>
       <r>    3.8558    1.0000 </r>
       <r>    5.1465    1.0000 </r>
       <r>    5.7106    1.0000 </r>
       <r>    8.2388    0.2960 </r>
       <r>    8.9414    0.0000 </r>
       <r>    9.5641    0.0000 </r>
       <r>    9.6754    0.0000 </r>
      </set>
      <set comment="kpoint 58">
       <r>  -24.1404    1.0000 </r>
       <r>  -24.1318    1.0000 </r>
       <r>  -24.1294    1.0000 </r>
       <r>   -2.7576    1.0000 </r>
       <r>    1.1397    1.0000 </r>
       <r>    2.3159    1.0000 </r>
       <r>    2.5971    1.0000 </r>
       <r>    3.3691    1.0000 </r>
       <r>    3.6105    1.0000 </r>
       <r>    3.7476    1.0000 </r>
       <r>    5.0779    1.0000 </r>
       <r>    5.6746    1.0000 </r>
       <r>    8.2964    0.0000 </r>
       <r>    9.0409    0.0000 </r>
       <r>    9.2795    0.0000 </r>
       <r>    9.9779    0.0000 </r>
      </set>
      <set comment="kpoint 59">
       <r>  -24.1405    1.0000 </r>
       <r>  -24.1322    1.0000 </r>
       <r>  -24.1292    1.0000 </r>
       <r>   -2.7048    1.0000 </r>
       <r>    1.1376    1.0000 </r>
       <r>    2.2898    1.0000 </r>
       <r>    2.5344    1.0000 </r>
       <r>    3.3033    1.0000 </r>
       <r>    3.6296    1.0000 </r>
       <r>    3.7588    1.0000 </r>
       <r>    5.0286    1.0000 </r>
       <r>    5.6910    1.0000 </r>
       <r>    8.4222    0.0000 </r>
       <r>    8.8633    0.0000 </r>
       <r>    9.3421    0.0000 </r>
       <r>   10.0941    0.0000 </r>
      </set>
      <set comment="kpoint 60">
       <r>  -24.1398    1.0000 </r>
       <r>  -24.1323    1.0000 </r>
       <r>  -24.1290    1.0000 </r>
       <r>   -2.8022    1.0000 </r>
       <r>    1.1717    1.0000 </r>
       <r>    2.3212    1.0000 </r>
       <r>    2.5206    1.0000 </r>
       <r>    3.3685    1.0000 </r>
       <r>    3.6474    1.0000 </r>
       <r>    3.8209    1.0000 </r>
       <r>    4.9911    1.0000 </r>
       <r>    5.7607    1.0000 </r>
       <r>    8.4489    0.0000 </r>
       <r>    9.0168    0.0000 </r>
       <r>    9.3007    0.0000 </r>
       <r>   10.0346    0.0000 </r>
      </set>
      <set comment="kpoint 61">
       <r>  -24.1384    1.0000 </r>
       <r>  -24.1319    1.0000 </r>
       <r>  -24.1288    1.0000 </r>
       <r>   -3.0136    1.0000 </r>
       <r>    1.2580    1.0000 </r>
       <r>    2.3290    1.0000 </r>
       <r>    2.5992    1.0000 </r>
       <r>    3.4584    1.0000 </r>
       <r>    3.6391    1.0000 </r>
       <r>    4.0184    1.0000 </r>
       <r>    4.9888    1.0000 </r>
       <r>    5.8929    1.0000 </r>
       <r>    8.4812    0.0000 </r>
       <r>    8.9478    0.0000 </r>
       <r>    9.5475    0.0000 </r>
       <r>    9.8492    0.0000 </r>
      </set>
      <set comment="kpoint 62">
       <r>  -24.1369    1.0000 </r>
       <r>  -24.1311    1.0000 </r>
       <r>  -24.1287    1.0000 </r>
       <r>   -3.2720    1.0000 </r>
       <r>    1.4071    1.0000 </r>
       <r>    2.3409    1.0000 </r>
       <r>    2.6694    1.0000 </r>
       <r>    3.4755    1.0000 </r>
       <r>    3.6031    1.0000 </r>
       <r>    4.3342    1.0000 </r>
       <r>    5.1427    1.0000 </r>
       <r>    6.0643    1.0000 </r>
       <r>    8.5459    0.0000 </r>
       <r>    8.7422    0.0000 </r>
       <r>    9.1576    0.0000 </r>
       <r>   10.0195    0.0000 </r>
      </set>
      <set comment="kpoint 63">
       <r>  -24.1384    1.0000 </r>
       <r>  -24.1308    1.0000 </r>
       <r>  -24.1300    1.0000 </r>
       <r>   -3.1005    1.0000 </r>
       <r>    1.1738    1.0000 </r>
       <r>    2.6905    1.0000 </r>
       <r>    2.8421    1.0000 </r>
       <r>    3.3383    1.0000 </r>
       <r>    3.6892    1.0000 </r>
       <r>    4.1901    1.0000 </r>
       <r>    5.2240    1.0000 </r>
       <r>    5.5617    1.0000 </r>
       <r>    7.9425    1.0000 </r>
       <r>    8.6801    0.0000 </r>
       <r>    8.9985    0.0000 </r>
       <r>   10.1539    0.0000 </r>
      </set>
      <set comment="kpoint 64">
       <r>  -24.1396    1.0000 </r>
       <r>  -24.1316    1.0000 </r>
       <r>  -24.1301    1.0000 </r>
       <r>   -2.8987    1.0000 </r>
       <r>    1.1739    1.0000 </r>
       <r>    2.5539    1.0000 </r>
       <r>    2.8384    1.0000 </r>
       <r>    3.4231    1.0000 </r>
       <r>    3.6614    1.0000 </r>
       <r>    3.8884    1.0000 </r>
       <r>    4.9518    1.0000 </r>
       <r>    5.5128    1.0000 </r>
       <r>    8.0327    1.0000 </r>
       <r>    8.7185    0.0000 </r>
       <r>    9.4818    0.0000 </r>
       <r>    9.7327    0.0000 </r>
      </set>
      <set comment="kpoint 65">
       <r>  -24.1401    1.0000 </r>
       <r>  -24.1326    1.0000 </r>
       <r>  -24.1300    1.0000 </r>
       <r>   -2.7390    1.0000 </r>
       <r>    1.2534    1.0000 </r>
       <r>    2.3871    1.0000 </r>
       <r>    2.7805    1.0000 </r>
       <r>    3.3330    1.0000 </r>
       <r>    3.6357    1.0000 </r>
       <r>    3.8102    1.0000 </r>
       <r>    4.7435    1.0000 </r>
       <r>    5.5056    1.0000 </r>
       <r>    8.0997    1.0000 </r>
       <r>    8.9503    0.0000 </r>
       <r>    9.2679    0.0000 </r>
       <r>    9.9144    0.0000 </r>
      </set>
      <set comment="kpoint 66">
       <r>  -24.1398    1.0000 </r>
       <r>  -24.1337    1.0000 </r>
       <r>  -24.1297    1.0000 </r>
       <r>   -2.6635    1.0000 </r>
       <r>    1.3383    1.0000 </r>
       <r>    2.2527    1.0000 </r>
       <r>    2.6837    1.0000 </r>
       <r>    3.1913    1.0000 </r>
       <r>    3.7008    1.0000 </r>
       <r>    3.8585    1.0000 </r>
       <r>    4.6034    1.0000 </r>
       <r>    5.5352    1.0000 </r>
       <r>    8.2367    0.4045 </r>
       <r>    8.9541    0.0000 </r>
       <r>    9.2582    0.0000 </r>
       <r>    9.8930    0.0000 </r>
      </set>
      <set comment="kpoint 67">
       <r>  -24.1391    1.0000 </r>
       <r>  -24.1342    1.0000 </r>
       <r>  -24.1294    1.0000 </r>
       <r>   -2.6935    1.0000 </r>
       <r>    1.3209    1.0000 </r>
       <r>    2.2535    1.0000 </r>
       <r>    2.5828    1.0000 </r>
       <r>    3.2229    1.0000 </r>
       <r>    3.7139    1.0000 </r>
       <r>    3.9503    1.0000 </r>
       <r>    4.5522    1.0000 </r>
       <r>    5.6054    1.0000 </r>
       <r>    8.4291    0.0000 </r>
       <r>    8.8721    0.0000 </r>
       <r>    9.2763    0.0000 </r>
       <r>    9.9209    0.0000 </r>
      </set>
      <set comment="kpoint 68">
       <r>  -24.1386    1.0000 </r>
       <r>  -24.1335    1.0000 </r>
       <r>  -24.1291    1.0000 </r>
       <r>   -2.8218    1.0000 </r>
       <r>    1.2543    1.0000 </r>
       <r>    2.3218    1.0000 </r>
       <r>    2.5484    1.0000 </r>
       <r>    3.3537    1.0000 </r>
       <r>    3.6863    1.0000 </r>
       <r>    4.0100    1.0000 </r>
       <r>    4.6543    1.0000 </r>
       <r>    5.7304    1.0000 </r>
       <r>    8.5056    0.0000 </r>
       <r>    9.0279    0.0000 </r>
       <r>    9.2722    0.0000 </r>
       <r>    9.9230    0.0000 </r>
      </set>
      <set comment="kpoint 69">
       <r>  -24.1408    1.0000 </r>
       <r>  -24.1313    1.0000 </r>
       <r>  -24.1306    1.0000 </r>
       <r>   -2.8306    1.0000 </r>
       <r>    1.1857    1.0000 </r>
       <r>    2.7187    1.0000 </r>
       <r>    2.9683    1.0000 </r>
       <r>    3.2997    1.0000 </r>
       <r>    3.6382    1.0000 </r>
       <r>    3.8343    1.0000 </r>
       <r>    5.0036    1.0000 </r>
       <r>    5.3465    1.0000 </r>
       <r>    7.8026    1.0000 </r>
       <r>    8.5284    0.0000 </r>
       <r>    9.2366    0.0000 </r>
       <r>    9.7828    0.0000 </r>
      </set>
      <set comment="kpoint 70">
       <r>  -24.1410    1.0000 </r>
       <r>  -24.1323    1.0000 </r>
       <r>  -24.1306    1.0000 </r>
       <r>   -2.7146    1.0000 </r>
       <r>    1.3223    1.0000 </r>
       <r>    2.5414    1.0000 </r>
       <r>    2.9485    1.0000 </r>
       <r>    3.2696    1.0000 </r>
       <r>    3.5276    1.0000 </r>
       <r>    3.8374    1.0000 </r>
       <r>    4.6948    1.0000 </r>
       <r>    5.3682    1.0000 </r>
       <r>    7.8902    1.0000 </r>
       <r>    8.6378    0.0000 </r>
       <r>    9.3897    0.0000 </r>
       <r>    9.7844    0.0000 </r>
      </set>
      <set comment="kpoint 71">
       <r>  -24.1403    1.0000 </r>
       <r>  -24.1336    1.0000 </r>
       <r>  -24.1303    1.0000 </r>
       <r>   -2.6465    1.0000 </r>
       <r>    1.4751    1.0000 </r>
       <r>    2.3370    1.0000 </r>
       <r>    2.8569    1.0000 </r>
       <r>    3.0763    1.0000 </r>
       <r>    3.7386    1.0000 </r>
       <r>    3.8324    1.0000 </r>
       <r>    4.4308    1.0000 </r>
       <r>    5.4118    1.0000 </r>
       <r>    8.0121    1.0000 </r>
       <r>    8.9404    0.0000 </r>
       <r>    9.1808    0.0000 </r>
       <r>    9.6301    0.0000 </r>
      </set>
      <set comment="kpoint 72">
       <r>  -24.1392    1.0000 </r>
       <r>  -24.1348    1.0000 </r>
       <r>  -24.1299    1.0000 </r>
       <r>   -2.6388    1.0000 </r>
       <r>    1.4892    1.0000 </r>
       <r>    2.2057    1.0000 </r>
       <r>    2.7156    1.0000 </r>
       <r>    3.0869    1.0000 </r>
       <r>    3.7715    1.0000 </r>
       <r>    3.9853    1.0000 </r>
       <r>    4.3061    1.0000 </r>
       <r>    5.4853    1.0000 </r>
       <r>    8.2117    0.9995 </r>
       <r>    8.9181    0.0000 </r>
       <r>    9.3145    0.0000 </r>
       <r>    9.6781    0.0000 </r>
      </set>
      <set comment="kpoint 73">
       <r>  -24.1421    1.0000 </r>
       <r>  -24.1316    1.0000 </r>
       <r>  -24.1309    1.0000 </r>
       <r>   -2.6935    1.0000 </r>
       <r>    1.3706    1.0000 </r>
       <r>    2.7248    1.0000 </r>
       <r>    3.0127    1.0000 </r>
       <r>    3.1813    1.0000 </r>
       <r>    3.3243    1.0000 </r>
       <r>    3.9039    1.0000 </r>
       <r>    4.8712    1.0000 </r>
       <r>    5.2624    1.0000 </r>
       <r>    7.7250    1.0000 </r>
       <r>    8.4271    0.0000 </r>
       <r>    9.2627    0.0000 </r>
       <r>    9.6525    0.0000 </r>
      </set>
      <set comment="kpoint 74">
       <r>  -24.1415    1.0000 </r>
       <r>  -24.1325    1.0000 </r>
       <r>  -24.1307    1.0000 </r>
       <r>   -2.6560    1.0000 </r>
       <r>    1.4699    1.0000 </r>
       <r>    2.5377    1.0000 </r>
       <r>    2.9477    1.0000 </r>
       <r>    3.0866    1.0000 </r>
       <r>    3.5189    1.0000 </r>
       <r>    3.8716    1.0000 </r>
       <r>    4.5901    1.0000 </r>
       <r>    5.3289    1.0000 </r>
       <r>    7.8403    1.0000 </r>
       <r>    8.5983    0.0000 </r>
       <r>    9.3825    0.0000 </r>
       <r>    9.5775    0.0000 </r>
      </set>
      <set comment="kpoint 75">
       <r>  -24.1386    1.0000 </r>
       <r>  -24.1320    1.0000 </r>
       <r>  -24.1294    1.0000 </r>
       <r>   -2.9759    1.0000 </r>
       <r>    1.2128    1.0000 </r>
       <r>    2.4358    1.0000 </r>
       <r>    2.7288    1.0000 </r>
       <r>    3.4755    1.0000 </r>
       <r>    3.6126    1.0000 </r>
       <r>    4.0464    1.0000 </r>
       <r>    4.8794    1.0000 </r>
       <r>    5.7157    1.0000 </r>
       <r>    8.3458    0.0000 </r>
       <r>    8.7395    0.0000 </r>
       <r>    9.5551    0.0000 </r>
       <r>    9.7979    0.0000 </r>
      </set>
      <set comment="kpoint 76">
       <r>  -24.1393    1.0000 </r>
       <r>  -24.1330    1.0000 </r>
       <r>  -24.1296    1.0000 </r>
       <r>   -2.7890    1.0000 </r>
       <r>    1.2395    1.0000 </r>
       <r>    2.3334    1.0000 </r>
       <r>    2.7099    1.0000 </r>
       <r>    3.3881    1.0000 </r>
       <r>    3.6180    1.0000 </r>
       <r>    3.9120    1.0000 </r>
       <r>    4.6866    1.0000 </r>
       <r>    5.6295    1.0000 </r>
       <r>    8.3832    0.0000 </r>
       <r>    8.8604    0.0000 </r>
       <r>    9.2485    0.0000 </r>
       <r>    9.9807    0.0000 </r>
      </set>
      <set comment="kpoint 77">
       <r>  -24.1396    1.0000 </r>
       <r>  -24.1335    1.0000 </r>
       <r>  -24.1297    1.0000 </r>
       <r>   -2.6799    1.0000 </r>
       <r>    1.3059    1.0000 </r>
       <r>    2.2298    1.0000 </r>
       <r>    2.7040    1.0000 </r>
       <r>    3.2484    1.0000 </r>
       <r>    3.6385    1.0000 </r>
       <r>    3.8709    1.0000 </r>
       <r>    4.6065    1.0000 </r>
       <r>    5.5916    1.0000 </r>
       <r>    8.4472    0.0000 </r>
       <r>    8.7922    0.0000 </r>
       <r>    9.1727    0.0000 </r>
       <r>    9.9275    0.0000 </r>
      </set>
      <set comment="kpoint 78">
       <r>  -24.1399    1.0000 </r>
       <r>  -24.1327    1.0000 </r>
       <r>  -24.1302    1.0000 </r>
[...]
       <r>    8.6762    0.0000 </r>
       <r>    9.2999    0.0000 </r>
       <r>    9.8560    0.0000 </r>
      </set>
      <set comment="kpoint 79">
       <r>  -24.1397    1.0000 </r>
       <r>  -24.1338    1.0000 </r>
       <r>  -24.1303    1.0000 </r>
       <r>   -2.6611    1.0000 </r>
       <r>    1.4362    1.0000 </r>
       <r>    2.2620    1.0000 </r>
       <r>    2.8936    1.0000 </r>
       <r>    3.2235    1.0000 </r>
       <r>    3.6201    1.0000 </r>
       <r>    3.8696    1.0000 </r>
       <r>    4.3236    1.0000 </r>
       <r>    5.5129    1.0000 </r>
       <r>    8.2729    0.0000 </r>
       <r>    8.8288    0.0000 </r>
       <r>    8.9789    0.0000 </r>
       <r>    9.6864    0.0000 </r>
      </set>
      <set comment="kpoint 80">
       <r>  -24.1391    1.0000 </r>
       <r>  -24.1347    1.0000 </r>
       <r>  -24.1302    1.0000 </r>
       <r>   -2.6335    1.0000 </r>
       <r>    1.5178    1.0000 </r>
       <r>    2.1589    1.0000 </r>
       <r>    2.8546    1.0000 </r>
       <r>    3.1313    1.0000 </r>
       <r>    3.6931    1.0000 </r>
       <r>    3.9456    1.0000 </r>
       <r>    4.1786    1.0000 </r>
       <r>    5.5330    1.0000 </r>
       <r>    8.4336    0.0000 </r>
       <r>    8.7520    0.0000 </r>
       <r>    9.0238    0.0000 </r>
       <r>    9.5693    0.0000 </r>
      </set>
      <set comment="kpoint 81">
       <r>  -24.1390    1.0000 </r>
       <r>  -24.1344    1.0000 </r>
       <r>  -24.1299    1.0000 </r>
       <r>   -2.6789    1.0000 </r>
       <r>    1.3947    1.0000 </r>
       <r>    2.2206    1.0000 </r>
       <r>    2.7801    1.0000 </r>
       <r>    3.2245    1.0000 </r>
       <r>    3.6688    1.0000 </r>
       <r>    3.9738    1.0000 </r>
       <r>    4.3173    1.0000 </r>
       <r>    5.5648    1.0000 </r>
       <r>    8.5126    0.0000 </r>
       <r>    8.7825    0.0000 </r>
       <r>    8.9740    0.0000 </r>
       <r>    9.8438    0.0000 </r>
      </set>
      <set comment="kpoint 82">
       <r>  -24.1407    1.0000 </r>
       <r>  -24.1331    1.0000 </r>
       <r>  -24.1308    1.0000 </r>
       <r>   -2.6515    1.0000 </r>
       <r>    1.4864    1.0000 </r>
       <r>    2.3890    1.0000 </r>
       <r>    2.9519    1.0000 </r>
       <r>    3.2490    1.0000 </r>
       <r>    3.4996    1.0000 </r>
       <r>    3.8306    1.0000 </r>
       <r>    4.3700    1.0000 </r>
       <r>    5.4389    1.0000 </r>
       <r>    8.0418    1.0000 </r>
       <r>    8.5901    0.0000 </r>
       <r>    9.2383    0.0000 </r>
       <r>    9.5593    0.0000 </r>
      </set>
      <set comment="kpoint 83">
       <r>  -24.1397    1.0000 </r>
       <r>  -24.1342    1.0000 </r>
       <r>  -24.1306    1.0000 </r>
       <r>   -2.6236    1.0000 </r>
       <r>    1.5969    1.0000 </r>
       <r>    2.2245    1.0000 </r>
       <r>    2.9164    1.0000 </r>
       <r>    3.1619    1.0000 </r>
       <r>    3.6960    1.0000 </r>
       <r>    3.7872    1.0000 </r>
       <r>    4.1505    1.0000 </r>
       <r>    5.4930    1.0000 </r>
       <r>    8.2264    0.8885 </r>
       <r>    8.7387    0.0000 </r>
       <r>    9.0581    0.0000 </r>
       <r>    9.4052    0.0000 </r>
      </set>
      <set comment="kpoint 84">
       <r>  -24.1391    1.0000 </r>
       <r>  -24.1347    1.0000 </r>
       <r>  -24.1306    1.0000 </r>
       <r>   -2.6197    1.0000 </r>
       <r>    1.6242    1.0000 </r>
       <r>    2.1490    1.0000 </r>
       <r>    2.9175    1.0000 </r>
       <r>    3.2411    1.0000 </r>
       <r>    3.6429    1.0000 </r>
       <r>    3.8168    1.0000 </r>
       <r>    4.0400    1.0000 </r>
       <r>    5.5359    1.0000 </r>
       <r>    8.5104    0.0000 </r>
       <r>    8.7143    0.0000 </r>
       <r>    8.7985    0.0000 </r>
       <r>    9.3975    0.0000 </r>
      </set>
     </set>
    </set>
   </array>
  </eigenvalues>
  <separator name="orbital magnetization" >
   <v name="MAGDIPOLOUT">      0.00000000      0.00000000      0.00000000</v>
  </separator>
  <dos>
   <i name="efermi">      8.23499850 </i>
   <total>
    <array>
     <dimension dim="1">gridpoints</dimension>
     <dimension dim="2">spin</dimension>
     <field>energy</field>
     <field>total</field>
     <field>integrated</field>
     <set>
      <set comment="spin 1">
       <r>   -25.8876     0.0000     0.0000 </r>
       <r>   -25.7597     0.0000     0.0000 </r>
       <r>   -25.6317     0.0000     0.0000 </r>
       <r>   -25.5038     0.0000     0.0000 </r>
       <r>   -25.3758     0.0000     0.0000 </r>
       <r>   -25.2478     0.0000     0.0000 </r>
       <r>   -25.1199     0.0000     0.0000 </r>
       <r>   -24.9919     0.0000     0.0000 </r>
       <r>   -24.8639     0.0000     0.0000 </r>
       <r>   -24.7360     0.0000     0.0000 </r>
       <r>   -24.6080     0.0000     0.0000 </r>
       <r>   -24.4801     0.0000     0.0000 </r>
       <r>   -24.3521     0.0000     0.0000 </r>
       <r>   -24.2241     0.0000     0.0000 </r>
       <r>   -24.0962    46.8895     6.0000 </r>
       <r>   -23.9682     0.0000     6.0000 </r>
       <r>   -23.8403     0.0000     6.0000 </r>
       <r>   -23.7123     0.0000     6.0000 </r>
       <r>   -23.5843     0.0000     6.0000 </r>
       <r>   -23.4564     0.0000     6.0000 </r>
       <r>   -23.3284     0.0000     6.0000 </r>
       <r>   -23.2005     0.0000     6.0000 </r>
       <r>   -23.0725     0.0000     6.0000 </r>
       <r>   -22.9445     0.0000     6.0000 </r>
       <r>   -22.8166     0.0000     6.0000 </r>
       <r>   -22.6886     0.0000     6.0000 </r>
       <r>   -22.5607     0.0000     6.0000 </r>
       <r>   -22.4327     0.0000     6.0000 </r>
       <r>   -22.3047     0.0000     6.0000 </r>
       <r>   -22.1768     0.0000     6.0000 </r>
       <r>   -22.0488     0.0000     6.0000 </r>
       <r>   -21.9209     0.0000     6.0000 </r>
       <r>   -21.7929     0.0000     6.0000 </r>
       <r>   -21.6649     0.0000     6.0000 </r>
       <r>   -21.5370     0.0000     6.0000 </r>
       <r>   -21.4090     0.0000     6.0000 </r>
       <r>   -21.2811     0.0000     6.0000 </r>
       <r>   -21.1531     0.0000     6.0000 </r>
       <r>   -21.0251     0.0000     6.0000 </r>
       <r>   -20.8972     0.0000     6.0000 </r>
       <r>   -20.7692     0.0000     6.0000 </r>
       <r>   -20.6413     0.0000     6.0000 </r>
       <r>   -20.5133     0.0000     6.0000 </r>
       <r>   -20.3853     0.0000     6.0000 </r>
       <r>   -20.2574     0.0000     6.0000 </r>
       <r>   -20.1294     0.0000     6.0000 </r>
       <r>   -20.0015     0.0000     6.0000 </r>
       <r>   -19.8735     0.0000     6.0000 </r>
       <r>   -19.7455     0.0000     6.0000 </r>
       <r>   -19.6176     0.0000     6.0000 </r>
       <r>   -19.4896     0.0000     6.0000 </r>
       <r>   -19.3617     0.0000     6.0000 </r>
       <r>   -19.2337     0.0000     6.0000 </r>
       <r>   -19.1057     0.0000     6.0000 </r>
       <r>   -18.9778     0.0000     6.0000 </r>
       <r>   -18.8498     0.0000     6.0000 </r>
       <r>   -18.7219     0.0000     6.0000 </r>
       <r>   -18.5939     0.0000     6.0000 </r>
       <r>   -18.4659     0.0000     6.0000 </r>
       <r>   -18.3380     0.0000     6.0000 </r>
       <r>   -18.2100     0.0000     6.0000 </r>
       <r>   -18.0821     0.0000     6.0000 </r>
       <r>   -17.9541     0.0000     6.0000 </r>
       <r>   -17.8261     0.0000     6.0000 </r>
       <r>   -17.6982     0.0000     6.0000 </r>
       <r>   -17.5702     0.0000     6.0000 </r>
       <r>   -17.4422     0.0000     6.0000 </r>
       <r>   -17.3143     0.0000     6.0000 </r>
       <r>   -17.1863     0.0000     6.0000 </r>
       <r>   -17.0584     0.0000     6.0000 </r>
       <r>   -16.9304     0.0000     6.0000 </r>
       <r>   -16.8024     0.0000     6.0000 </r>
       <r>   -16.6745     0.0000     6.0000 </r>
       <r>   -16.5465     0.0000     6.0000 </r>
       <r>   -16.4186     0.0000     6.0000 </r>
       <r>   -16.2906     0.0000     6.0000 </r>
       <r>   -16.1626     0.0000     6.0000 </r>
       <r>   -16.0347     0.0000     6.0000 </r>
       <r>   -15.9067     0.0000     6.0000 </r>
       <r>   -15.7788     0.0000     6.0000 </r>
       <r>   -15.6508     0.0000     6.0000 </r>
       <r>   -15.5228     0.0000     6.0000 </r>
       <r>   -15.3949     0.0000     6.0000 </r>
       <r>   -15.2669     0.0000     6.0000 </r>
       <r>   -15.1390     0.0000     6.0000 </r>
       <r>   -15.0110     0.0000     6.0000 </r>
       <r>   -14.8830     0.0000     6.0000 </r>
       <r>   -14.7551     0.0000     6.0000 </r>
       <r>   -14.6271     0.0000     6.0000 </r>
       <r>   -14.4992     0.0000     6.0000 </r>
       <r>   -14.3712     0.0000     6.0000 </r>
       <r>   -14.2432     0.0000     6.0000 </r>
       <r>   -14.1153     0.0000     6.0000 </r>
       <r>   -13.9873     0.0000     6.0000 </r>
       <r>   -13.8594     0.0000     6.0000 </r>
       <r>   -13.7314     0.0000     6.0000 </r>
       <r>   -13.6034     0.0000     6.0000 </r>
       <r>   -13.4755     0.0000     6.0000 </r>
       <r>   -13.3475     0.0000     6.0000 </r>
       <r>   -13.2196     0.0000     6.0000 </r>
       <r>   -13.0916     0.0000     6.0000 </r>
       <r>   -12.9636     0.0000     6.0000 </r>
       <r>   -12.8357     0.0000     6.0000 </r>
       <r>   -12.7077     0.0000     6.0000 </r>
       <r>   -12.5798     0.0000     6.0000 </r>
       <r>   -12.4518     0.0000     6.0000 </r>
       <r>   -12.3238     0.0000     6.0000 </r>
       <r>   -12.1959     0.0000     6.0000 </r>
       <r>   -12.0679     0.0000     6.0000 </r>
       <r>   -11.9400     0.0000     6.0000 </r>
       <r>   -11.8120     0.0000     6.0000 </r>
       <r>   -11.6840     0.0000     6.0000 </r>
       <r>   -11.5561     0.0000     6.0000 </r>
       <r>   -11.4281     0.0000     6.0000 </r>
       <r>   -11.3002     0.0000     6.0000 </r>
       <r>   -11.1722     0.0000     6.0000 </r>
       <r>   -11.0442     0.0000     6.0000 </r>
       <r>   -10.9163     0.0000     6.0000 </r>
       <r>   -10.7883     0.0000     6.0000 </r>
       <r>   -10.6604     0.0000     6.0000 </r>
       <r>   -10.5324     0.0000     6.0000 </r>
       <r>   -10.4044     0.0000     6.0000 </r>
       <r>   -10.2765     0.0000     6.0000 </r>
       <r>   -10.1485     0.0000     6.0000 </r>
       <r>   -10.0206     0.0000     6.0000 </r>
       <r>    -9.8926     0.0000     6.0000 </r>
       <r>    -9.7646     0.0000     6.0000 </r>
       <r>    -9.6367     0.0000     6.0000 </r>
       <r>    -9.5087     0.0000     6.0000 </r>
       <r>    -9.3807     0.0000     6.0000 </r>
       <r>    -9.2528     0.0000     6.0000 </r>
       <r>    -9.1248     0.0000     6.0000 </r>
       <r>    -8.9969     0.0000     6.0000 </r>
       <r>    -8.8689     0.0000     6.0000 </r>
       <r>    -8.7409     0.0000     6.0000 </r>
       <r>    -8.6130     0.0000     6.0000 </r>
       <r>    -8.4850     0.0000     6.0000 </r>
       <r>    -8.3571     0.0000     6.0000 </r>
       <r>    -8.2291     0.0000     6.0000 </r>
       <r>    -8.1011     0.0000     6.0000 </r>
       <r>    -7.9732     0.0000     6.0000 </r>
       <r>    -7.8452     0.0000     6.0000 </r>
       <r>    -7.7173     0.0000     6.0000 </r>
       <r>    -7.5893     0.0000     6.0000 </r>
       <r>    -7.4613     0.0000     6.0000 </r>
       <r>    -7.3334     0.0000     6.0000 </r>
       <r>    -7.2054     0.0000     6.0000 </r>
       <r>    -7.0775     0.0000     6.0000 </r>
       <r>    -6.9495     0.0000     6.0000 </r>
       <r>    -6.8215     0.0000     6.0000 </r>
       <r>    -6.6936     0.0000     6.0000 </r>
       <r>    -6.5656     0.0000     6.0000 </r>
       <r>    -6.4377     0.0000     6.0000 </r>
       <r>    -6.3097     0.0000     6.0000 </r>
       <r>    -6.1817     0.0000     6.0000 </r>
       <r>    -6.0538     0.0000     6.0000 </r>
       <r>    -5.9258     0.0000     6.0000 </r>
       <r>    -5.7979     0.0000     6.0000 </r>
       <r>    -5.6699     0.0000     6.0000 </r>
       <r>    -5.5419     0.0000     6.0000 </r>
       <r>    -5.4140     0.0000     6.0000 </r>
       <r>    -5.2860     0.0000     6.0000 </r>
       <r>    -5.1581     0.0000     6.0000 </r>
       <r>    -5.0301     0.0000     6.0000 </r>
       <r>    -4.9021     0.0000     6.0000 </r>
       <r>    -4.7742     0.0000     6.0000 </r>
       <r>    -4.6462     0.0000     6.0000 </r>
       <r>    -4.5183     0.0000     6.0000 </r>
       <r>    -4.3903     0.0000     6.0000 </r>
       <r>    -4.2623     0.0000     6.0000 </r>
       <r>    -4.1344     0.0044     6.0006 </r>
       <r>    -4.0064     0.0996     6.0137 </r>
       <r>    -3.8785     0.2276     6.0537 </r>
       <r>    -3.7505     0.3304     6.1014 </r>
       <r>    -3.6225     0.3977     6.1538 </r>
       <r>    -3.4946     0.5570     6.2251 </r>
       <r>    -3.3666     0.5102     6.3011 </r>
       <r>    -3.2387     0.5132     6.3743 </r>
       <r>    -3.1107     0.5708     6.4909 </r>
       <r>    -2.9827     0.8594     6.6644 </r>
       <r>    -2.8548     0.6169     6.8700 </r>
       <r>    -2.7268     2.7112     7.3474 </r>
       <r>    -2.5989     2.6462     8.0000 </r>
       <r>    -2.4709     0.0000     8.0000 </r>
       <r>    -2.3429     0.0000     8.0000 </r>
       <r>    -2.2150     0.0000     8.0000 </r>
       <r>    -2.0870     0.0000     8.0000 </r>
       <r>    -1.9591     0.0000     8.0000 </r>
       <r>    -1.8311     0.0000     8.0000 </r>
       <r>    -1.7031     0.0000     8.0000 </r>
       <r>    -1.5752     0.0000     8.0000 </r>
       <r>    -1.4472     0.0000     8.0000 </r>
       <r>    -1.3192     0.0000     8.0000 </r>
       <r>    -1.1913     0.0000     8.0000 </r>
       <r>    -1.0633     0.0000     8.0000 </r>
       <r>    -0.9354     0.0000     8.0000 </r>
       <r>    -0.8074     0.0000     8.0000 </r>
       <r>    -0.6794     0.0000     8.0000 </r>
       <r>    -0.5515     0.0000     8.0000 </r>
       <r>    -0.4235     0.0000     8.0000 </r>
       <r>    -0.2956     0.0000     8.0000 </r>
       <r>    -0.1676     0.0000     8.0000 </r>
       <r>    -0.0396     0.0000     8.0000 </r>
       <r>     0.0883     0.0000     8.0000 </r>
       <r>     0.2163     0.0000     8.0000 </r>
       <r>     0.3442     0.0000     8.0000 </r>
       <r>     0.4722     0.0000     8.0000 </r>
       <r>     0.6002     0.0000     8.0000 </r>
       <r>     0.7281     0.0000     8.0000 </r>
       <r>     0.8561     0.0000     8.0000 </r>
       <r>     0.9840     0.1687     8.0507 </r>
       <r>     1.1120     0.5147     8.1824 </r>
       <r>     1.2400     3.1778     8.7598 </r>
       <r>     1.3679     2.2274     9.2937 </r>
       <r>     1.4959     1.9635     9.6477 </r>
       <r>     1.6238     0.6079     9.8038 </r>
       <r>     1.7518     0.2561     9.8680 </r>
       <r>     1.8798     0.4333     9.9234 </r>
       <r>     2.0077     0.1683     9.9460 </r>
       <r>     2.1357     0.1760     9.9688 </r>
       <r>     2.2636     1.9722    10.2860 </r>
       <r>     2.3916     6.3084    11.2906 </r>
       <r>     2.5196     2.8147    11.9724 </r>
       <r>     2.6475     3.9432    12.8223 </r>
       <r>     2.7755     2.7042    13.3301 </r>
       <r>     2.9034     2.2157    13.7264 </r>
       <r>     3.0314     0.9900    14.0065 </r>
       <r>     3.1594     0.9159    14.2155 </r>
       <r>     3.2873     2.3258    14.6581 </r>
       <r>     3.4153     3.7088    15.3121 </r>
       <r>     3.5432     5.5438    16.3917 </r>
       <r>     3.6712     7.0754    17.6892 </r>
       <r>     3.7992     3.2565    18.4477 </r>
       <r>     3.9271     3.5798    19.1827 </r>
       <r>     4.0551     1.3804    19.5349 </r>
       <r>     4.1830     0.6271    19.6533 </r>
       <r>     4.3110     0.3860    19.7863 </r>
       <r>     4.4390     0.8111    19.9772 </r>
       <r>     4.5669     0.7305    20.0980 </r>
       <r>     4.6949     1.0219    20.4048 </r>
       <r>     4.8228     0.8538    20.5471 </r>
       <r>     4.9508     0.8575    20.6841 </r>
       <r>     5.0788     1.1207    20.9691 </r>
       <r>     5.2067     0.8555    21.1208 </r>
       <r>     5.3347     1.5200    21.4025 </r>
       <r>     5.4626     1.0101    21.6723 </r>
       <r>     5.5906     3.0956    22.3597 </r>
       <r>     5.7186     1.3659    22.7173 </r>
       <r>     5.8465     1.9451    23.1410 </r>
       <r>     5.9745     1.8165    23.4523 </r>
       <r>     6.1024     0.8139    23.6481 </r>
       <r>     6.2304     0.6829    23.8006 </r>
       <r>     6.3584     0.7441    23.8959 </r>
       <r>     6.4863     0.1342    23.9416 </r>
       <r>     6.6143     0.0000    23.9718 </r>
       <r>     6.7423     0.0213    24.0000 </r>
       <r>     6.8702     0.0000    24.0000 </r>
       <r>     6.9982     0.0000    24.0009 </r>
       <r>     7.1261     0.0000    24.0009 </r>
       <r>     7.2541     0.0002    24.0009 </r>
       <r>     7.3821     0.0296    24.0120 </r>
       <r>     7.5100     0.0000    24.0137 </r>
       <r>     7.6380     0.0943    24.0439 </r>
       <r>     7.7659     0.5255    24.1483 </r>
       <r>     7.8939     0.9183    24.3260 </r>
       <r>     8.0219     0.9758    24.5263 </r>
       <r>     8.1498     1.1680    24.7694 </r>
       <r>     8.2778     1.9090    25.1337 </r>
       <r>     8.4057     1.5917    25.5646 </r>
       <r>     8.5337     1.5408    26.0770 </r>
       <r>     8.6617     1.8030    26.3673 </r>
       <r>     8.7896     2.6959    26.8092 </r>
       <r>     8.9176     1.9684    27.2387 </r>
       <r>     9.0455     4.6218    28.2300 </r>
       <r>     9.1735     3.0038    28.7285 </r>
       <r>     9.3015     3.6678    29.3869 </r>
       <r>     9.4294     1.6635    29.8333 </r>
       <r>     9.5574     1.4149    30.0928 </r>
       <r>     9.6853     1.8803    30.4691 </r>
       <r>     9.8133     1.7119    30.8044 </r>
       <r>     9.9413     2.5822    31.3254 </r>
       <r>    10.0692     1.1989    31.6181 </r>
       <r>    10.1972     0.7049    31.8389 </r>
       <r>    10.3251     0.7531    31.9616 </r>
       <r>    10.4531     0.1707    31.9927 </r>
       <r>    10.5811     0.0000    31.9927 </r>
       <r>    10.7090     0.0000    31.9927 </r>
       <r>    10.8370     0.0000    32.0000 </r>
       <r>    10.9649     0.0000    32.0000 </r>
       <r>    11.0929     0.0000    32.0000 </r>
       <r>    11.2209     0.0000    32.0000 </r>
       <r>    11.3488     0.0000    32.0000 </r>
       <r>    11.4768     0.0000    32.0000 </r>
       <r>    11.6047     0.0000    32.0000 </r>
       <r>    11.7327     0.0000    32.0000 </r>
       <r>    11.8607     0.0000    32.0000 </r>
       <r>    11.9886     0.0000    32.0000 </r>
       <r>    12.1166     0.0000    32.0000 </r>
       <r>    12.2445     0.0000    32.0000 </r>
       <r>    12.3725     0.0000    32.0000 </r>
       <r>    12.5005     0.0000    32.0000 </r>
      </set>
     </set>
    </array>
   </total>
  </dos>
 </calculation>
 <structure name="finalpos" >
  <crystal>
   <varray name="basis" >
    <v>       0.00000000       3.24061912       3.24061912 </v>
    <v>       3.24061912       0.00000000       3.24061912 </v>
    <v>       3.24061912       3.24061912       0.00000000 </v>
   </varray>
   <i name="volume">     68.06345108 </i>
   <varray name="rec_basis" >
    <v>      -0.15429150       0.15429150       0.15429150 </v>
    <v>       0.15429150      -0.15429150       0.15429150 </v>
    <v>       0.15429150       0.15429150      -0.15429150 </v>
   </varray>
  </crystal>
  <varray name="positions" >
   <v>       0.75000000       0.75000000       0.75000000 </v>
   <v>       0.25000000       0.25000000       0.25000000 </v>
   <v>       0.00000000       0.00000000       0.00000000 </v>
  </varray>
 </structure>
</modeling>
