 ----------------------------------------------------
    OOO  PPPP  EEEEE N   N M   M PPPP
   O   O P   P E     NN  N MM MM P   P
   O   O PPPP  EEEEE N N N M M M PPPP   -- VERSION
   O   O P     E     N  NN M   M P
    OOO  P     EEEEE N   N M   M P
 ----------------------------------------------------
 running  128 mpi-ranks, with    1 threads/rank
 distrk:  each k-point on   32 cores,    4 groups
 distr:  one band on   16 cores,    2 groups
 vasp.6.3.2 27Jun22 (build Jun 30 2023 15:13:53) complex                         
 POSCAR found type information on POSCAR NaCl
 POSCAR found :  2 types and       2 ions
 Reading from existing POTCAR
 scaLAPACK will be used
 Reading from existing POTCAR
 LDA part: xc-table for Pade appr. of Perdew
 -----------------------------------------------------------------------------
|                                                                             |
|           W    W    AA    RRRRR   N    N  II  N    N   GGGG   !!!           |
|           W    W   A  A   R    R  NN   N  II  NN   N  G    G  !!!           |
|           W    W  A    A  R    R  N N  N  II  N N  N  G       !!!           |
|           W WW W  AAAAAA  RRRRR   N  N N  II  N  N N  G  GGG   !            |
|           WW  WW  A    A  R   R   N   NN  II  N   NN  G    G                |
|           W    W  A    A  R    R  N    N  II  N    N   GGGG   !!!           |
|                                                                             |
|     The requested file  could not be found or opened for reading            |
|     k-point information. Automatic k-point generation is used as a          |
|     fallback, which may lead to unwanted results.                           |
|                                                                             |
 -----------------------------------------------------------------------------

 INCAR ok, starting setup
 POSCAR ok, starting setup
 FFT: planning ... GRIDC
 FFT: planning ... GRID_SOFT
 FFT: planning ... GRID
 WAVECAR not read
 entering main loop
       N       E                     dE             d eps       ncg     rms          rms(c)
DAV:   1     0.922141679426E+02    0.92214E+02   -0.67192E+03  2704   0.864E+02
DAV:   2    -0.779645659334E-01   -0.92292E+02   -0.84982E+02  3048   0.258E+02
DAV:   3    -0.689292785801E+01   -0.68150E+01   -0.67748E+01  3536   0.596E+01
DAV:   4    -0.698060125550E+01   -0.87673E-01   -0.87653E-01  3136   0.732E+00
DAV:   5    -0.698227785788E+01   -0.16766E-02   -0.16765E-02  3616   0.102E+00    0.214E+00
DAV:   6    -0.678347500400E+01    0.19880E+00   -0.28129E-01  3456   0.287E+00    0.158E+00
DAV:   7    -0.677197087141E+01    0.11504E-01   -0.74378E-02  3640   0.143E+00    0.110E+00
DAV:   8    -0.677795083713E+01   -0.59800E-02   -0.10432E-02  2872   0.759E-01    0.328E-01
DAV:   9    -0.677778524702E+01    0.16559E-03   -0.24938E-04  3400   0.103E-01    0.176E-01
DAV:  10    -0.677790094554E+01   -0.11570E-03   -0.31238E-04  2968   0.118E-01    0.662E-02
DAV:  11    -0.677789218946E+01    0.87561E-05   -0.13173E-05  3792   0.312E-02    0.194E-02
DAV:  12    -0.677789192766E+01    0.26180E-06   -0.26357E-06  3032   0.128E-02    0.188E-03
DAV:  13    -0.677789262005E+01   -0.69239E-06   -0.40161E-07  3032   0.377E-03    0.318E-03
DAV:  14    -0.677789245117E+01    0.16887E-06   -0.22777E-08  2624   0.844E-04    0.341E-04
DAV:  15    -0.677789242409E+01    0.27079E-07   -0.29979E-09  1664   0.380E-04
Sub-Space-Matrix
