   3   3   0   0
  0.2097553E+02  0.4464605E-09  0.4464605E-09  0.4464605E-09  0.5000000E-15
  1.000000000000000E-004
  CAR
 unknown system
     13.75128299    -24.74251955  301      9.25886356      1.00000000
    -24.743  0.0000E+00  0.0000E+00
    -24.614  0.0000E+00  0.0000E+00
    -24.486  0.0000E+00  0.0000E+00
    -24.358  0.0000E+00  0.0000E+00
    -24.229  0.0000E+00  0.0000E+00
    -24.101  0.0000E+00  0.0000E+00
    -23.973  0.0000E+00  0.0000E+00
    -23.844  0.0000E+00  0.0000E+00
    -23.716  0.0000E+00  0.0000E+00
    -23.588  0.0000E+00  0.0000E+00
    -23.459  0.0000E+00  0.0000E+00
    -23.331  0.0000E+00  0.0000E+00
    -23.203  0.0000E+00  0.0000E+00
    -23.074  0.0000E+00  0.0000E+00
    -22.946  0.4676E+02  0.6000E+01
    -22.818  0.0000E+00  0.6000E+01
    -22.690  0.0000E+00  0.6000E+01
    -22.561  0.0000E+00  0.6000E+01
    -22.433  0.0000E+00  0.6000E+01
    -22.305  0.0000E+00  0.6000E+01
    -22.176  0.0000E+00  0.6000E+01
    -22.048  0.0000E+00  0.6000E+01
    -21.920  0.0000E+00  0.6000E+01
    -21.791  0.0000E+00  0.6000E+01
    -21.663  0.0000E+00  0.6000E+01
    -21.535  0.0000E+00  0.6000E+01
    -21.406  0.0000E+00  0.6000E+01
    -21.278  0.0000E+00  0.6000E+01
    -21.150  0.0000E+00  0.6000E+01
    -21.021  0.0000E+00  0.6000E+01
    -20.893  0.0000E+00  0.6000E+01
    -20.765  0.0000E+00  0.6000E+01
    -20.637  0.0000E+00  0.6000E+01
    -20.508  0.0000E+00  0.6000E+01
    -20.380  0.0000E+00  0.6000E+01
    -20.252  0.0000E+00  0.6000E+01
    -20.123  0.0000E+00  0.6000E+01
    -19.995  0.0000E+00  0.6000E+01
    -19.867  0.0000E+00  0.6000E+01
    -19.738  0.0000E+00  0.6000E+01
    -19.610  0.0000E+00  0.6000E+01
    -19.482  0.0000E+00  0.6000E+01
    -19.353  0.0000E+00  0.6000E+01
    -19.225  0.0000E+00  0.6000E+01
    -19.097  0.0000E+00  0.6000E+01
    -18.968  0.0000E+00  0.6000E+01
    -18.840  0.0000E+00  0.6000E+01
    -18.712  0.0000E+00  0.6000E+01
    -18.584  0.0000E+00  0.6000E+01
    -18.455  0.0000E+00  0.6000E+01
    -18.327  0.0000E+00  0.6000E+01
    -18.199  0.0000E+00  0.6000E+01
    -18.070  0.0000E+00  0.6000E+01
    -17.942  0.0000E+00  0.6000E+01
    -17.814  0.0000E+00  0.6000E+01
    -17.685  0.0000E+00  0.6000E+01
    -17.557  0.0000E+00  0.6000E+01
    -17.429  0.0000E+00  0.6000E+01
    -17.300  0.0000E+00  0.6000E+01
    -17.172  0.0000E+00  0.6000E+01
    -17.044  0.0000E+00  0.6000E+01
    -16.915  0.0000E+00  0.6000E+01
    -16.787  0.0000E+00  0.6000E+01
    -16.659  0.0000E+00  0.6000E+01
    -16.531  0.0000E+00  0.6000E+01
    -16.402  0.0000E+00  0.6000E+01
    -16.274  0.0000E+00  0.6000E+01
    -16.146  0.0000E+00  0.6000E+01
    -16.017  0.0000E+00  0.6000E+01
    -15.889  0.0000E+00  0.6000E+01
    -15.761  0.0000E+00  0.6000E+01
    -15.632  0.0000E+00  0.6000E+01
    -15.504  0.0000E+00  0.6000E+01
    -15.376  0.0000E+00  0.6000E+01
    -15.247  0.0000E+00  0.6000E+01
    -15.119  0.0000E+00  0.6000E+01
    -14.991  0.0000E+00  0.6000E+01
    -14.862  0.0000E+00  0.6000E+01
    -14.734  0.0000E+00  0.6000E+01
    -14.606  0.0000E+00  0.6000E+01
    -14.478  0.0000E+00  0.6000E+01
    -14.349  0.0000E+00  0.6000E+01
    -14.221  0.0000E+00  0.6000E+01
    -14.093  0.0000E+00  0.6000E+01
    -13.964  0.0000E+00  0.6000E+01
    -13.836  0.0000E+00  0.6000E+01
    -13.708  0.0000E+00  0.6000E+01
    -13.579  0.0000E+00  0.6000E+01
    -13.451  0.0000E+00  0.6000E+01
    -13.323  0.0000E+00  0.6000E+01
    -13.194  0.0000E+00  0.6000E+01
    -13.066  0.0000E+00  0.6000E+01
    -12.938  0.0000E+00  0.6000E+01
    -12.809  0.0000E+00  0.6000E+01
    -12.681  0.0000E+00  0.6000E+01
    -12.553  0.0000E+00  0.6000E+01
    -12.425  0.0000E+00  0.6000E+01
    -12.296  0.0000E+00  0.6000E+01
    -12.168  0.0000E+00  0.6000E+01
    -12.040  0.0000E+00  0.6000E+01
    -11.911  0.0000E+00  0.6000E+01
    -11.783  0.0000E+00  0.6000E+01
    -11.655  0.0000E+00  0.6000E+01
    -11.526  0.0000E+00  0.6000E+01
    -11.398  0.0000E+00  0.6000E+01
    -11.270  0.0000E+00  0.6000E+01
    -11.141  0.0000E+00  0.6000E+01
    -11.013  0.0000E+00  0.6000E+01
    -10.885  0.0000E+00  0.6000E+01
    -10.756  0.0000E+00  0.6000E+01
    -10.628  0.0000E+00  0.6000E+01
    -10.500  0.0000E+00  0.6000E+01
    -10.371  0.0000E+00  0.6000E+01
    -10.243  0.0000E+00  0.6000E+01
    -10.115  0.0000E+00  0.6000E+01
     -9.987  0.0000E+00  0.6000E+01
     -9.858  0.0000E+00  0.6000E+01
     -9.730  0.0000E+00  0.6000E+01
     -9.602  0.0000E+00  0.6000E+01
     -9.473  0.0000E+00  0.6000E+01
     -9.345  0.0000E+00  0.6000E+01
     -9.217  0.0000E+00  0.6000E+01
     -9.088  0.0000E+00  0.6000E+01
     -8.960  0.0000E+00  0.6000E+01
     -8.832  0.0000E+00  0.6000E+01
     -8.703  0.0000E+00  0.6000E+01
     -8.575  0.0000E+00  0.6000E+01
     -8.447  0.0000E+00  0.6000E+01
     -8.318  0.0000E+00  0.6000E+01
     -8.190  0.0000E+00  0.6000E+01
     -8.062  0.0000E+00  0.6000E+01
     -7.934  0.0000E+00  0.6000E+01
     -7.805  0.0000E+00  0.6000E+01
     -7.677  0.0000E+00  0.6000E+01
     -7.549  0.0000E+00  0.6000E+01
     -7.420  0.0000E+00  0.6000E+01
     -7.292  0.0000E+00  0.6000E+01
     -7.164  0.0000E+00  0.6000E+01
     -7.035  0.0000E+00  0.6000E+01
     -6.907  0.0000E+00  0.6000E+01
     -6.779  0.0000E+00  0.6000E+01
     -6.650  0.0000E+00  0.6000E+01
     -6.522  0.0000E+00  0.6000E+01
     -6.394  0.0000E+00  0.6000E+01
     -6.265  0.0000E+00  0.6000E+01
     -6.137  0.0000E+00  0.6000E+01
     -6.009  0.0000E+00  0.6000E+01
     -5.881  0.0000E+00  0.6000E+01
     -5.752  0.0000E+00  0.6000E+01
     -5.624  0.0000E+00  0.6000E+01
     -5.496  0.0000E+00  0.6000E+01
     -5.367  0.0000E+00  0.6000E+01
     -5.239  0.0000E+00  0.6000E+01
     -5.111  0.0000E+00  0.6000E+01
     -4.982  0.0000E+00  0.6000E+01
     -4.854  0.0000E+00  0.6000E+01
     -4.726  0.0000E+00  0.6000E+01
     -4.597  0.0000E+00  0.6000E+01
     -4.469  0.0000E+00  0.6000E+01
     -4.341  0.0000E+00  0.6000E+01
     -4.212  0.0000E+00  0.6000E+01
     -4.084  0.0000E+00  0.6000E+01
     -3.956  0.0000E+00  0.6000E+01
     -3.828  0.0000E+00  0.6000E+01
     -3.699  0.9183E-02  0.6001E+01
     -3.571  0.7109E-01  0.6023E+01
     -3.443  0.2270E+00  0.6054E+01
     -3.314  0.3393E+00  0.6103E+01
     -3.186  0.3856E+00  0.6152E+01
     -3.058  0.1667E+00  0.6175E+01
     -2.929  0.1734E+00  0.6258E+01
     -2.801  0.2252E+00  0.6330E+01
     -2.673  0.7802E+00  0.6474E+01
     -2.544  0.5637E+00  0.6561E+01
     -2.416  0.1001E+01  0.6716E+01
     -2.288  0.8271E+00  0.6941E+01
     -2.159  0.2311E+01  0.7406E+01
     -2.031  0.2299E+01  0.8000E+01
     -1.903  0.0000E+00  0.8000E+01
     -1.775  0.0000E+00  0.8000E+01
     -1.646  0.0000E+00  0.8000E+01
     -1.518  0.0000E+00  0.8000E+01
     -1.390  0.0000E+00  0.8000E+01
     -1.261  0.0000E+00  0.8000E+01
     -1.133  0.0000E+00  0.8000E+01
     -1.005  0.0000E+00  0.8000E+01
     -0.876  0.0000E+00  0.8000E+01
     -0.748  0.0000E+00  0.8000E+01
     -0.620  0.0000E+00  0.8000E+01
     -0.491  0.0000E+00  0.8000E+01
     -0.363  0.0000E+00  0.8000E+01
     -0.235  0.0000E+00  0.8000E+01
     -0.106  0.0000E+00  0.8000E+01
      0.022  0.0000E+00  0.8000E+01
      0.150  0.0000E+00  0.8000E+01
      0.278  0.0000E+00  0.8000E+01
      0.407  0.0000E+00  0.8000E+01
      0.535  0.0000E+00  0.8000E+01
      0.663  0.0000E+00  0.8000E+01
      0.792  0.0000E+00  0.8000E+01
      0.920  0.0000E+00  0.8000E+01
      1.048  0.0000E+00  0.8000E+01
      1.177  0.0000E+00  0.8000E+01
      1.305  0.0000E+00  0.8000E+01
      1.433  0.2263E+00  0.8029E+01
      1.562  0.7169E+00  0.8121E+01
      1.690  0.2620E+01  0.8540E+01
      1.818  0.2580E+01  0.9012E+01
      1.947  0.2224E+01  0.9441E+01
      2.075  0.1169E+01  0.9683E+01
      2.203  0.3080E+00  0.9831E+01
      2.331  0.6749E-02  0.9869E+01
      2.460  0.5676E-01  0.9924E+01
      2.588  0.2606E+00  0.9958E+01
      2.716  0.1426E+01  0.1022E+02
      2.845  0.5536E+01  0.1112E+02
      2.973  0.2912E+01  0.1178E+02
      3.101  0.3632E+01  0.1250E+02
      3.230  0.3148E+01  0.1313E+02
      3.358  0.1408E+01  0.1347E+02
      3.486  0.1562E+01  0.1385E+02
      3.615  0.6743E+00  0.1401E+02
      3.743  0.1023E+01  0.1416E+02
      3.871  0.2052E+01  0.1452E+02
      4.000  0.3950E+01  0.1530E+02
      4.128  0.5261E+01  0.1642E+02
      4.256  0.5997E+01  0.1755E+02
      4.384  0.2618E+01  0.1819E+02
      4.513  0.2910E+01  0.1881E+02
      4.641  0.1463E+01  0.1926E+02
      4.769  0.1406E+01  0.1952E+02
      4.898  0.6771E+00  0.1966E+02
      5.026  0.9041E+00  0.1979E+02
      5.154  0.6716E+00  0.1994E+02
      5.283  0.5666E+00  0.2006E+02
      5.411  0.1527E+01  0.2030E+02
      5.539  0.7771E+00  0.2048E+02
      5.668  0.5619E+00  0.2062E+02
      5.796  0.1659E+01  0.2084E+02
      5.924  0.8182E+00  0.2103E+02
      6.053  0.1156E+01  0.2126E+02
      6.181  0.1290E+01  0.2152E+02
      6.309  0.1860E+01  0.2186E+02
      6.437  0.2299E+01  0.2252E+02
      6.566  0.1815E+01  0.2280E+02
      6.694  0.1208E+01  0.2318E+02
      6.822  0.1219E+01  0.2351E+02
      6.951  0.5847E+00  0.2368E+02
      7.079  0.5602E+00  0.2380E+02
      7.207  0.5137E+00  0.2391E+02
      7.336  0.3612E+00  0.2397E+02
      7.464  0.1576E+00  0.2399E+02
      7.592  0.2128E-01  0.2400E+02
      7.721  0.0000E+00  0.2400E+02
      7.849  0.0000E+00  0.2400E+02
      7.977  0.0000E+00  0.2400E+02
      8.106  0.0000E+00  0.2400E+02
      8.234  0.0000E+00  0.2400E+02
      8.362  0.1078E-03  0.2400E+02
      8.490  0.0000E+00  0.2400E+02
      8.619  0.2202E+00  0.2403E+02
      8.747  0.5196E+00  0.2412E+02
      8.875  0.8368E+00  0.2429E+02
      9.004  0.8619E+00  0.2445E+02
      9.132  0.1309E+01  0.2469E+02
      9.260  0.2009E+01  0.2501E+02
      9.389  0.1591E+01  0.2532E+02
      9.517  0.2246E+01  0.2592E+02
      9.645  0.1420E+01  0.2620E+02
      9.774  0.2373E+01  0.2657E+02
      9.902  0.2584E+01  0.2706E+02
     10.030  0.5054E+01  0.2778E+02
     10.159  0.1833E+01  0.2831E+02
     10.287  0.2181E+01  0.2869E+02
     10.415  0.4146E+01  0.2946E+02
     10.543  0.1687E+01  0.2982E+02
     10.672  0.2251E+00  0.2992E+02
     10.800  0.1176E+01  0.3030E+02
     10.928  0.1867E+01  0.3058E+02
     11.057  0.2119E+01  0.3104E+02
     11.185  0.1454E+01  0.3136E+02
     11.313  0.1533E+01  0.3171E+02
     11.442  0.3147E+00  0.3186E+02
     11.570  0.7804E+00  0.3197E+02
     11.698  0.1703E+00  0.3199E+02
     11.827  0.0000E+00  0.3199E+02
     11.955  0.1178E-11  0.3199E+02
     12.083  0.0000E+00  0.3200E+02
     12.212  0.0000E+00  0.3200E+02
     12.340  0.0000E+00  0.3200E+02
     12.468  0.0000E+00  0.3200E+02
     12.596  0.0000E+00  0.3200E+02
     12.725  0.0000E+00  0.3200E+02
     12.853  0.0000E+00  0.3200E+02
     12.981  0.0000E+00  0.3200E+02
     13.110  0.0000E+00  0.3200E+02
     13.238  0.0000E+00  0.3200E+02
     13.366  0.0000E+00  0.3200E+02
     13.495  0.0000E+00  0.3200E+02
     13.623  0.0000E+00  0.3200E+02
     13.751  0.0000E+00  0.3200E+02
