    3    3    1    1
  0.2097553E+02  0.4464605E-09  0.4464605E-09  0.4464605E-09  0.5000000E-15
  1.000000000000000E-004
  CAR
 unknown system
     25     84     16

  0.0000000E+00  0.0000000E+00  0.0000000E+00  0.4551661E-03
    1      -22.972013   1.000000
    2      -22.972013   1.000000
    3      -22.972013   1.000000
    4       -3.753444   1.000000
    5        3.032395   1.000000
    6        3.032395   1.000000
    7        3.032395   1.000000
    8        3.848349   1.000000
    9        3.848349   1.000000
   10        7.523985   1.000000
   11        7.523985   1.000000
   12        7.523985   1.000000
   13        8.377459   1.000000
   14       10.143044   0.000000
   15       10.143044   0.000000
   16       10.143044   0.000000

  0.7692308E-01  0.1310221E-17 -0.9577070E-18  0.3641329E-02
    1      -22.973189   1.000000
    2      -22.971939   1.000000
    3      -22.971939   1.000000
    4       -3.686590   1.000000
    5        2.954394   1.000000
    6        3.001949   1.000000
    7        3.001949   1.000000
    8        3.891702   1.000000
    9        3.891702   1.000000
   10        6.986176   1.000000
   11        7.458153   1.000000
   12        7.458153   1.000000
   13        8.585380   1.000000
   14        9.977548   0.000000
   15        9.977548   0.000000
   16       10.543315   0.000000

  0.1538462E+00  0.3676240E-17 -0.2971211E-17  0.3641329E-02
    1      -22.976448   1.000000
    2      -22.971775   1.000000
    3      -22.971775   1.000000
    4       -3.492841   1.000000
    5        2.737104   1.000000
    6        2.937727   1.000000
    7        2.937727   1.000000
    8        3.986996   1.000000
    9        3.986996   1.000000
   10        6.110818   1.000000
   11        7.293501   1.000000
   12        7.293501   1.000000
   13        8.794536   1.000000
   14        9.874445   0.000000
   15        9.874445   0.000000
   16       11.338429   0.000000

  0.2307692E+00  0.9724754E-18  0.8506786E-19  0.3641329E-02
    1      -22.980981   1.000000
    2      -22.971527   1.000000
    3      -22.971527   1.000000
    4       -3.194091   1.000000
    5        2.415947   1.000000
    6        2.880493   1.000000
    7        2.880493   1.000000
    8        4.074440   1.000000
    9        4.074440   1.000000
   10        5.304235   1.000000
   11        7.102442   1.000000
   12        7.102442   1.000000
   13        8.960419   1.000000
   14        9.903620   0.000000
   15        9.903620   0.000000
   16       12.001565   0.000000

  0.3076923E+00  0.7352479E-17 -0.5942422E-17  0.3641329E-02
    1      -22.985758   1.000000
    2      -22.971281   1.000000
    3      -22.971281   1.000000
    4       -2.832244   1.000000
    5        2.031921   1.000000
    6        2.849484   1.000000
    7        2.849484   1.000000
    8        4.116425   1.000000
    9        4.116425   1.000000
   10        4.683025   1.000000
   11        6.948088   1.000000
   12        6.948088   1.000000
   13        9.111787   1.000000
   14       10.033312   0.000000
   15       10.033312   0.000000
   16       11.542311   0.000000

  0.3846154E+00  0.7573623E-17 -0.5811051E-17  0.3641329E-02
    1      -22.989678   1.000000
    2      -22.971076   1.000000
    3      -22.971076   1.000000
    4       -2.479538   1.000000
    5        1.654126   1.000000
    6        2.843333   1.000000
    7        2.843333   1.000000
    8        4.112764   1.000000
    9        4.112764   1.000000
   10        4.283984   1.000000
   11        6.855692   1.000000
   12        6.855692   1.000000
   13        9.264788   0.201057
   14       10.213208   0.000000
   15       10.213208   0.000000
   16       10.783337   0.000000

  0.4615385E+00 -0.5773977E-17  0.7889064E-17  0.3641329E-02
    1      -22.991861   1.000000
    2      -22.970945   1.000000
    3      -22.970945   1.000000
    4       -2.247598   1.000000
    5        1.403810   1.000000
    6        2.847617   1.000000
    7        2.847617   1.000000
    8        4.094901   1.000000
    9        4.094901   1.000000
   10        4.095284   1.000000
   11        6.817042   1.000000
   12        6.817042   1.000000
   13        9.409589   0.000000
   14       10.295206   0.000000
   15       10.355399   0.000000
   16       10.355399   0.000000

  0.7692308E-01  0.7692308E-01 -0.2689249E-17  0.2730997E-02
    1      -22.973161   1.000000
    2      -22.972134   1.000000
    3      -22.972134   1.000000
    4       -3.664674   1.000000
    5        2.807372   1.000000
    6        3.063797   1.000000
    7        3.063797   1.000000
    8        3.882389   1.000000
    9        3.911113   1.000000
   10        7.033182   1.000000
   11        7.325866   1.000000
   12        7.325866   1.000000
   13        8.645294   1.000000
   14        9.852100   0.000000
   15       10.431723   0.000000
   16       10.431777   0.000000

  0.1538462E+00  0.7692308E-01  0.2705511E-17  0.1092399E-01
    1      -22.975571   1.000000
    2      -22.972194   1.000000
    3      -22.971982   1.000000
    4       -3.514420   1.000000
    5        2.592960   1.000000
    6        3.038838   1.000000
    7        3.065200   1.000000
    8        3.950227   1.000000
    9        3.973186   1.000000
   10        6.368213   1.000000
   11        7.133184   1.000000
   12        7.207028   1.000000
   13        8.867198   1.000000
   14        9.703770   0.000000
   15       10.140138   0.000000
   16       10.934331   0.000000

  0.2307692E+00  0.7692308E-01 -0.5191090E-17  0.1092399E-01
    1      -22.979606   1.000000
    2      -22.972103   1.000000
    3      -22.971747   1.000000
    4       -3.252709   1.000000
    5        2.347481   1.000000
    6        2.941895   1.000000
    7        3.031514   1.000000
    8        4.042193   1.000000
    9        4.053639   1.000000
   10        5.571246   1.000000
   11        6.950427   1.000000
   12        7.036020   1.000000
   13        9.127549   1.000000
   14        9.693076   0.000000
   15       10.020164   0.000000
   16       11.517340   0.000000

  0.3076923E+00  0.7692308E-01  0.2659208E-17  0.1092399E-01
    1      -22.984192   1.000000
    2      -22.971876   1.000000
    3      -22.971592   1.000000
    4       -2.914518   1.000000
    5        2.059777   1.000000
    6        2.848028   1.000000
    7        2.992888   1.000000
    8        4.100663   1.000000
    9        4.112364   1.000000
   10        4.893627   1.000000
   11        6.822941   1.000000
   12        6.862900   1.000000
   13        9.221322   1.000000
   14        9.949987   0.000000
   15       10.030799   0.000000
   16       11.625370   0.000000

  0.3846154E+00  0.7692308E-01 -0.1108721E-16  0.1092399E-01
    1      -22.988279   1.000000
    2      -22.971578   1.000000
    3      -22.971573   1.000000
    4       -2.560588   1.000000
    5        1.746405   1.000000
    6        2.801715   1.000000
    7        2.956583   1.000000
    8        4.112931   1.000000
    9        4.124247   1.000000
   10        4.421577   1.000000
   11        6.735510   1.000000
   12        6.760411   1.000000
   13        9.277624   0.003987
   14       10.152410   0.000000
   15       10.260402   0.000000
   16       10.966660   0.000000

  0.4615385E+00  0.7692308E-01 -0.9086728E-17  0.1092399E-01
    1      -22.990960   1.000000
    2      -22.971685   1.000000
    3      -22.971275   1.000000
    4       -2.286702   1.000000
    5        1.490687   1.000000
    6        2.807018   1.000000
    7        2.913941   1.000000
    8        4.077739   1.000000
    9        4.109251   1.000000
   10        4.190581   1.000000
   11        6.661620   1.000000
   12        6.745240   1.000000
   13        9.388880   0.000000
   14       10.231062   0.000000
   15       10.314816   0.000000
   16       10.656377   0.000000

 -0.4615385E+00  0.7692308E-01 -0.7315405E-17  0.1092399E-01
    1      -22.991646   1.000000
    2      -22.971881   1.000000
    3      -22.971022   1.000000
    4       -2.205988   1.000000
    5        1.414585   1.000000
    6        2.848707   1.000000
    7        2.858688   1.000000
    8        4.033694   1.000000
    9        4.122299   1.000000
   10        4.151513   1.000000
   11        6.622364   1.000000
   12        6.762599   1.000000
   13        9.479395   0.000000
   14       10.039001   0.000000
   15       10.385201   0.000000
   16       10.708704   0.000000

 -0.3846154E+00  0.7692308E-01  0.5348931E-18  0.1092399E-01
    1      -22.990214   1.000000
    2      -22.972129   1.000000
    3      -22.970894   1.000000
    4       -2.361186   1.000000
    5        1.567255   1.000000
    6        2.801536   1.000000
    7        2.909568   1.000000
    8        4.062221   1.000000
    9        4.151009   1.000000
   10        4.245361   1.000000
   11        6.599090   1.000000
   12        6.819262   1.000000
   13        9.390324   0.000000
   14       10.258736   0.000000
   15       10.283910   0.000000
   16       10.704093   0.000000

 -0.3076923E+00  0.7692308E-01  0.6516080E-17  0.1092399E-01
    1      -22.986972   1.000000
    2      -22.972360   1.000000
    3      -22.970912   1.000000
    4       -2.674410   1.000000
    5        1.868383   1.000000
    6        2.764790   1.000000
    7        2.978324   1.000000
    8        4.078013   1.000000
    9        4.165275   1.000000
   10        4.560472   1.000000
   11        6.597574   1.000000
   12        6.934731   1.000000
   13        9.315935   0.000000
   14       10.078528   0.000000
   15       10.196016   0.000000
   16       11.199150   0.000000

 -0.2307692E+00  0.7692308E-01  0.8516562E-17  0.1092399E-01
    1      -22.982637   1.000000
    2      -22.972512   1.000000
    3      -22.971081   1.000000
    4       -3.031999   1.000000
    5        2.206598   1.000000
    6        2.767442   1.000000
    7        3.046829   1.000000
    8        4.055079   1.000000
    9        4.137023   1.000000
   10        5.101778   1.000000
   11        6.650350   1.000000
   12        7.113529   1.000000
   13        9.270422   0.051065
   14        9.867085   0.000000
   15       10.021168   0.000000
   16       11.513889   0.000000

 -0.1538462E+00  0.7692308E-01  0.6199610E-18  0.1092399E-01
    1      -22.978202   1.000000
    2      -22.972516   1.000000
    3      -22.971345   1.000000
    4       -3.350152   1.000000
    5        2.518209   1.000000
    6        2.816716   1.000000
    7        3.097498   1.000000
    8        3.989709   1.000000
    9        4.063376   1.000000
   10        5.819878   1.000000
   11        6.796455   1.000000
   12        7.316874   1.000000
   13        9.117904   1.000000
   14        9.727770   0.000000
   15       10.006053   0.000000
   16       11.017052   0.000000

 -0.7692308E-01  0.7692308E-01  0.2620443E-17  0.5461994E-02
    1      -22.974789   1.000000
    2      -22.972320   1.000000
    3      -22.971664   1.000000
    4       -3.577816   1.000000
    5        2.777825   1.000000
    6        2.904295   1.000000
    7        3.090208   1.000000
    8        3.919977   1.000000
    9        3.967793   1.000000
   10        6.549150   1.000000
   11        7.088965   1.000000
   12        7.458219   1.000000
   13        8.821005   1.000000
   14        9.743293   0.000000
   15       10.139360   0.000000
   16       10.567842   0.000000

  0.1538462E+00  0.1538462E+00 -0.5378497E-17  0.2730997E-02
    1      -22.976396   1.000000
    2      -22.972505   1.000000
    3      -22.972505   1.000000
    4       -3.412460   1.000000
    5        2.340529   1.000000
    6        3.152496   1.000000
    7        3.152496   1.000000
    8        3.955030   1.000000
    9        3.979955   1.000000
   10        6.322594   1.000000
   11        6.920023   1.000000
   12        6.920023   1.000000
   13        8.805229   1.000000
   14        9.748103   0.000000
   15       10.194468   0.000000
   16       11.050107   0.000000

  0.2307692E+00  0.1538462E+00  0.4523507E-18  0.1092399E-01
    1      -22.979359   1.000000
    2      -22.972627   1.000000
    3      -22.972550   1.000000
    4       -3.199679   1.000000
    5        2.106078   1.000000
    6        3.143376   1.000000
    7        3.179742   1.000000
    8        3.977043   1.000000
    9        4.059311   1.000000
   10        5.787711   1.000000
   11        6.730720   1.000000
   12        6.736495   1.000000
   13        8.995088   1.000000
   14        9.736979   0.000000
   15       10.048163   0.000000
   16       11.404708   0.000000

  0.3076923E+00  0.1538462E+00 -0.1543894E-16  0.1092399E-01
    1      -22.983226   1.000000
    2      -22.972658   1.000000
    3      -22.972552   1.000000
    4       -2.905882   1.000000
    5        1.904073   1.000000
    6        3.036164   1.000000
    7        3.164602   1.000000
    8        4.038411   1.000000
    9        4.128894   1.000000
   10        5.143273   1.000000
   11        6.548087   1.000000
   12        6.612175   1.000000
   13        9.210629   1.000000
   14        9.946352   0.000000
   15        9.973812   0.000000
   16       11.532922   0.000000

  0.3846154E+00  0.1538462E+00  0.1495126E-17  0.1092399E-01
    1      -22.986869   1.000000
    2      -22.973018   1.000000
    3      -22.972291   1.000000
    4       -2.582597   1.000000
    5        1.733933   1.000000
    6        2.904827   1.000000
    7        3.120966   1.000000
    8        4.089987   1.000000
    9        4.156889   1.000000
   10        4.609531   1.000000
   11        6.386999   1.000000
   12        6.569453   1.000000
   13        9.230453   0.999971
   14       10.040571   0.000000
   15       10.431791   0.000000
   16       11.051773   0.000000

  0.4615385E+00  0.1538462E+00 -0.1038218E-16  0.1092399E-01
    1      -22.989438   1.000000
    2      -22.973581   1.000000
    3      -22.971891   1.000000
    4       -2.307388   1.000000
    5        1.600484   1.000000
    6        2.813766   1.000000
    7        3.046920   1.000000
    8        4.067073   1.000000
    9        4.165841   1.000000
   10        4.311086   1.000000
   11        6.274085   1.000000
   12        6.573633   1.000000
   13        9.274909   0.011629
   14       10.226347   0.000000
   15       10.394639   0.000000
   16       10.927656   0.000000

 -0.4615385E+00  0.1538462E+00  0.2499453E-16  0.1092399E-01
    1      -22.990409   1.000000
    2      -22.974188   1.000000
    3      -22.971457   1.000000
    4       -2.173301   1.000000
    5        1.538534   1.000000
    6        2.805078   1.000000
    7        2.945199   1.000000
    8        3.980523   1.000000
    9        4.187331   1.000000
   10        4.264568   1.000000
   11        6.196705   1.000000
   12        6.603381   1.000000
   13        9.416793   0.000000
   14        9.998117   0.000000
   15       10.397803   0.000000
   16       11.190957   0.000000

 -0.3846154E+00  0.1538462E+00 -0.6610376E-17  0.1092399E-01
    1      -22.989630   1.000000
    2      -22.974645   1.000000
    3      -22.971089   1.000000
    4       -2.238881   1.000000
    5        1.590761   1.000000
    6        2.837277   1.000000
    7        2.885521   1.000000
    8        3.983903   1.000000
    9        4.219248   1.000000
   10        4.327869   1.000000
   11        6.125862   1.000000
   12        6.668694   1.000000
   13        9.498604   0.000000
   14       10.051822   0.000000
   15       10.382698   0.000000
   16       11.168114   0.000000

 -0.3076923E+00  0.1538462E+00 -0.6479006E-17  0.1092399E-01
    1      -22.987329   1.000000
    2      -22.974781   1.000000
    3      -22.970857   1.000000
    4       -2.474907   1.000000
    5        1.750642   1.000000
    6        2.752958   1.000000
    7        3.020450   1.000000
    8        4.029065   1.000000
    9        4.234115   1.000000
   10        4.548007   1.000000
   11        6.056729   1.000000
   12        6.793320   1.000000
   13        9.509966   0.000000
   14       10.201875   0.000000
   15       10.452770   0.000000
   16       11.015554   0.000000

 -0.2307692E+00  0.1538462E+00  0.7221109E-17  0.1092399E-01
    1      -22.984120   1.000000
    2      -22.974471   1.000000
    3      -22.970825   1.000000
    4       -2.792360   1.000000
    5        1.978501   1.000000
    6        2.715706   1.000000
    7        3.143255   1.000000
    8        4.036411   1.000000
    9        4.209849   1.000000
   10        4.970557   1.000000
   11        6.047602   1.000000
   12        6.980318   1.000000
   13        9.623326   0.000000
   14        9.970540   0.000000
   15       10.303941   0.000000
   16       11.157694   0.000000

 -0.1538462E+00  0.1538462E+00  0.7352479E-17  0.5461994E-02
    1      -22.980831   1.000000
    2      -22.973640   1.000000
    3      -22.971002   1.000000
    4       -3.104401   1.000000
    5        2.243173   1.000000
    6        2.737320   1.000000
    7        3.184063   1.000000
    8        4.009334   1.000000
    9        4.146764   1.000000
   10        5.465384   1.000000
   11        6.250252   1.000000
   12        7.185503   1.000000
   13        9.621250   0.000000
   14        9.781196   0.000000
   15        9.986192   0.000000
   16       10.976606   0.000000

  0.2307692E+00  0.2307692E+00 -0.8067746E-17  0.2730997E-02
    1      -22.981050   1.000000
    2      -22.973018   1.000000
    3      -22.973018   1.000000
    4       -3.043375   1.000000
    5        1.883192   1.000000
    6        3.281471   1.000000
    7        3.281471   1.000000
    8        3.888650   1.000000
    9        4.126767   1.000000
   10        5.684204   1.000000
   11        6.524418   1.000000
   12        6.524418   1.000000
   13        8.774985   1.000000
   14        9.869176   0.000000
   15        9.931329   0.000000
   16       11.532088   0.000000

  0.3076923E+00  0.2307692E+00 -0.1085130E-16  0.1092399E-01
    1      -22.983932   1.000000
    2      -22.973362   1.000000
    3      -22.973168   1.000000
    4       -2.809259   1.000000
    5        1.726251   1.000000
    6        3.260485   1.000000
    7        3.320495   1.000000
    8        3.893314   1.000000
    9        4.203451   1.000000
   10        5.262591   1.000000
   11        6.319210   1.000000
   12        6.390888   1.000000
   13        8.882440   1.000000
   14        9.816010   0.000000
   15       10.022512   0.000000
   16       11.537962   0.000000

  0.3846154E+00  0.2307692E+00 -0.1473391E-16  0.1092399E-01
    1      -22.986723   1.000000
    2      -22.974102   1.000000
    3      -22.973049   1.000000
    4       -2.541148   1.000000
    5        1.653758   1.000000
    6        3.109364   1.000000
    7        3.300668   1.000000
    8        3.987545   1.000000
    9        4.244915   1.000000
   10        4.765942   1.000000
   11        6.082239   1.000000
   12        6.346554   1.000000
   13        9.008591   1.000000
   14        9.832285   0.000000
   15       10.449421   0.000000
   16       11.150141   0.000000

  0.4615385E+00  0.2307692E+00 -0.1780551E-17  0.1092399E-01
    1      -22.988560   1.000000
    2      -22.975328   1.000000
    3      -22.972684   1.000000
    4       -2.299780   1.000000
    5        1.664652   1.000000
    6        2.931092   1.000000
    7        3.221848   1.000000
    8        4.032292   1.000000
    9        4.260638   1.000000
   10        4.412871   1.000000
   11        5.878296   1.000000
   12        6.358512   1.000000
   13        9.063875   1.000000
   14       10.030492   0.000000
   15       10.589524   0.000000
   16       11.016780   0.000000

 -0.4615385E+00  0.2307692E+00 -0.1388702E-16  0.1092399E-01
    1      -22.989057   1.000000
    2      -22.976722   1.000000
    3      -22.972162   1.000000
    4       -2.151507   1.000000
    5        1.721207   1.000000
    6        2.796294   1.000000
    7        3.092780   1.000000
    8        3.911844   1.000000
    9        4.280988   1.000000
   10        4.391057   1.000000
   11        5.728159   1.000000
   12        6.394568   1.000000
   13        9.177287   1.000000
   14       10.148733   0.000000
   15       10.339645   0.000000
   16       11.280339   0.000000

 -0.3846154E+00  0.2307692E+00  0.2171886E-16  0.1092399E-01
    1      -22.988293   1.000000
    2      -22.977797   1.000000
    3      -22.971597   1.000000
    4       -2.144224   1.000000
    5        1.751939   1.000000
    6        2.790017   1.000000
    7        2.944488   1.000000
    8        3.872603   1.000000
    9        4.304256   1.000000
   10        4.491123   1.000000
   11        5.620215   1.000000
   12        6.463228   1.000000
   13        9.379655   0.000000
   14        9.960265   0.000000
   15       10.488595   0.000000
   16       11.210106   0.000000

 -0.3076923E+00  0.2307692E+00 -0.5905348E-17  0.1092399E-01
    1      -22.986846   1.000000
    2      -22.977910   1.000000
    3      -22.971124   1.000000
    4       -2.282031   1.000000
    5        1.758377   1.000000
    6        2.814904   1.000000
    7        2.922235   1.000000
    8        3.944806   1.000000
    9        4.306224   1.000000
   10        4.646489   1.000000
   11        5.555270   1.000000
   12        6.590636   1.000000
   13        9.513750   0.000000
   14       10.231709   0.000000
   15       10.372847   0.000000
   16       11.108626   0.000000

 -0.2307692E+00  0.2307692E+00  0.1944951E-17  0.5461994E-02
    1      -22.985428   1.000000
    2      -22.976623   1.000000
    3      -22.970844   1.000000
    4       -2.520948   1.000000
    5        1.821829   1.000000
    6        2.733096   1.000000
    7        3.080296   1.000000
    8        4.014757   1.000000
    9        4.272483   1.000000
   10        4.839047   1.000000
   11        5.642180   1.000000
   12        6.778064   1.000000
   13        9.604029   0.000000
   14       10.165267   0.000000
   15       10.764552   0.000000
   16       10.983017   0.000000

  0.3076923E+00  0.3076923E+00 -0.1075699E-16  0.2730997E-02
    1      -22.986098   1.000000
    2      -22.973579   1.000000
    3      -22.973579   1.000000
    4       -2.645008   1.000000
    5        1.614125   1.000000
    6        3.422116   1.000000
    7        3.422116   1.000000
    8        3.741624   1.000000
    9        4.296923   1.000000
   10        5.070161   1.000000
   11        6.226610   1.000000
   12        6.226610   1.000000
   13        8.690641   1.000000
   14        9.638156   0.000000
   15       10.086232   0.000000
   16       11.481015   0.000000

  0.3846154E+00  0.3076923E+00 -0.6165563E-17  0.1092399E-01
    1      -22.988324   1.000000
    2      -22.974145   1.000000
    3      -22.973684   1.000000
    4       -2.448987   1.000000
    5        1.603938   1.000000
    6        3.332921   1.000000
    7        3.451887   1.000000
    8        3.806952   1.000000
    9        4.358951   1.000000
   10        4.699856   1.000000
   11        6.025746   1.000000
   12        6.156398   1.000000
   13        8.741529   1.000000
   14        9.571126   0.000000
   15       10.317656   0.000000
   16       11.201280   0.000000

  0.4615385E+00  0.3076923E+00 -0.1402888E-16  0.1092399E-01
    1      -22.989527   1.000000
    2      -22.975503   1.000000
    3      -22.973463   1.000000
    4       -2.266145   1.000000
    5        1.701870   1.000000
    6        3.124604   1.000000
    7        3.400924   1.000000
    8        3.938194   1.000000
    9        4.361136   1.000000
   10        4.379304   1.000000
   11        5.728171   1.000000
   12        6.159824   1.000000
   13        8.827065   1.000000
   14        9.714867   0.000000
   15       10.674974   0.000000
   16       10.953795   0.000000

 -0.4615385E+00  0.3076923E+00  0.1842292E-16  0.1092399E-01
    1      -22.989269   1.000000
    2      -22.977534   1.000000
    3      -22.972973   1.000000
    4       -2.138513   1.000000
    5        1.867802   1.000000
    6        2.906890   1.000000
    7        3.274044   1.000000
    8        3.814654   1.000000
    9        4.387148   1.000000
   10        4.399814   1.000000
   11        5.447217   1.000000
   12        6.196457   1.000000
   13        8.927365   1.000000
   14       10.092586   0.000000
   15       10.318588   0.000000
   16       11.032771   0.000000

 -0.3846154E+00  0.3076923E+00 -0.1318199E-16  0.1092399E-01
    1      -22.987767   1.000000
    2      -22.979614   1.000000
    3      -22.972315   1.000000
    4       -2.094247   1.000000
    5        1.974028   1.000000
    6        2.736288   1.000000
    7        3.105179   1.000000
    8        3.735115   1.000000
    9        4.387206   1.000000
   10        4.615238   1.000000
   11        5.239417   1.000000
   12        6.268390   1.000000
   13        9.113497   1.000000
   14       10.042067   0.000000
   15       10.544831   0.000000
   16       11.012430   0.000000

 -0.3076923E+00  0.3076923E+00  0.1470496E-16  0.5461994E-02
    1      -22.986467   1.000000
    2      -22.980179   1.000000
    3      -22.971645   1.000000
    4       -2.144662   1.000000
    5        1.883187   1.000000
    6        2.773323   1.000000
    7        2.939960   1.000000
    8        3.818223   1.000000
    9        4.361895   1.000000
   10        4.740840   1.000000
   11        5.227068   1.000000
   12        6.400557   1.000000
   13        9.363526   0.000000
   14        9.986597   0.000000
   15       10.540715   0.000000
   16       10.968423   0.000000

  0.3846154E+00  0.3846154E+00 -0.1344624E-16  0.2730997E-02
    1      -22.990363   1.000000
    2      -22.974047   1.000000
    3      -22.974047   1.000000
    4       -2.331738   1.000000
    5        1.638528   1.000000
    6        3.539386   1.000000
    7        3.539386   1.000000
    8        3.595961   1.000000
    9        4.415373   1.000000
   10        4.451979   1.000000
   11        6.047954   1.000000
   12        6.047954   1.000000
   13        8.610999   1.000000
   14        9.381564   0.000000
   15       10.216190   0.000000
   16       11.134466   0.000000

  0.4615385E+00  0.3846154E+00 -0.2076750E-16  0.1092399E-01
    1      -22.991499   1.000000
    2      -22.974702   1.000000
    3      -22.974045   1.000000
    4       -2.219264   1.000000
    5        1.763933   1.000000
    6        3.342904   1.000000
    7        3.540851   1.000000
    8        3.775859   1.000000
    9        4.102718   1.000000
   10        4.488286   1.000000
   11        5.869643   1.000000
   12        6.025328   1.000000
   13        8.639864   1.000000
   14        9.392892   0.000000
   15       10.390003   0.000000
   16       10.914735   0.000000

 -0.4615385E+00  0.3846154E+00 -0.8758994E-17  0.1092399E-01
    1      -22.991104   1.000000
    2      -22.976335   1.000000
    3      -22.973701   1.000000
    4       -2.135238   1.000000
    5        1.934489   1.000000
    6        3.127752   1.000000
    7        3.449042   1.000000
    8        3.702359   1.000000
    9        4.165895   1.000000
   10        4.481922   1.000000
   11        5.550768   1.000000
   12        6.054425   1.000000
   13        8.728713   1.000000
   14        9.670304   0.000000
   15       10.460467   0.000000
   16       10.868625   0.000000

 -0.3846154E+00  0.3846154E+00  0.1514725E-16  0.5461994E-02
    1      -22.989396   1.000000
    2      -22.978485   1.000000
    3      -22.973087   1.000000
    4       -2.091999   1.000000
    5        2.050244   1.000000
    6        2.876601   1.000000
    7        3.288139   1.000000
    8        3.635464   1.000000
    9        4.448881   1.000000
   10        4.453533   1.000000
   11        5.263283   1.000000
   12        6.129343   1.000000
   13        8.880032   1.000000
   14       10.172708   0.000000
   15       10.224221   0.000000
   16       10.790524   0.000000

  0.4615385E+00  0.4615385E+00 -0.1613549E-16  0.2730997E-02
    1      -22.992801   1.000000
    2      -22.974307   1.000000
    3      -22.974307   1.000000
    4       -2.175445   1.000000
    5        1.855879   1.000000
    6        3.551597   1.000000
    7        3.604596   1.000000
    8        3.604596   1.000000
    9        3.828202   1.000000
   10        4.546481   1.000000
   11        5.972196   1.000000
   12        5.972196   1.000000
   13        8.562792   1.000000
   14        9.229946   0.999978
   15       10.173841   0.000000
   16       10.880320   0.000000

 -0.4615385E+00  0.4615385E+00 -0.1154795E-16  0.5461994E-02
    1      -22.992665   1.000000
    2      -22.974914   1.000000
    3      -22.974190   1.000000
    4       -2.146362   1.000000
    5        1.928251   1.000000
    6        3.372070   1.000000
    7        3.571391   1.000000
    8        3.658490   1.000000
    9        3.867701   1.000000
   10        4.540692   1.000000
   11        5.824042   1.000000
   12        5.983456   1.000000
   13        8.603467   1.000000
   14        9.328941   0.000000
   15       10.336830   0.000000
   16       10.812125   0.000000

  0.2307692E+00  0.1538462E+00  0.7692308E-01  0.1092399E-01
    1      -22.977952   1.000000
    2      -22.972808   1.000000
    3      -22.971712   1.000000
    4       -3.331577   1.000000
    5        2.350888   1.000000
    6        2.964568   1.000000
    7        3.162774   1.000000
    8        3.981003   1.000000
    9        4.044165   1.000000
   10        5.953175   1.000000
   11        6.665369   1.000000
   12        7.163806   1.000000
   13        9.143996   1.000000
   14        9.646827   0.000000
   15       10.094012   0.000000
   16       10.987374   0.000000

  0.3076923E+00  0.1538462E+00  0.7692308E-01  0.2184797E-01
    1      -22.981569   1.000000
    2      -22.973264   1.000000
    3      -22.971429   1.000000
    4       -3.052609   1.000000
    5        2.109668   1.000000
    6        2.874938   1.000000
    7        3.166585   1.000000
    8        4.029653   1.000000