 vasp.6.0.8 29Jun18 (build Jun 13 2019 12:54:44) complex

 executed on      IFC18_CrayMPICH date 2021.12.05  14:21:52
 running   64 mpi-ranks, with    1 threads/rank
 distrk:  each k-point on   16 cores,    4 groups
 distr:  one band on NCORES_PER_BAND=   4 cores,    4 groups


--------------------------------------------------------------------------------------------------------


 INCAR:
 POTCAR:    PAW_PBE Hf_pv 06Sep2000
 POTCAR:    PAW_PBE Sb 06Sep2000
 POTCAR:    PAW_PBE Pt 04Feb2005
 POTCAR:    PAW_PBE Hf_pv 06Sep2000
   VRHFIN =Hf: 5p6s5d
   LEXCH  = PE
   EATOM  =   860.9206 eV,   63.2759 Ry

   TITEL  = PAW_PBE Hf_pv 06Sep2000
   LULTRA =        F    use ultrasoft PP ?
   IUNSCR =        1    unscreen: 0-lin 1-nonlin 2-no
   RPACOR =    2.500    partial core radius
   POMASS =  178.490; ZVAL   =   10.000    mass and valenz
   RCORE  =    2.600    outmost cutoff radius
   RWIGS  =    3.050; RWIGS  =    1.614    wigner-seitz radius (au A)
   ENMAX  =  220.334; ENMIN  =  165.250 eV
   RCLOC  =    2.212    cutoff for local pot
   LCOR   =        T    correct aug charges
   LPAW   =        T    paw PP
   EAUG   =  380.878
   DEXC   =    0.000
   RMAX   =    2.665    core radius for proj-oper
   RAUG   =    1.300    factor for augmentation sphere
   RDEP   =    2.681    radius for radial grids
   RDEPT  =    2.139    core radius for aug-charge

   Atomic configuration
   15 entries
     n  l   j            E        occ.
     1  0  0.50    -65259.4397   2.0000
     2  0  0.50    -11157.9884   2.0000
     2  1  1.50     -9795.2114   6.0000
     3  0  0.50     -2541.4060   2.0000
     3  1  1.50     -2134.4772   6.0000
     3  2  2.50     -1653.5420  10.0000
     4  0  0.50      -510.9577   2.0000
     4  1  1.50      -377.5024   6.0000
     4  2  2.50      -205.2086  10.0000
     4  3  3.50       -15.4906  14.0000
     5  0  0.50       -65.6020   2.0000
     5  1  1.50       -34.2798   6.0000
     5  2  2.50        -1.9877   3.0000
     6  0  0.50        -4.7357   1.0000
     5  3  2.50        -1.3606   0.0000
   Description
     l       E           TYP  RCUT    TYP  RCUT
     1    -34.2797769     23  2.500
     1    -35.6403595     23  2.500
     2     -1.9876655     23  2.500
     2      0.0744675     23  2.500
     0     -4.7356889     23  2.600
     0      3.2364748     23  2.600
  local pseudopotential read in
  partial core-charges read in
  partial kinetic energy density read in
  atomic valenz-charges read in
  non local Contribution for L=           1  read in
    real space projection operators read in
  non local Contribution for L=           1  read in
    real space projection operators read in
  non local Contribution for L=           2  read in
    real space projection operators read in
  non local Contribution for L=           2  read in
    real space projection operators read in
  non local Contribution for L=           0  read in
    real space projection operators read in
  non local Contribution for L=           0  read in
    real space projection operators read in
    PAW grid and wavefunctions read in

   number of l-projection  operators is LMAX  =           6
   number of lm-projection operators is LMMAX =          18

 POTCAR:    PAW_PBE Sb 06Sep2000
   VRHFIN =Sb: s2p3
   LEXCH  = PE
   EATOM  =   149.9515 eV,   11.0211 Ry

   TITEL  = PAW_PBE Sb 06Sep2000
   LULTRA =        F    use ultrasoft PP ?
   IUNSCR =        1    unscreen: 0-lin 1-nonlin 2-no
   RPACOR =    2.200    partial core radius
   POMASS =  121.750; ZVAL   =    5.000    mass and valenz
   RCORE  =    2.300    outmost cutoff radius
   RWIGS  =    2.980; RWIGS  =    1.577    wigner-seitz radius (au A)
   ENMAX  =  172.069; ENMIN  =  129.052 eV
   ICORE  =        3    local potential
   LCOR   =        T    correct aug charges
   LPAW   =        T    paw PP
   EAUG   =  380.513
   DEXC   =    0.000
   RMAX   =    2.346    core radius for proj-oper
   RAUG   =    1.300    factor for augmentation sphere
   RDEP   =    2.360    radius for radial grids
   RDEPT  =    2.192    core radius for aug-charge

   Atomic configuration
   13 entries
     n  l   j            E        occ.
     1  0  0.50    -30298.2797   2.0000
     2  0  0.50     -4610.2252   2.0000
     2  1  1.50     -4138.3407   6.0000
     3  0  0.50      -903.8815   2.0000
     3  1  1.50      -750.1337   6.0000
     3  2  2.50      -515.7092  10.0000
     4  0  0.50      -148.8034   2.0000
     4  1  1.50      -101.7581   6.0000
     4  2  2.50       -33.5048  10.0000
     5  0  0.50       -12.8298   2.0000
     5  1  0.50        -4.8276   3.0000
     5  2  1.50        -4.0817   0.0000
     4  3  2.50        -4.0817   0.0000
   Description
     l       E           TYP  RCUT    TYP  RCUT
     0    -12.8297861     23  2.300
     0     13.6058260     23  2.300
     1     -4.8275512     23  2.300
     1     -0.7245443     23  2.300
     2     -4.0817478     23  2.300
     3     -1.3605826     23  2.300
  local pseudopotential read in
  partial core-charges read in
  partial kinetic energy density read in
  atomic valenz-charges read in
  non local Contribution for L=           0  read in
    real space projection operators read in
  non local Contribution for L=           0  read in
    real space projection operators read in
  non local Contribution for L=           1  read in
    real space projection operators read in
  non local Contribution for L=           1  read in
    real space projection operators read in
  non local Contribution for L=           2  read in
    real space projection operators read in
    PAW grid and wavefunctions read in

   number of l-projection  operators is LMAX  =           5
   number of lm-projection operators is LMMAX =          13

 POTCAR:    PAW_PBE Pt 04Feb2005
   VRHFIN =Pt: s1d9
   LEXCH  = PE
   EATOM  =   729.1176 eV,   53.5886 Ry

   TITEL  = PAW_PBE Pt 04Feb2005
   LULTRA =        F    use ultrasoft PP ?
   IUNSCR =        1    unscreen: 0-lin 1-nonlin 2-no
   RPACOR =    2.330    partial core radius
   POMASS =  195.080; ZVAL   =   10.000    mass and valenz
   RCORE  =    2.600    outmost cutoff radius
   RWIGS  =    2.750; RWIGS  =    1.455    wigner-seitz radius (au A)
   ENMAX  =  230.283; ENMIN  =  172.712 eV
   ICORE  =        3    local potential
   LCOR   =        T    correct aug charges
   LPAW   =        T    paw PP
   EAUG   =  358.966
   DEXC   =    0.000
   RMAX   =    2.658    core radius for proj-oper
   RAUG   =    1.300    factor for augmentation sphere
   RDEP   =    2.761    radius for radial grids
   RDEPT  =    2.203    core radius for aug-charge

   Atomic configuration
   16 entries
     n  l   j            E        occ.
     1  0  0.50    -78401.1885   2.0000
     2  0  0.50    -13770.7750   2.0000
     2  1  1.50    -11931.0468   6.0000
     3  0  0.50     -3234.7234   2.0000
     3  1  1.50     -2699.2216   6.0000
     3  2  2.50     -2119.5714  10.0000
     4  0  0.50      -695.1528   2.0000
     4  1  1.50      -519.6034   6.0000
     4  2  2.50      -306.6786  10.0000
     4  3  3.50       -70.1041  14.0000
     5  0  0.50      -101.7747   2.0000
     5  1  1.50       -55.9873   6.0000
     5  2  2.50        -6.1423   9.0000
     6  0  0.50        -5.6573   1.0000
     6  1  1.50        -6.8029   0.0000
     5  3  2.50        -1.3606   0.0000
   Description
     l       E           TYP  RCUT    TYP  RCUT
     2     -6.1423404     23  2.500
     2     -7.5029230     23  2.500
     0     -5.6573207     23  2.500
     0      0.7416693     23  2.500
     1     -2.7211652     23  2.600
     1     20.4087390     23  2.600
     3     -1.3605826     23  2.500
  local pseudopotential read in
  partial core-charges read in
  partial kinetic energy density read in
  atomic valenz-charges read in
  non local Contribution for L=           2  read in
    real space projection operators read in
  non local Contribution for L=           2  read in
    real space projection operators read in
  non local Contribution for L=           0  read in
    real space projection operators read in
  non local Contribution for L=           0  read in
    real space projection operators read in
  non local Contribution for L=           1  read in
    real space projection operators read in
  non local Contribution for L=           1  read in
    real space projection operators read in
    PAW grid and wavefunctions read in

   number of l-projection  operators is LMAX  =           6
   number of lm-projection operators is LMMAX =          18


 -----------------------------------------------------------------------------
|                                                                             |
|  ADVICE TO THIS USER RUNNING 'VASP/VAMP'   (HEAR YOUR MASTER'S VOICE ...):  |
|                                                                             |
|      You enforced a specific xc-type in the INCAR file,                     |
|      a different type was found on the POTCAR file                          |
|          I HOPE YOU KNOW, WHAT YOU ARE  DOING                               |
|                                                                             |
 -----------------------------------------------------------------------------

  PAW_PBE Hf_pv 06Sep2000               :
 energy of atom  1       EATOM= -860.9206
 kinetic energy error for atom=    0.0004 (will be added to EATOM!!)
  PAW_PBE Sb 06Sep2000                  :
 energy of atom  2       EATOM= -149.9515
 kinetic energy error for atom=    0.0002 (will be added to EATOM!!)
  PAW_PBE Pt 04Feb2005                  :
 energy of atom  3       EATOM= -729.1176
 kinetic energy error for atom=    0.0010 (will be added to EATOM!!)


 POSCAR: Hf1 Sb1 Pt1
  positions in direct lattice
  No initial velocities read in
 exchange correlation table for  LEXCH =       14
   RHO(1)=    0.500       N(1)  =     2000
   RHO(2)=  100.500       N(2)  =     4000



--------------------------------------------------------------------------------------------------------


 ion  position               nearest neighbor table
   1  0.750  0.750  0.750-   3 2.73   3 2.73   3 2.73   3 2.73   2 3.16   2 3.16   2 3.16   2 3.16
                             2 3.16   2 3.16
   2  0.250  0.250  0.250-   3 2.73   3 2.73   3 2.73   3 2.73   1 3.16   1 3.16   1 3.16   1 3.16
                             1 3.16   1 3.16
   3  0.000  0.000  0.000-   1 2.73   1 2.73   1 2.73   2 2.73   2 2.73   2 2.73   2 2.73   1 2.73


  LATTYP: Found a face centered cubic cell.
 ALAT       =     6.3139051843

  Lattice vectors:

 A1 = (   0.0000000000,   3.1569525922,   3.1569525922)
 A2 = (   3.1569525922,   0.0000000000,   3.1569525922)
 A3 = (   3.1569525922,   3.1569525922,   0.0000000000)


Analysis of symmetry for initial positions (statically):
=====================================================================
 Subroutine PRICEL returns:
 Original cell was already a primitive cell.


 Routine SETGRP: Setting up the symmetry group for a
 face centered cubic supercell.


 Subroutine GETGRP returns: Found 24 space group operations
 (whereof 24 operations were pure point group operations)
 out of a pool of 48 trial point group operations.


The static configuration has the point symmetry T_d .


Analysis of symmetry for dynamics (positions and initial velocities):
=====================================================================
 Subroutine PRICEL returns:
 Original cell was already a primitive cell.


 Routine SETGRP: Setting up the symmetry group for a
 face centered cubic supercell.


 Subroutine GETGRP returns: Found 24 space group operations
 (whereof 24 operations were pure point group operations)
 out of a pool of 48 trial point group operations.


The dynamic configuration has the point symmetry T_d .


 Subroutine INISYM returns: Found 24 space group operations
 (whereof 24 operations are pure point group operations),
 and found     1 'primitive' translations


----------------------------------------------------------------------------------------

                                     Primitive cell

  volume of cell :      62.9266

  direct lattice vectors                    reciprocal lattice vectors
     0.000000000  3.156952592  3.156952592    -0.158380586  0.158380586  0.158380586
     3.156952592  0.000000000  3.156952592     0.158380586 -0.158380586  0.158380586
     3.156952592  3.156952592  0.000000000     0.158380586  0.158380586 -0.158380586

  length of vectors
     4.464605172  4.464605172  4.464605172     0.274323221  0.274323221  0.274323221

  position of ions in fractional coordinates (direct lattice)
     0.750000000  0.750000000  0.750000000
     0.250000000  0.250000000  0.250000000
     0.000000000  0.000000000  0.000000000

  ion indices of the primitive-cell ions
   primitive index   ion index
                 1           1
                 2           2
                 3           3

----------------------------------------------------------------------------------------



 KPOINTS: KPOINTS

Automatic generation of k-mesh.
Space group operators:
 irot       det(A)        alpha          n_x          n_y          n_z        tau_x        tau_y        tau_z
    1     1.000000     0.000001     1.000000     0.000000     0.000000     0.000000     0.000000     0.000000
    2     1.000000   120.000000    -0.577350    -0.577350    -0.577350     0.000000     0.000000     0.000000
    3     1.000000   120.000000     0.577350     0.577350     0.577350     0.000000     0.000000     0.000000
    4    -1.000000    90.000000     0.000000     0.000000    -1.000000     0.000000     0.000000     0.000000
    5    -1.000000   180.000000     0.000000     0.707107     0.707107     0.000000     0.000000     0.000000
    6    -1.000000    90.000000     0.000000     1.000000     0.000000     0.000000     0.000000     0.000000
    7     1.000000   180.000000     0.000000     0.000000     1.000000     0.000000     0.000000     0.000000
    8     1.000000   120.000000    -0.577350     0.577350     0.577350     0.000000     0.000000     0.000000
    9     1.000000   120.000000    -0.577350     0.577350    -0.577350     0.000000     0.000000     0.000000
   10    -1.000000    90.000000     0.000000     0.000000     1.000000     0.000000     0.000000     0.000000
   11    -1.000000    90.000000    -1.000000    -0.000000    -0.000000     0.000000     0.000000     0.000000
   12    -1.000000   180.000000     0.707107     0.000000     0.707107     0.000000     0.000000     0.000000
   13     1.000000   120.000000     0.577350    -0.577350     0.577350     0.000000     0.000000     0.000000
   14     1.000000   120.000000    -0.577350    -0.577350     0.577350     0.000000     0.000000     0.000000
   15     1.000000   180.000000     1.000000     0.000000     0.000000     0.000000     0.000000     0.000000
   16    -1.000000    90.000000     0.000000    -1.000000     0.000000     0.000000     0.000000     0.000000
   17    -1.000000   180.000000     0.707107     0.707107     0.000000     0.000000     0.000000     0.000000
   18    -1.000000    90.000000     1.000000     0.000000    -0.000000     0.000000     0.000000     0.000000
   19     1.000000   120.000000     0.577350    -0.577350    -0.577350     0.000000     0.000000     0.000000
   20     1.000000   180.000000     0.000000    -1.000000     0.000000     0.000000     0.000000     0.000000
   21     1.000000   120.000000     0.577350     0.577350    -0.577350     0.000000     0.000000     0.000000
   22    -1.000000   180.000000     0.000000    -0.707107     0.707107     0.000000     0.000000     0.000000
   23    -1.000000   180.000000     0.707107    -0.707107    -0.000000     0.000000     0.000000     0.000000
   24    -1.000000   180.000000     0.707107     0.000000    -0.707107     0.000000     0.000000     0.000000

 Subroutine IBZKPT returns following result:
 ===========================================

 Found     84 irreducible k-points:

 Following reciprocal coordinates:
            Coordinates               Weight
  0.000000  0.000000  0.000000      1.000000
  0.076923  0.000000 -0.000000      8.000000
  0.153846  0.000000 -0.000000      8.000000
  0.230769  0.000000  0.000000      8.000000
  0.307692  0.000000 -0.000000      8.000000
  0.384615  0.000000 -0.000000      8.000000
  0.461538 -0.000000  0.000000      8.000000
  0.076923  0.076923 -0.000000      6.000000
  0.153846  0.076923  0.000000     24.000000
  0.230769  0.076923 -0.000000     24.000000
  0.307692  0.076923  0.000000     24.000000
  0.384615  0.076923 -0.000000     24.000000
  0.461538  0.076923 -0.000000     24.000000
 -0.461538  0.076923 -0.000000     24.000000
 -0.384615  0.076923  0.000000     24.000000
 -0.307692  0.076923  0.000000     24.000000
 -0.230769  0.076923  0.000000     24.000000
 -0.153846  0.076923  0.000000     24.000000
 -0.076923  0.076923  0.000000     12.000000
  0.153846  0.153846 -0.000000      6.000000
  0.230769  0.153846  0.000000     24.000000
  0.307692  0.153846 -0.000000     24.000000
  0.384615  0.153846  0.000000     24.000000
  0.461538  0.153846 -0.000000     24.000000
 -0.461538  0.153846  0.000000     24.000000
 -0.384615  0.153846 -0.000000     24.000000
 -0.307692  0.153846 -0.000000     24.000000
 -0.230769  0.153846  0.000000     24.000000
 -0.153846  0.153846  0.000000     12.000000
  0.230769  0.230769 -0.000000      6.000000
  0.307692  0.230769 -0.000000     24.000000
  0.384615  0.230769 -0.000000     24.000000
  0.461538  0.230769 -0.000000     24.000000
 -0.461538  0.230769 -0.000000     24.000000
 -0.384615  0.230769  0.000000     24.000000
 -0.307692  0.230769 -0.000000     24.000000
 -0.230769  0.230769  0.000000     12.000000
  0.307692  0.307692 -0.000000      6.000000
  0.384615  0.307692 -0.000000     24.000000
  0.461538  0.307692 -0.000000     24.000000
 -0.461538  0.307692  0.000000     24.000000
 -0.384615  0.307692 -0.000000     24.000000
 -0.307692  0.307692  0.000000     12.000000
  0.384615  0.384615 -0.000000      6.000000
  0.461538  0.384615 -0.000000     24.000000
 -0.461538  0.384615 -0.000000     24.000000
 -0.384615  0.384615  0.000000     12.000000
  0.461538  0.461538 -0.000000      6.000000
 -0.461538  0.461538 -0.000000     12.000000
  0.230769  0.153846  0.076923     24.000000
  0.307692  0.153846  0.076923     48.000000
  0.384615  0.153846  0.076923     48.000000
  0.461538  0.153846  0.076923     48.000000
 -0.461538  0.153846  0.076923     48.000000
  0.307692  0.230769  0.076923     24.000000
  0.384615  0.230769  0.076923     48.000000
  0.461538  0.230769  0.076923     48.000000
 -0.461538  0.230769  0.076923     48.000000
 -0.384615  0.230769  0.076923     48.000000
 -0.307692  0.230769  0.076923     48.000000
 -0.230769  0.230769  0.076923     48.000000
 -0.153846  0.230769  0.076923     24.000000
  0.384615  0.307692  0.076923     24.000000
  0.461538  0.307692  0.076923     48.000000
 -0.461538  0.307692  0.076923     48.000000
 -0.384615  0.307692  0.076923     48.000000
 -0.307692  0.307692  0.076923     48.000000
 -0.230769  0.307692  0.076923     24.000000
  0.461538  0.384615  0.076923     24.000000
 -0.461538  0.384615  0.076923     48.000000
 -0.384615  0.384615  0.076923     48.000000
 -0.307692  0.384615  0.076923     24.000000
 -0.461538  0.461538  0.076923     24.000000
 -0.384615  0.461538  0.076923     24.000000
  0.461538  0.307692  0.153846     24.000000
 -0.461538  0.307692  0.153846     48.000000
 -0.384615  0.307692  0.153846     48.000000
 -0.461538  0.384615  0.153846     24.000000
 -0.384615  0.384615  0.153846     48.000000
 -0.307692  0.384615  0.153846     48.000000
 -0.230769  0.384615  0.153846     24.000000
 -0.384615  0.461538  0.153846     24.000000
 -0.307692  0.461538  0.153846     24.000000
 -0.307692  0.461538  0.230769     24.000000

 Following cartesian coordinates:
            Coordinates               Weight
  0.000000  0.000000  0.000000      1.000000
 -0.012101  0.012101  0.012101      8.000000
 -0.024203  0.024203  0.024203      8.000000
 -0.036304  0.036304  0.036304      8.000000
 -0.048405  0.048405  0.048405      8.000000
 -0.060507  0.060507  0.060507      8.000000
 -0.072608  0.072608  0.072608      8.000000
 -0.000000 -0.000000  0.024203      6.000000
 -0.012101  0.012101  0.036304     24.000000
 -0.024203  0.024203  0.048405     24.000000
 -0.036304  0.036304  0.060507     24.000000
 -0.048405  0.048405  0.072608     24.000000
 -0.060507  0.060507  0.084709     24.000000
  0.084709 -0.084709 -0.060507     24.000000
  0.072608 -0.072608 -0.048405     24.000000
  0.060507 -0.060507 -0.036304     24.000000
  0.048405 -0.048405 -0.024203     24.000000
  0.036304 -0.036304 -0.012101     24.000000
  0.024203 -0.024203  0.000000     12.000000
 -0.000000  0.000000  0.048405      6.000000
 -0.012101  0.012101  0.060507     24.000000
 -0.024203  0.024203  0.072608     24.000000
 -0.036304  0.036304  0.084709     24.000000
 -0.048405  0.048405  0.096811     24.000000
  0.096811 -0.096811 -0.048405     24.000000
  0.084709 -0.084709 -0.036304     24.000000
  0.072608 -0.072608 -0.024203     24.000000
  0.060507 -0.060507 -0.012101     24.000000
  0.048405 -0.048405  0.000000     12.000000
 -0.000000  0.000000  0.072608      6.000000
 -0.012101  0.012101  0.084709     24.000000
 -0.024203  0.024203  0.096811     24.000000
 -0.036304  0.036304  0.108912     24.000000
  0.108912 -0.108912 -0.036304     24.000000
  0.096811 -0.096811 -0.024203     24.000000
  0.084709 -0.084709 -0.012101     24.000000
  0.072608 -0.072608 -0.000000     12.000000
 -0.000000  0.000000  0.096811      6.000000
 -0.012101  0.012101  0.108912     24.000000
 -0.024203  0.024203  0.121014     24.000000
  0.121014 -0.121014 -0.024203     24.000000
  0.108912 -0.108912 -0.012101     24.000000
  0.096811 -0.096811  0.000000     12.000000
 -0.000000  0.000000  0.121014      6.000000
 -0.012101  0.012101  0.133115     24.000000
  0.133115 -0.133115 -0.012101     24.000000
  0.121014 -0.121014 -0.000000     12.000000
 -0.000000 -0.000000  0.145216      6.000000
  0.145216 -0.145216 -0.000000     12.000000
 -0.000000  0.024203  0.048405     24.000000
 -0.012101  0.036304  0.060507     48.000000
 -0.024203  0.048405  0.072608     48.000000
 -0.036304  0.060507  0.084709     48.000000
  0.108912 -0.084709 -0.060507     48.000000
  0.000000  0.024203  0.072608     24.000000
 -0.012101  0.036304  0.084709     48.000000
 -0.024203  0.048405  0.096811     48.000000
  0.121014 -0.096811 -0.048405     48.000000
  0.108912 -0.084709 -0.036304     48.000000
  0.096811 -0.072608 -0.024203     48.000000
  0.084709 -0.060507 -0.012101     48.000000
  0.072608 -0.048405 -0.000000     24.000000
 -0.000000  0.024203  0.096811     24.000000
 -0.012101  0.036304  0.108912     48.000000
  0.133115 -0.108912 -0.036304     48.000000
  0.121014 -0.096811 -0.024203     48.000000
  0.108912 -0.084709 -0.012101     48.000000
  0.096811 -0.072608 -0.000000     24.000000
  0.000000  0.024203  0.121014     24.000000
  0.145216 -0.121014 -0.024203     48.000000
  0.133115 -0.108912 -0.012101     48.000000
  0.121014 -0.096811 -0.000000     24.000000
  0.157318 -0.133115 -0.012101     24.000000
  0.145216 -0.121014 -0.000000     24.000000
 -0.000000  0.048405  0.096811     24.000000
  0.145216 -0.096811 -0.048405     48.000000
  0.133115 -0.084709 -0.036304     48.000000
  0.157318 -0.108912 -0.036304     24.000000
  0.145216 -0.096811 -0.024203     48.000000
  0.133115 -0.084709 -0.012101     48.000000
  0.121014 -0.072608 -0.000000     24.000000
  0.157318 -0.108912 -0.012101     24.000000
  0.145216 -0.096811 -0.000000     24.000000
  0.157318 -0.084709 -0.012101     24.000000



--------------------------------------------------------------------------------------------------------




 Dimension of arrays:
   k-points           NKPTS =     84   k-points in BZ     NKDIM =     84   number of bands    NBANDS=     16
   number of dos      NEDOS =    301   number of ions     NIONS =      3
   non local maximal  LDIM  =      6   non local SUM 2l+1 LMDIM =     18
   total plane-waves  NPLWV =  64000
   max r-space proj   IRMAX =      1   max aug-charges    IRDMAX= 492947
   dimension x,y,z NGX =    40 NGY =   40 NGZ =   40
   dimension x,y,z NGXF=    80 NGYF=   80 NGZF=   80
   support grid    NGXF=   160 NGYF=  160 NGZF=  160
   ions per type =               1   1   1
   NGX,Y,Z   is equivalent  to a cutoff of  14.89, 14.89, 14.89 a.u.
   NGXF,Y,Z  is equivalent  to a cutoff of  29.79, 29.79, 29.79 a.u.

 SYSTEM =  unknown system
 POSCAR =  Hf1 Sb1 Pt1

 Startparameter for this run:
   NWRITE =      2    write-flag & timer
   PREC   = acc       normal or accurate (medium, high low for compatibility)
   ISTART =      0    job   : 0-new  1-cont  2-samecut
   ICHARG =      2    charge: 1-file 2-atom 10-const
   ISPIN  =      1    spin polarized calculation?
   LNONCOLLINEAR =      F non collinear calculations
   LSORBIT =      F    spin-orbit coupling
   INIWAV =      1    electr: 0-lowe 1-rand  2-diag
   LASPH  =      F    aspherical Exc in radial PAW
   METAGGA=      F    non-selfconsistent MetaGGA calc.

 Electronic Relaxation 1
   ENCUT  =  700.0 eV  51.45 Ry    7.17 a.u.   9.63  9.63  9.63*2*pi/ulx,y,z
   ENINI  =  700.0     initial cutoff
   ENAUG  =  380.9 eV  augmentation charge cutoff
   NELM   =     60;   NELMIN=  5; NELMDL= -5     # of ELM steps
   EDIFF  = 0.1E-06   stopping-criterion for ELM
   LREAL  =      F    real-space projection
   NLSPLINE    = F    spline interpolate recip. space projectors
   LCOMPAT=      F    compatible to vasp.4.4
   GGA_COMPAT  = T    GGA compatible to vasp.4.4-vasp.4.6
   LMAXPAW     = -100 max onsite density
   LMAXMIX     =    2 max onsite mixed and CHGCAR
   VOSKOWN=      0    Vosko Wilk Nusair interpolation
   ROPT   =    0.00000   0.00000   0.00000
 Ionic relaxation
   EDIFFG = 0.1E-05   stopping-criterion for IOM
   NSW    =      0    number of steps for IOM
   NBLOCK =      1;   KBLOCK =      1    inner block; outer block
   IBRION =     -1    ionic relax: 0-MD 1-quasi-New 2-CG
   NFREE  =      0    steps in history (QN), initial steepest desc. (CG)
   ISIF   =      3    stress and relaxation
   IWAVPR =     10    prediction:  0-non 1-charg 2-wave 3-comb
   ISYM   =      2    0-nonsym 1-usesym 2-fastsym
   LCORR  =      T    Harris-Foulkes like correction to forces

   POTIM  = 0.5000    time-step for ionic-motion
   TEIN   =    0.0    initial temperature
   TEBEG  =    0.0;   TEEND  =   0.0 temperature during run
   SMASS  =  -3.00    Nose mass-parameter (am)
   estimated Nose-frequenzy (Omega)   =  0.10E-29 period in steps = 0.13E+47 mass=  -0.456E-27a.u.
   SCALEE = 1.0000    scale energy and forces
   NPACO  =    256;   APACO  = 16.0  distance and # of slots for P.C.
   PSTRESS=    0.0 pullay stress

  Mass of Ions in am
   POMASS = 178.49121.75195.08
  Ionic Valenz
   ZVAL   =  10.00  5.00 10.00
  Atomic Wigner-Seitz radii
   RWIGS  =  -1.00 -1.00 -1.00
  virtual crystal weights
   VCA    =   1.00  1.00  1.00
   NELECT =      25.0000    total number of electrons
   NUPDOWN=      -1.0000    fix difference up-down

 DOS related values:
   EMIN   =  10.00;   EMAX   =-10.00  energy-range for DOS
   EFERMI =   0.00
   ISMEAR =     0;   SIGMA  =   0.01  broadening in eV -4-tet -1-fermi 0-gaus

 Electronic relaxation 2 (details)
   IALGO  =     38    algorithm
   LDIAG  =      T    sub-space diagonalisation (order eigenvalues)
   LSUBROT=      F    optimize rotation matrix (better conditioning)
   TURBO    =      0    0=normal 1=particle mesh
   IRESTART =      0    0=no restart 2=restart with 2 vectors
   NREBOOT  =      0    no. of reboots
   NMIN     =      0    reboot dimension
   EREF     =   0.00    reference energy to select bands
   IMIX   =      4    mixing-type and parameters
     AMIX     =   0.40;   BMIX     =  1.00
     AMIX_MAG =   1.60;   BMIX_MAG =  1.00
     AMIN     =   0.10
     WC   =   100.;   INIMIX=   1;  MIXPRE=   1;  MAXMIX= -45

 Intra band minimization:
   WEIMIN = 0.0000     energy-eigenvalue tresh-hold
   EBREAK =  0.16E-08  absolut break condition
   DEPER  =   0.30     relativ break condition

   TIME   =   0.40     timestep for ELM

  volume/ion in A,a.u.               =      20.98       141.55
  Fermi-wavevector in a.u.,A,eV,Ry     =   1.203493  2.274271 19.706604  1.448395
  Thomas-Fermi vector in A             =   2.339244

 Write flags
   LWAVE        =      F    write WAVECAR
   LDOWNSAMPLE  =      F    k-point downsampling of WAVECAR
   LCHARG       =      F    write CHGCAR
   LVTOT        =      F    write LOCPOT, total local potential
   LVHAR        =      F    write LOCPOT, Hartree potential only
   LELF         =      F    write electronic localiz. function (ELF)
   LORBIT       =      0    0 simple, 1 ext, 2 COOP (PROOUT), +10 PAW based schemes


 Dipole corrections
   LMONO  =      F    monopole corrections only (constant potential shift)
   LDIPOL =      F    correct potential (dipole corrections)
   IDIPOL =      0    1-x, 2-y, 3-z, 4-all directions
   EPSILON=  1.0000000 bulk dielectric constant

 Exchange correlation treatment:
   GGA     =    PS    GGA type
   LEXCH   =    14    internal setting for exchange type
   VOSKOWN=      0    Vosko Wilk Nusair interpolation
   LHFCALC =     F    Hartree Fock is set to
   LHFONE  =     F    Hartree Fock one center treatment
   AEXX    =    0.0000 exact exchange contribution

 Linear response parameters
   LEPSILON=     F    determine dielectric tensor
   LRPA    =     F    only Hartree local field effects (RPA)
   LNABLA  =     F    use nabla operator in PAW spheres
   LVEL    =     F    velocity operator in full k-point grid
   LINTERFAST=   F  fast interpolation
   KINTER  =     0    interpolate to denser k-point grid
   CSHIFT  =0.1000    complex shift for real part using Kramers Kronig
   OMEGAMAX=  -1.0    maximum frequency
   DEG_THRESHOLD= 0.2000000E-02 threshold for treating states as degnerate
   RTIME   =   -0.100 relaxation time in fs
  (WPLASMAI=    0.000 imaginary part of plasma frequency in eV, 0.658/RTIME)
   DFIELD  = 0.0000000 0.0000000 0.0000000 field for delta impulse in time

 Orbital magnetization related:
   ORBITALMAG=     F  switch on orbital magnetization
   LCHIMAG   =     F  perturbation theory with respect to B field
   DQ        =  0.001000  dq finite difference perturbation B field
   LLRAUG    =     F  two centre corrections for induced B field



--------------------------------------------------------------------------------------------------------


 Static calculation
 charge density and potential will be updated during run
 non-spin polarized calculation
 Variant of blocked Davidson
 Davidson routine will perform the subspace rotation
 perform sub-space diagonalisation
    after iterative eigenvector-optimisation
 modified Broyden-mixing scheme, WC =      100.0
 initial mixing is a Kerker type mixing with AMIX =  0.4000 and BMIX =      1.0000
 Hartree-type preconditioning will be used
 using additional bands            3
 reciprocal scheme for non local part
 use partial core corrections
 calculate Harris-corrections to forces
   (improved forces if not selfconsistent)
 use gradient corrections
 use of overlap-Matrix (Vanderbilt PP)
 Gauss-broadening in eV      SIGMA  =   0.01


--------------------------------------------------------------------------------------------------------


  energy-cutoff  :      700.00
  volume of cell :       62.93
      direct lattice vectors                 reciprocal lattice vectors
     0.000000000  3.156952592  3.156952592    -0.158380586  0.158380586  0.158380586
     3.156952592  0.000000000  3.156952592     0.158380586 -0.158380586  0.158380586
     3.156952592  3.156952592  0.000000000     0.158380586  0.158380586 -0.158380586

  length of vectors
     4.464605172  4.464605172  4.464605172     0.274323221  0.274323221  0.274323221



 k-points in units of 2pi/SCALE and weight: KPOINTS
   0.00000000  0.00000000  0.00000000       0.000
  -0.01210135  0.01210135  0.01210135       0.004
  -0.02420271  0.02420271  0.02420271       0.004
  -0.03630406  0.03630406  0.03630406       0.004
  -0.04840541  0.04840541  0.04840541       0.004
  -0.06050677  0.06050677  0.06050677       0.004
  -0.07260812  0.07260812  0.07260812       0.004
  -0.00000000 -0.00000000  0.02420271       0.003
  -0.01210135  0.01210135  0.03630406       0.011
  -0.02420271  0.02420271  0.04840541       0.011
  -0.03630406  0.03630406  0.06050677       0.011
  -0.04840541  0.04840541  0.07260812       0.011
  -0.06050677  0.06050677  0.08470948       0.011
   0.08470948 -0.08470948 -0.06050677       0.011
   0.07260812 -0.07260812 -0.04840541       0.011
   0.06050677 -0.06050677 -0.03630406       0.011
   0.04840541 -0.04840541 -0.02420271       0.011
   0.03630406 -0.03630406 -0.01210135       0.011
   0.02420271 -0.02420271  0.00000000       0.005
  -0.00000000  0.00000000  0.04840541       0.003
  -0.01210135  0.01210135  0.06050677       0.011
  -0.02420271  0.02420271  0.07260812       0.011
  -0.03630406  0.03630406  0.08470948       0.011
  -0.04840541  0.04840541  0.09681083       0.011
   0.09681083 -0.09681083 -0.04840541       0.011
   0.08470948 -0.08470948 -0.03630406       0.011
   0.07260812 -0.07260812 -0.02420271       0.011
   0.06050677 -0.06050677 -0.01210135       0.011
   0.04840541 -0.04840541  0.00000000       0.005
  -0.00000000  0.00000000  0.07260812       0.003
  -0.01210135  0.01210135  0.08470948       0.011
  -0.02420271  0.02420271  0.09681083       0.011
  -0.03630406  0.03630406  0.10891218       0.011
   0.10891218 -0.10891218 -0.03630406       0.011
   0.09681083 -0.09681083 -0.02420271       0.011
   0.08470948 -0.08470948 -0.01210135       0.011
   0.07260812 -0.07260812 -0.00000000       0.005
  -0.00000000  0.00000000  0.09681083       0.003
  -0.01210135  0.01210135  0.10891218       0.011
  -0.02420271  0.02420271  0.12101354       0.011
   0.12101354 -0.12101354 -0.02420271       0.011
   0.10891218 -0.10891218 -0.01210135       0.011
   0.09681083 -0.09681083  0.00000000       0.005
  -0.00000000  0.00000000  0.12101354       0.003
  -0.01210135  0.01210135  0.13311489       0.011
   0.13311489 -0.13311489 -0.01210135       0.011
   0.12101354 -0.12101354 -0.00000000       0.005
  -0.00000000 -0.00000000  0.14521624       0.003
   0.14521624 -0.14521624 -0.00000000       0.005
  -0.00000000  0.02420271  0.04840541       0.011
  -0.01210135  0.03630406  0.06050677       0.022
  -0.02420271  0.04840541  0.07260812       0.022
  -0.03630406  0.06050677  0.08470948       0.022
   0.10891218 -0.08470948 -0.06050677       0.022
   0.00000000  0.02420271  0.07260812       0.011
  -0.01210135  0.03630406  0.08470948       0.022
  -0.02420271  0.04840541  0.09681083       0.022
   0.12101354 -0.09681083 -0.04840541       0.022
   0.10891218 -0.08470948 -0.03630406       0.022
   0.09681083 -0.07260812 -0.02420271       0.022
   0.08470948 -0.06050677 -0.01210135       0.022
   0.07260812 -0.04840541 -0.00000000       0.011
  -0.00000000  0.02420271  0.09681083       0.011
  -0.01210135  0.03630406  0.10891218       0.022
   0.13311489 -0.10891218 -0.03630406       0.022
   0.12101354 -0.09681083 -0.02420271       0.022
   0.10891218 -0.08470948 -0.01210135       0.022
   0.09681083 -0.07260812 -0.00000000       0.011
   0.00000000  0.02420271  0.12101354       0.011
   0.14521624 -0.12101354 -0.02420271       0.022
   0.13311489 -0.10891218 -0.01210135       0.022
   0.12101354 -0.09681083 -0.00000000       0.011
   0.15731760 -0.13311489 -0.01210135       0.011
   0.14521624 -0.12101354 -0.00000000       0.011
  -0.00000000  0.04840541  0.09681083       0.011
   0.14521624 -0.09681083 -0.04840541       0.022
   0.13311489 -0.08470948 -0.03630406       0.022
   0.15731760 -0.10891218 -0.03630406       0.011
   0.14521624 -0.09681083 -0.02420271       0.022
   0.13311489 -0.08470948 -0.01210135       0.022
   0.12101354 -0.07260812 -0.00000000       0.011
   0.15731760 -0.10891218 -0.01210135       0.011
   0.14521624 -0.09681083 -0.00000000       0.011
   0.15731760 -0.08470948 -0.01210135       0.011

 k-points in reciprocal lattice and weights: KPOINTS
   0.00000000  0.00000000  0.00000000       0.000
   0.07692308  0.00000000 -0.00000000       0.004
   0.15384615  0.00000000 -0.00000000       0.004
   0.23076923  0.00000000  0.00000000       0.004
   0.30769231  0.00000000 -0.00000000       0.004
   0.38461538  0.00000000 -0.00000000       0.004
   0.46153846 -0.00000000  0.00000000       0.004
   0.07692308  0.07692308 -0.00000000       0.003
   0.15384615  0.07692308  0.00000000       0.011
   0.23076923  0.07692308 -0.00000000       0.011
   0.30769231  0.07692308  0.00000000       0.011
   0.38461538  0.07692308 -0.00000000       0.011
   0.46153846  0.07692308 -0.00000000       0.011
  -0.46153846  0.07692308 -0.00000000       0.011
  -0.38461538  0.07692308  0.00000000       0.011
  -0.30769231  0.07692308  0.00000000       0.011
  -0.23076923  0.07692308  0.00000000       0.011
  -0.15384615  0.07692308  0.00000000       0.011
  -0.07692308  0.07692308  0.00000000       0.005
   0.15384615  0.15384615 -0.00000000       0.003
   0.23076923  0.15384615  0.00000000       0.011
   0.30769231  0.15384615 -0.00000000       0.011
   0.38461538  0.15384615  0.00000000       0.011
   0.46153846  0.15384615 -0.00000000       0.011
  -0.46153846  0.15384615  0.00000000       0.011
  -0.38461538  0.15384615 -0.00000000       0.011
  -0.30769231  0.15384615 -0.00000000       0.011
  -0.23076923  0.15384615  0.00000000       0.011
  -0.15384615  0.15384615  0.00000000       0.005
   0.23076923  0.23076923 -0.00000000       0.003
   0.30769231  0.23076923 -0.00000000       0.011
   0.38461538  0.23076923 -0.00000000       0.011
   0.46153846  0.23076923 -0.00000000       0.011
  -0.46153846  0.23076923 -0.00000000       0.011
  -0.38461538  0.23076923  0.00000000       0.011
  -0.30769231  0.23076923 -0.00000000       0.011
  -0.23076923  0.23076923  0.00000000       0.005
   0.30769231  0.30769231 -0.00000000       0.003
   0.38461538  0.30769231 -0.00000000       0.011
   0.46153846  0.30769231 -0.00000000       0.011
  -0.46153846  0.30769231  0.00000000       0.011
  -0.38461538  0.30769231 -0.00000000       0.011
  -0.30769231  0.30769231  0.00000000       0.005
   0.38461538  0.38461538 -0.00000000       0.003
   0.46153846  0.38461538 -0.00000000       0.011
  -0.46153846  0.38461538 -0.00000000       0.011
  -0.38461538  0.38461538  0.00000000       0.005
   0.46153846  0.46153846 -0.00000000       0.003
  -0.46153846  0.46153846 -0.00000000       0.005
   0.23076923  0.15384615  0.07692308       0.011
   0.30769231  0.15384615  0.07692308       0.022
   0.38461538  0.15384615  0.07692308       0.022
   0.46153846  0.15384615  0.07692308       0.022
  -0.46153846  0.15384615  0.07692308       0.022
   0.30769231  0.23076923  0.07692308       0.011
   0.38461538  0.23076923  0.07692308       0.022
   0.46153846  0.23076923  0.07692308       0.022
  -0.46153846  0.23076923  0.07692308       0.022
  -0.38461538  0.23076923  0.07692308       0.022
  -0.30769231  0.23076923  0.07692308       0.022
  -0.23076923  0.23076923  0.07692308       0.022
  -0.15384615  0.23076923  0.07692308       0.011
   0.38461538  0.30769231  0.07692308       0.011
   0.46153846  0.30769231  0.07692308       0.022
  -0.46153846  0.30769231  0.07692308       0.022
  -0.38461538  0.30769231  0.07692308       0.022
  -0.30769231  0.30769231  0.07692308       0.022
  -0.23076923  0.30769231  0.07692308       0.011
   0.46153846  0.38461538  0.07692308       0.011
  -0.46153846  0.38461538  0.07692308       0.022
  -0.38461538  0.38461538  0.07692308       0.022
  -0.30769231  0.38461538  0.07692308       0.011
  -0.46153846  0.46153846  0.07692308       0.011
  -0.38461538  0.46153846  0.07692308       0.011
   0.46153846  0.30769231  0.15384615       0.011
  -0.46153846  0.30769231  0.15384615       0.022
  -0.38461538  0.30769231  0.15384615       0.022
  -0.46153846  0.38461538  0.15384615       0.011
  -0.38461538  0.38461538  0.15384615       0.022
  -0.30769231  0.38461538  0.15384615       0.022
  -0.23076923  0.38461538  0.15384615       0.011
  -0.38461538  0.46153846  0.15384615       0.011
  -0.30769231  0.46153846  0.15384615       0.011
  -0.30769231  0.46153846  0.23076923       0.011

 position of ions in fractional coordinates (direct lattice)
   0.75000000  0.75000000  0.75000000
   0.25000000  0.25000000  0.25000000
   0.00000000  0.00000000  0.00000000

 position of ions in cartesian coordinates  (Angst):
   4.73542889  4.73542889  4.73542889
   1.57847630  1.57847630  1.57847630
   0.00000000  0.00000000  0.00000000



--------------------------------------------------------------------------------------------------------


 k-point  1 :   0.0000 0.0000 0.0000  plane waves:    2685
 k-point  2 :   0.0769 0.0000-0.0000  plane waves:    2688
 k-point  3 :   0.1538 0.0000-0.0000  plane waves:    2665
 k-point  4 :   0.2308 0.0000 0.0000  plane waves:    2647
 k-point  5 :   0.3077 0.0000-0.0000  plane waves:    2659
 k-point  6 :   0.3846 0.0000-0.0000  plane waves:    2638
 k-point  7 :   0.4615-0.0000 0.0000  plane waves:    2635
 k-point  8 :   0.0769 0.0769-0.0000  plane waves:    2685
 k-point  9 :   0.1538 0.0769 0.0000  plane waves:    2676
 k-point 10 :   0.2308 0.0769-0.0000  plane waves:    2652
 k-point 11 :   0.3077 0.0769 0.0000  plane waves:    2649
 k-point 12 :   0.3846 0.0769-0.0000  plane waves:    2651
 k-point 13 :   0.4615 0.0769-0.0000  plane waves:    2636
 k-point 14 :  -0.4615 0.0769-0.0000  plane waves:    2642
 k-point 15 :  -0.3846 0.0769 0.0000  plane waves:    2642
 k-point 16 :  -0.3077 0.0769 0.0000  plane waves:    2644
 k-point 17 :  -0.2308 0.0769 0.0000  plane waves:    2645
 k-point 18 :  -0.1538 0.0769 0.0000  plane waves:    2656
 k-point 19 :  -0.0769 0.0769 0.0000  plane waves:    2675
 k-point 20 :   0.1538 0.1538-0.0000  plane waves:    2665
 k-point 21 :   0.2308 0.1538 0.0000  plane waves:    2648
 k-point 22 :   0.3077 0.1538-0.0000  plane waves:    2650
 k-point 23 :   0.3846 0.1538 0.0000  plane waves:    2651
 k-point 24 :   0.4615 0.1538-0.0000  plane waves:    2644
 k-point 25 :  -0.4615 0.1538 0.0000  plane waves:    2641
 k-point 26 :  -0.3846 0.1538-0.0000  plane waves:    2646
 k-point 27 :  -0.3077 0.1538-0.0000  plane waves:    2646
 k-point 28 :  -0.2308 0.1538 0.0000  plane waves:    2649
 k-point 29 :  -0.1538 0.1538 0.0000  plane waves:    2651
 k-point 30 :   0.2308 0.2308-0.0000  plane waves:    2650
 k-point 31 :   0.3077 0.2308-0.0000  plane waves:    2654
 k-point 32 :   0.3846 0.2308-0.0000  plane waves:    2642
 k-point 33 :   0.4615 0.2308-0.0000  plane waves:    2643
 k-point 34 :  -0.4615 0.2308-0.0000  plane waves:    2644
 k-point 35 :  -0.3846 0.2308 0.0000  plane waves:    2636
 k-point 36 :  -0.3077 0.2308-0.0000  plane waves:    2640
 k-point 37 :  -0.2308 0.2308 0.0000  plane waves:    2642
 k-point 38 :   0.3077 0.3077-0.0000  plane waves:    2650
 k-point 39 :   0.3846 0.3077-0.0000  plane waves:    2641
 k-point 40 :   0.4615 0.3077-0.0000  plane waves:    2642
 k-point 41 :  -0.4615 0.3077 0.0000  plane waves:    2649
 k-point 42 :  -0.3846 0.3077-0.0000  plane waves:    2637
 k-point 43 :  -0.3077 0.3077 0.0000  plane waves:    2640
 k-point 44 :   0.3846 0.3846-0.0000  plane waves:    2658
 k-point 45 :   0.4615 0.3846-0.0000  plane waves:    2654
 k-point 46 :  -0.4615 0.3846-0.0000  plane waves:    2642
 k-point 47 :  -0.3846 0.3846 0.0000  plane waves:    2624
 k-point 48 :   0.4615 0.4615-0.0000  plane waves:    2642
 k-point 49 :  -0.4615 0.4615-0.0000  plane waves:    2642
 k-point 50 :   0.2308 0.1538 0.0769  plane waves:    2652
 k-point 51 :   0.3077 0.1538 0.0769  plane waves:    2658
 k-point 52 :   0.3846 0.1538 0.0769  plane waves:    2649
 k-point 53 :   0.4615 0.1538 0.0769  plane waves:    2641
 k-point 54 :  -0.4615 0.1538 0.0769  plane waves:    2646
 k-point 55 :   0.3077 0.2308 0.0769  plane waves:    2649
 k-point 56 :   0.3846 0.2308 0.0769  plane waves:    2645
 k-point 57 :   0.4615 0.2308 0.0769  plane waves:    2652
 k-point 58 :  -0.4615 0.2308 0.0769  plane waves:    2645
 k-point 59 :  -0.3846 0.2308 0.0769  plane waves:    2644
 k-point 60 :  -0.3077 0.2308 0.0769  plane waves:    2644
 k-point 61 :  -0.2308 0.2308 0.0769  plane waves:    2645
 k-point 62 :  -0.1538 0.2308 0.0769  plane waves:    2646
 k-point 63 :   0.3846 0.3077 0.0769  plane waves:    2650
 k-point 64 :   0.4615 0.3077 0.0769  plane waves:    2647
 k-point 65 :  -0.4615 0.3077 0.0769  plane waves:    2650
 k-point 66 :  -0.3846 0.3077 0.0769  plane waves:    2642
 k-point 67 :  -0.3077 0.3077 0.0769  plane waves:    2643
 k-point 68 :  -0.2308 0.3077 0.0769  plane waves:    2658
 k-point 69 :   0.4615 0.3846 0.0769  plane waves:    2647
 k-point 70 :  -0.4615 0.3846 0.0769  plane waves:    2645
 k-point 71 :  -0.3846 0.3846 0.0769  plane waves:    2632
 k-point 72 :  -0.3077 0.3846 0.0769  plane waves:    2635
 k-point 73 :  -0.4615 0.4615 0.0769  plane waves:    2640
 k-point 74 :  -0.3846 0.4615 0.0769  plane waves:    2634
 k-point 75 :   0.4615 0.3077 0.1538  plane waves:    2644
 k-point 76 :  -0.4615 0.3077 0.1538  plane waves:    2652
 k-point 77 :  -0.3846 0.3077 0.1538  plane waves:    2642
 k-point 78 :  -0.4615 0.3846 0.1538  plane waves:    2651
 k-point 79 :  -0.3846 0.3846 0.1538  plane waves:    2645
 k-point 80 :  -0.3077 0.3846 0.1538  plane waves:    2643
 k-point 81 :  -0.2308 0.3846 0.1538  plane waves:    2652
 k-point 82 :  -0.3846 0.4615 0.1538  plane waves:    2639
 k-point 83 :  -0.3077 0.4615 0.1538  plane waves:    2642
 k-point 84 :  -0.3077 0.4615 0.2308  plane waves:    2640

 maximum and minimum number of plane-waves per node :       683      641

 maximum number of plane-waves:      2688
 maximum index in each direction:
   IXMAX=   10   IYMAX=    9   IZMAX=    9
   IXMIN=  -10   IYMIN=  -10   IZMIN=   -9


 parallel 3D FFT for wavefunctions:
    minimum data exchange during FFTs selected (reduces bandwidth)
 parallel 3D FFT for charge:
    minimum data exchange during FFTs selected (reduces bandwidth)


 total amount of memory used by VASP MPI-rank0    66587. kBytes
=======================================================================

   base      :      30000. kBytes
   nonl-proj :      24853. kBytes
   fftplans  :       5203. kBytes
   grid      :       2732. kBytes
   one-center:         15. kBytes
   wavefun   :       3784. kBytes

     INWAV:  cpu time    0.0003: real time    0.0004
 Broyden mixing: mesh for mixing (old mesh)
   NGX = 19   NGY = 19   NGZ = 19
  (NGX  = 80   NGY  = 80   NGZ  = 80)
  gives a total of   6859 points

 initial charge density was supplied:
 charge density of overlapping atoms calculated
 number of electron      25.0000000 magnetization
 keeping initial charge density in first step


--------------------------------------------------------------------------------------------------------


 Maximum index for augmentation-charges        30057 (set IRDMAX)


--------------------------------------------------------------------------------------------------------


 First call to EWALD:  gamma=   0.446
 Maximum number of real-space cells 3x 3x 3
 Maximum number of reciprocal cells 3x 3x 3

    FEWALD:  cpu time    0.0053: real time    0.0069


--------------------------------------- Iteration      1(   1)  ---------------------------------------


    POTLOK:  cpu time    0.0483: real time    0.3817
    SETDIJ:  cpu time    0.0965: real time    0.0967
     EDDAV:  cpu time    0.9254: real time    0.9310
       DOS:  cpu time    0.0040: real time    0.0046
    --------------------------------------------
      LOOP:  cpu time    1.0745: real time    1.4145

 eigenvalue-minimisations  :  2696
 total energy-change (2. order) : 0.1400092E+03  (-0.1432199E+04)
 number of electron      25.0000000 magnetization
 augmentation part       25.0000000 magnetization

 Free energy of the ion-electron system (eV)
  ---------------------------------------------------
  alpha Z        PSCENC =       108.26510489
  Ewald energy   TEWEN  =     -1574.95541012
  -Hartree energ DENC   =      -320.10999928
  -exchange      EXHF   =         0.00000000
  -V(xc)+E(xc)   XCENC  =       -18.81233998
  PAW double counting   =      1514.36848356    -1421.27055995
  entropy T*S    EENTRO =        -0.00011585
  eigenvalues    EBANDS =       111.41954409
  atomic energy  EATOM  =      1741.10451121
  Solvation  Ediel_sol  =         0.00000000
  ---------------------------------------------------
  free energy    TOTEN  =       140.00921856 eV

  energy without entropy =      140.00933440  energy(sigma->0) =      140.00927648


--------------------------------------------------------------------------------------------------------




--------------------------------------- Iteration      1(   2)  ---------------------------------------


     EDDAV:  cpu time    1.0658: real time    1.0954
       DOS:  cpu time    0.0028: real time    0.0030
    --------------------------------------------
      LOOP:  cpu time    1.0687: real time    1.1002

 eigenvalue-minimisations  :  3408
 total energy-change (2. order) :-0.1603732E+03  (-0.1584440E+03)
 number of electron      25.0000000 magnetization
 augmentation part       25.0000000 magnetization

 Free energy of the ion-electron system (eV)
  ---------------------------------------------------
  alpha Z        PSCENC =       108.26510489
  Ewald energy   TEWEN  =     -1574.95541012
  -Hartree energ DENC   =      -320.10999928
  -exchange      EXHF   =         0.00000000
  -V(xc)+E(xc)   XCENC  =       -18.81233998
  PAW double counting   =      1514.36848356    -1421.27055995
  entropy T*S    EENTRO =        -0.00020451
  eigenvalues    EBANDS =       -48.95356041
  atomic energy  EATOM  =      1741.10451121
  Solvation  Ediel_sol  =         0.00000000
  ---------------------------------------------------
  free energy    TOTEN  =       -20.36397461 eV

  energy without entropy =      -20.36377010  energy(sigma->0) =      -20.36387235


--------------------------------------------------------------------------------------------------------




--------------------------------------- Iteration      1(   3)  ---------------------------------------


     EDDAV:  cpu time    1.1188: real time    1.1585
       DOS:  cpu time    0.0026: real time    0.0028
    --------------------------------------------
      LOOP:  cpu time    1.1213: real time    1.1622

 eigenvalue-minimisations  :  3576
 total energy-change (2. order) :-0.4522648E+01  (-0.4471624E+01)
 number of electron      25.0000000 magnetization
 augmentation part       25.0000000 magnetization

 Free energy of the ion-electron system (eV)
  ---------------------------------------------------
  alpha Z        PSCENC =       108.26510489
  Ewald energy   TEWEN  =     -1574.95541012
  -Hartree energ DENC   =      -320.10999928
  -exchange      EXHF   =         0.00000000
  -V(xc)+E(xc)   XCENC  =       -18.81233998
  PAW double counting   =      1514.36848356    -1421.27055995
  entropy T*S    EENTRO =        -0.00024274
  eigenvalues    EBANDS =       -53.47616986
  atomic energy  EATOM  =      1741.10451121
  Solvation  Ediel_sol  =         0.00000000
  ---------------------------------------------------
  free energy    TOTEN  =       -24.88662228 eV

  energy without entropy =      -24.88637954  energy(sigma->0) =      -24.88650091


--------------------------------------------------------------------------------------------------------




--------------------------------------- Iteration      1(   4)  ---------------------------------------


     EDDAV:  cpu time    1.0771: real time    1.0951
       DOS:  cpu time    0.0026: real time    0.0028
    --------------------------------------------
      LOOP:  cpu time    1.0800: real time    1.0972

 eigenvalue-minimisations  :  3328
 total energy-change (2. order) :-0.6378012E-01  (-0.6370065E-01)
 number of electron      25.0000000 magnetization
 augmentation part       25.0000000 magnetization

 Free energy of the ion-electron system (eV)
  ---------------------------------------------------
  alpha Z        PSCENC =       108.26510489
  Ewald energy   TEWEN  =     -1574.95541012
  -Hartree energ DENC   =      -320.10999928
  -exchange      EXHF   =         0.00000000
  -V(xc)+E(xc)   XCENC  =       -18.81233998
  PAW double counting   =      1514.36848356    -1421.27055995
  entropy T*S    EENTRO =        -0.00015252
  eigenvalues    EBANDS =       -53.54004021
  atomic energy  EATOM  =      1741.10451121
  Solvation  Ediel_sol  =         0.00000000
  ---------------------------------------------------
  free energy    TOTEN  =       -24.95040241 eV

  energy without entropy =      -24.95024989  energy(sigma->0) =      -24.95032615


--------------------------------------------------------------------------------------------------------




--------------------------------------- Iteration      1(   5)  ---------------------------------------


     EDDAV:  cpu time    1.1340: real time    1.1574
       DOS:  cpu time    0.0027: real time    0.0030
    CHARGE:  cpu time    0.2435: real time    0.2444
    MIXING:  cpu time    0.0059: real time    0.0062
    --------------------------------------------
      LOOP:  cpu time    1.3859: real time    1.4104

 eigenvalue-minimisations  :  3600
 total energy-change (2. order) :-0.1432412E-02  (-0.1431806E-02)
 number of electron      25.0000000 magnetization
 augmentation part        4.7718666 magnetization

 Broyden mixing:
  rms(total) = 0.44188E+01    rms(broyden)= 0.44188E+01
  rms(prec ) = 0.46127E+01
  weight for this iteration     100.00

 Free energy of the ion-electron system (eV)
  ---------------------------------------------------
  alpha Z        PSCENC =       108.26510489
  Ewald energy   TEWEN  =     -1574.95541012
  -Hartree energ DENC   =      -320.10999928
  -exchange      EXHF   =         0.00000000
  -V(xc)+E(xc)   XCENC  =       -18.81233998
  PAW double counting   =      1514.36848356    -1421.27055995
  entropy T*S    EENTRO =        -0.00014647
  eigenvalues    EBANDS =       -53.54147867
  atomic energy  EATOM  =      1741.10451121
  Solvation  Ediel_sol  =         0.00000000
  ---------------------------------------------------
  free energy    TOTEN  =       -24.95183482 eV

  energy without entropy =      -24.95168835  energy(sigma->0) =      -24.95176158


--------------------------------------------------------------------------------------------------------




--------------------------------------- Iteration      1(   6)  ---------------------------------------


    POTLOK:  cpu time    0.0361: real time    0.0675
    SETDIJ:  cpu time    0.1077: real time    0.1078
     EDDAV:  cpu time    1.1085: real time    1.1087
       DOS:  cpu time    0.0025: real time    0.0031
    CHARGE:  cpu time    0.1944: real time    0.1945
    MIXING:  cpu time    0.0057: real time    0.0059
    --------------------------------------------
      LOOP:  cpu time    1.4550: real time    1.4907

 eigenvalue-minimisations  :  3456
 total energy-change (2. order) : 0.7335301E+00  (-0.1610944E+00)
 number of electron      25.0000000 magnetization
 augmentation part        4.9511571 magnetization

 Broyden mixing:
  rms(total) = 0.26567E+01    rms(broyden)= 0.26567E+01
  rms(prec ) = 0.27119E+01
  weight for this iteration     100.00

 eigenvalues of (default mixing * dielectric matrix)
  average eigenvalue GAMMA=   2.4567
  2.4567

 Free energy of the ion-electron system (eV)
  ---------------------------------------------------
  alpha Z        PSCENC =       108.26510489
  Ewald energy   TEWEN  =     -1574.95541012
  -Hartree energ DENC   =      -305.72947719
  -exchange      EXHF   =         0.00000000
  -V(xc)+E(xc)   XCENC  =       -19.29912912
  PAW double counting   =      1970.34071932    -1879.80790596
  entropy T*S    EENTRO =        -0.00010377
  eigenvalues    EBANDS =       -64.13661392
  atomic energy  EATOM  =      1741.10451121
  Solvation  Ediel_sol  =         0.00000000
  ---------------------------------------------------
  free energy    TOTEN  =       -24.21830467 eV

  energy without entropy =      -24.21820090  energy(sigma->0) =      -24.21825278


--------------------------------------------------------------------------------------------------------




--------------------------------------- Iteration      1(   7)  ---------------------------------------


    POTLOK:  cpu time    0.0342: real time    0.0752
    SETDIJ:  cpu time    0.0965: real time    0.0976
     EDDAV:  cpu time    1.1549: real time    1.1552
       DOS:  cpu time    0.0025: real time    0.0028
    CHARGE:  cpu time    0.1718: real time    0.1719
    MIXING:  cpu time    0.0040: real time    0.0041
    --------------------------------------------
      LOOP:  cpu time    1.4638: real time    1.5032

 eigenvalue-minimisations  :  3784
 total energy-change (2. order) : 0.1341045E+00  (-0.9787454E-01)
 number of electron      25.0000000 magnetization
 augmentation part        4.9839909 magnetization

 Broyden mixing:
  rms(total) = 0.40766E+00    rms(broyden)= 0.40766E+00
  rms(prec ) = 0.52616E+00
  weight for this iteration     100.00

 eigenvalues of (default mixing * dielectric matrix)
  average eigenvalue GAMMA=   1.8939
  1.1472  2.6405

 Free energy of the ion-electron system (eV)
  ---------------------------------------------------
  alpha Z        PSCENC =       108.26510489
  Ewald energy   TEWEN  =     -1574.95541012
  -Hartree energ DENC   =      -297.75908815
  -exchange      EXHF   =         0.00000000
  -V(xc)+E(xc)   XCENC  =       -19.49972009
  PAW double counting   =      2652.10480841    -2564.57477891
  entropy T*S    EENTRO =        -0.00033435
  eigenvalues    EBANDS =       -68.76929310
  atomic energy  EATOM  =      1741.10451121
  Solvation  Ediel_sol  =         0.00000000
  ---------------------------------------------------
  free energy    TOTEN  =       -24.08420021 eV

  energy without entropy =      -24.08386586  energy(sigma->0) =      -24.08403304


--------------------------------------------------------------------------------------------------------




--------------------------------------- Iteration      1(   8)  ---------------------------------------


    POTLOK:  cpu time    0.0340: real time    0.0870
    SETDIJ:  cpu time    0.0974: real time    0.0975
     EDDAV:  cpu time    1.0772: real time    1.0774
       DOS:  cpu time    0.0027: real time    0.0028
    CHARGE:  cpu time    0.2167: real time    0.2168
    MIXING:  cpu time    0.0038: real time    0.0039
    --------------------------------------------
      LOOP:  cpu time    1.4319: real time    1.4866

 eigenvalue-minimisations  :  3504
 total energy-change (2. order) : 0.2874696E-01  (-0.3847920E-01)
 number of electron      25.0000000 magnetization
 augmentation part        5.0337997 magnetization

 Broyden mixing:
  rms(total) = 0.96217E-01    rms(broyden)= 0.96217E-01
  rms(prec ) = 0.19602E+00
  weight for this iteration     100.00

 eigenvalues of (default mixing * dielectric matrix)
  average eigenvalue GAMMA=   1.5297
  2.5260  1.4346  0.6284

 Free energy of the ion-electron system (eV)
  ---------------------------------------------------
  alpha Z        PSCENC =       108.26510489
  Ewald energy   TEWEN  =     -1574.95541012
  -Hartree energ DENC   =      -297.73248805
  -exchange      EXHF   =         0.00000000
  -V(xc)+E(xc)   XCENC  =       -19.46867302
  PAW double counting   =      2719.45733867    -2632.09016722
  entropy T*S    EENTRO =        -0.00025167
  eigenvalues    EBANDS =       -68.63541793
  atomic energy  EATOM  =      1741.10451121
  Solvation  Ediel_sol  =         0.00000000
  ---------------------------------------------------
  free energy    TOTEN  =       -24.05545325 eV

  energy without entropy =      -24.05520158  energy(sigma->0) =      -24.05532742


--------------------------------------------------------------------------------------------------------




--------------------------------------- Iteration      1(   9)  ---------------------------------------


    POTLOK:  cpu time    0.0409: real time    0.0706
    SETDIJ:  cpu time    0.0982: real time    0.0983
     EDDAV:  cpu time    0.9587: real time    0.9588
       DOS:  cpu time    0.0030: real time    0.0041
    CHARGE:  cpu time    0.1875: real time    0.1876
    MIXING:  cpu time    0.0040: real time    0.0041
    --------------------------------------------
      LOOP:  cpu time    1.2924: real time    1.3236

 eigenvalue-minimisations  :  2960
 total energy-change (2. order) : 0.8097706E-02  (-0.5235217E-02)
 number of electron      25.0000000 magnetization
 augmentation part        5.0017802 magnetization

 Broyden mixing:
  rms(total) = 0.41492E-01    rms(broyden)= 0.41492E-01
  rms(prec ) = 0.55381E-01
  weight for this iteration     100.00

 eigenvalues of (default mixing * dielectric matrix)
  average eigenvalue GAMMA=   1.4289
  2.3852  1.3450  1.3450  0.6405

 Free energy of the ion-electron system (eV)
  ---------------------------------------------------
  alpha Z        PSCENC =       108.26510489
  Ewald energy   TEWEN  =     -1574.95541012
  -Hartree energ DENC   =      -299.27597795
  -exchange      EXHF   =         0.00000000
  -V(xc)+E(xc)   XCENC  =       -19.41269731
  PAW double counting   =      2707.49498148    -2620.02768944
  entropy T*S    EENTRO =        -0.00031453
  eigenvalues    EBANDS =       -67.23986377
  atomic energy  EATOM  =      1741.10451121
  Solvation  Ediel_sol  =         0.00000000
  ---------------------------------------------------
  free energy    TOTEN  =       -24.04735555 eV

  energy without entropy =      -24.04704102  energy(sigma->0) =      -24.04719828


--------------------------------------------------------------------------------------------------------




--------------------------------------- Iteration      1(  10)  ---------------------------------------


    POTLOK:  cpu time    0.0336: real time    0.0653
    SETDIJ:  cpu time    0.0980: real time    0.0981
     EDDAV:  cpu time    1.1300: real time    1.1313
       DOS:  cpu time    0.0044: real time    0.0052
    CHARGE:  cpu time    0.1713: real time    0.1714
    MIXING:  cpu time    0.0040: real time    0.0044
    --------------------------------------------
      LOOP:  cpu time    1.4413: real time    1.4754

 eigenvalue-minimisations  :  3704
 total energy-change (2. order) : 0.2050231E-03  (-0.5722366E-03)
 number of electron      25.0000000 magnetization
 augmentation part        4.9975150 magnetization

 Broyden mixing:
  rms(total) = 0.25729E-01    rms(broyden)= 0.25729E-01
  rms(prec ) = 0.29719E-01
  weight for this iteration     100.00

 eigenvalues of (default mixing * dielectric matrix)
  average eigenvalue GAMMA=   1.3734
  2.4394  1.7698  1.1986  0.6798  0.7796

 Free energy of the ion-electron system (eV)
  ---------------------------------------------------
  alpha Z        PSCENC =       108.26510489
  Ewald energy   TEWEN  =     -1574.95541012
  -Hartree energ DENC   =      -299.27874081
  -exchange      EXHF   =         0.00000000
  -V(xc)+E(xc)   XCENC  =       -19.41337532
  PAW double counting   =      2707.38112188    -2619.83061926
  entropy T*S    EENTRO =        -0.00029828
  eigenvalues    EBANDS =       -67.31944470
  atomic energy  EATOM  =      1741.10451121
  Solvation  Ediel_sol  =         0.00000000
  ---------------------------------------------------
  free energy    TOTEN  =       -24.04715053 eV

  energy without entropy =      -24.04685224  energy(sigma->0) =      -24.04700138


--------------------------------------------------------------------------------------------------------




--------------------------------------- Iteration      1(  11)  ---------------------------------------


    POTLOK:  cpu time    0.0504: real time    0.0857
    SETDIJ:  cpu time    0.0959: real time    0.0969
     EDDAV:  cpu time    1.0212: real time    1.0216
       DOS:  cpu time    0.0027: real time    0.0029
    CHARGE:  cpu time    0.1706: real time    0.1709
    MIXING:  cpu time    0.0046: real time    0.0049
    --------------------------------------------
      LOOP:  cpu time    1.3454: real time    1.3823

 eigenvalue-minimisations  :  3176
 total energy-change (2. order) : 0.5084099E-04  (-0.2536258E-04)
 number of electron      25.0000000 magnetization
 augmentation part        4.9991151 magnetization

 Broyden mixing:
  rms(total) = 0.97913E-02    rms(broyden)= 0.97913E-02
  rms(prec ) = 0.11094E-01
  weight for this iteration     100.00

 eigenvalues of (default mixing * dielectric matrix)
  average eigenvalue GAMMA=   1.4563
  2.5538  2.2605  0.6695  1.1350  1.1350  0.9840

 Free energy of the ion-electron system (eV)
  ---------------------------------------------------
  alpha Z        PSCENC =       108.26510489
  Ewald energy   TEWEN  =     -1574.95541012
  -Hartree energ DENC   =      -299.30567445
  -exchange      EXHF   =         0.00000000
  -V(xc)+E(xc)   XCENC  =       -19.41020888
  PAW double counting   =      2711.54632314    -2623.98165818
  entropy T*S    EENTRO =        -0.00029604
  eigenvalues    EBANDS =       -67.30979125
  atomic energy  EATOM  =      1741.10451121
  Solvation  Ediel_sol  =         0.00000000
  ---------------------------------------------------
  free energy    TOTEN  =       -24.04709968 eV

  energy without entropy =      -24.04680364  energy(sigma->0) =      -24.04695166


--------------------------------------------------------------------------------------------------------




--------------------------------------- Iteration      1(  12)  ---------------------------------------


    POTLOK:  cpu time    0.0379: real time    0.0964
    SETDIJ:  cpu time    0.0973: real time    0.0978
     EDDAV:  cpu time    1.1344: real time    1.1346
       DOS:  cpu time    0.0027: real time    0.0030
    CHARGE:  cpu time    0.1709: real time    0.1709
    MIXING:  cpu time    0.0051: real time    0.0051
    --------------------------------------------
      LOOP:  cpu time    1.4483: real time    1.5088

 eigenvalue-minimisations  :  3656
 total energy-change (2. order) : 0.3052365E-05  (-0.9123313E-05)
 number of electron      25.0000000 magnetization
 augmentation part        4.9991946 magnetization

 Broyden mixing:
  rms(total) = 0.27026E-02    rms(broyden)= 0.27026E-02
  rms(prec ) = 0.28781E-02
  weight for this iteration     100.00

 eigenvalues of (default mixing * dielectric matrix)
  average eigenvalue GAMMA=   1.4771
  2.4079  2.4079  1.8516  0.6703  1.0298  1.0298  0.9426

 Free energy of the ion-electron system (eV)
  ---------------------------------------------------
  alpha Z        PSCENC =       108.26510489
  Ewald energy   TEWEN  =     -1574.95541012
  -Hartree energ DENC   =      -299.36117856
  -exchange      EXHF   =         0.00000000
  -V(xc)+E(xc)   XCENC  =       -19.40694927
  PAW double counting   =      2712.70954782    -2625.13199585
  entropy T*S    EENTRO =        -0.00029867
  eigenvalues    EBANDS =       -67.27042808
  atomic energy  EATOM  =      1741.10451121
  Solvation  Ediel_sol  =         0.00000000
  ---------------------------------------------------
  free energy    TOTEN  =       -24.04709663 eV

  energy without entropy =      -24.04679796  energy(sigma->0) =      -24.04694730


--------------------------------------------------------------------------------------------------------




--------------------------------------- Iteration      1(  13)  ---------------------------------------


    POTLOK:  cpu time    0.0343: real time    0.0701
    SETDIJ:  cpu time    0.0985: real time    0.0985
     EDDAV:  cpu time    0.9560: real time    0.9562
       DOS:  cpu time    0.0026: real time    0.0027
    CHARGE:  cpu time    0.1698: real time    0.1699
    MIXING:  cpu time    0.0048: real time    0.0050
    --------------------------------------------
      LOOP:  cpu time    1.2660: real time    1.3023

 eigenvalue-minimisations  :  2904
 total energy-change (2. order) : 0.1454323E-05  (-0.3307006E-06)
 number of electron      25.0000000 magnetization
 augmentation part        4.9993191 magnetization

 Broyden mixing:
  rms(total) = 0.40369E-03    rms(broyden)= 0.40368E-03
  rms(prec ) = 0.54111E-03
  weight for this iteration     100.00

 eigenvalues of (default mixing * dielectric matrix)
  average eigenvalue GAMMA=   1.5225
  2.6290  2.5313  2.0482  1.3086  0.6709  0.9341  1.0288  1.0288

 Free energy of the ion-electron system (eV)
  ---------------------------------------------------
  alpha Z        PSCENC =       108.26510489
  Ewald energy   TEWEN  =     -1574.95541012
  -Hartree energ DENC   =      -299.34905743
  -exchange      EXHF   =         0.00000000
  -V(xc)+E(xc)   XCENC  =       -19.40750940
  PAW double counting   =      2712.11660413    -2624.53679240
  entropy T*S    EENTRO =        -0.00029781
  eigenvalues    EBANDS =       -67.28424825
  atomic energy  EATOM  =      1741.10451121
  Solvation  Ediel_sol  =         0.00000000
  ---------------------------------------------------
  free energy    TOTEN  =       -24.04709518 eV

  energy without entropy =      -24.04679737  energy(sigma->0) =      -24.04694627


--------------------------------------------------------------------------------------------------------




--------------------------------------- Iteration      1(  14)  ---------------------------------------


    POTLOK:  cpu time    0.0339: real time    0.0665
    SETDIJ:  cpu time    0.0979: real time    0.0980
     EDDAV:  cpu time    1.0537: real time    1.0538
       DOS:  cpu time    0.0026: real time    0.0030
    --------------------------------------------
      LOOP:  cpu time    1.1881: real time    1.2189

 eigenvalue-minimisations  :  3168
 total energy-change (2. order) : 0.3310583E-07  (-0.2591786E-07)
 number of electron      25.0000000 magnetization
 augmentation part        4.9993191 magnetization

 Free energy of the ion-electron system (eV)
  ---------------------------------------------------
  alpha Z        PSCENC =       108.26510489
  Ewald energy   TEWEN  =     -1574.95541012
  -Hartree energ DENC   =      -299.35082043
  -exchange      EXHF   =         0.00000000
  -V(xc)+E(xc)   XCENC  =       -19.40734564
  PAW double counting   =      2712.25718577    -2624.67594604
  entropy T*S    EENTRO =        -0.00029786
  eigenvalues    EBANDS =       -67.28407692
  atomic energy  EATOM  =      1741.10451121
  Solvation  Ediel_sol  =         0.00000000
  ---------------------------------------------------
  free energy    TOTEN  =       -24.04709515 eV

  energy without entropy =      -24.04679729  energy(sigma->0) =      -24.04694622


--------------------------------------------------------------------------------------------------------




 average (electrostatic) potential at core
  the test charge radii are     1.1707  1.1712  1.2059
  (the norm of the test charge is              1.0000)
       1 -34.4320       2 -84.4101       3 -66.1967



 E-fermi :   9.2589     XC(G=0): -11.4475     alpha+bet :-13.9112


 k-point     1 :       0.0000    0.0000    0.0000
  band No.  band energies     occupation
      1     -22.9720      2.00000
      2     -22.9720      2.00000
      3     -22.9720      2.00000
      4      -3.7534      2.00000
      5       3.0324      2.00000
      6       3.0324      2.00000
      7       3.0324      2.00000
      8       3.8483      2.00000
      9       3.8483      2.00000
     10       7.5240      2.00000
     11       7.5240      2.00000
     12       7.5240      2.00000
     13       8.3775      2.00000
     14      10.1430      0.00000
     15      10.1430      0.00000
     16      10.1430      0.00000

 k-point     2 :       0.0769    0.0000   -0.0000
  band No.  band energies     occupation
      1     -22.9732      2.00000
      2     -22.9719      2.00000
      3     -22.9719      2.00000
      4      -3.6866      2.00000
      5       2.9544      2.00000
      6       3.0019      2.00000
      7       3.0019      2.00000
      8       3.8917      2.00000
      9       3.8917      2.00000
     10       6.9862      2.00000
     11       7.4582      2.00000
     12       7.4582      2.00000
     13       8.5854      2.00000
     14       9.9775      0.00000
     15       9.9775      0.00000
     16      10.5433      0.00000

 k-point     3 :       0.1538    0.0000   -0.0000
  band No.  band energies     occupation
      1     -22.9764      2.00000
      2     -22.9718      2.00000
      3     -22.9718      2.00000
      4      -3.4928      2.00000
      5       2.7371      2.00000
      6       2.9377      2.00000
      7       2.9377      2.00000
      8       3.9870      2.00000
      9       3.9870      2.00000
     10       6.1108      2.00000
     11       7.2935      2.00000
     12       7.2935      2.00000
     13       8.7945      2.00000
     14       9.8744      0.00000
     15       9.8744      0.00000
     16      11.3384      0.00000

 k-point     4 :       0.2308    0.0000    0.0000
  band No.  band energies     occupation
      1     -22.9810      2.00000
      2     -22.9715      2.00000
      3     -22.9715      2.00000
      4      -3.1941      2.00000
      5       2.4159      2.00000
      6       2.8805      2.00000
      7       2.8805      2.00000
      8       4.0744      2.00000
      9       4.0744      2.00000
     10       5.3042      2.00000
     11       7.1024      2.00000
     12       7.1024      2.00000
     13       8.9604      2.00000
     14       9.9036      0.00000
     15       9.9036      0.00000
     16      12.0016      0.00000

 k-point     5 :       0.3077    0.0000   -0.0000
  band No.  band energies     occupation
      1     -22.9858      2.00000
      2     -22.9713      2.00000
      3     -22.9713      2.00000
      4      -2.8322      2.00000
      5       2.0319      2.00000
      6       2.8495      2.00000
      7       2.8495      2.00000
      8       4.1164      2.00000
      9       4.1164      2.00000
     10       4.6830      2.00000
     11       6.9481      2.00000
     12       6.9481      2.00000
     13       9.1118      2.00000
     14      10.0333      0.00000
     15      10.0333      0.00000
     16      11.5423      0.00000

 k-point     6 :       0.3846    0.0000   -0.0000
  band No.  band energies     occupation
      1     -22.9897      2.00000
      2     -22.9711      2.00000
      3     -22.9711      2.00000
      4      -2.4795      2.00000
      5       1.6541      2.00000
      6       2.8433      2.00000
      7       2.8433      2.00000
      8       4.1128      2.00000
      9       4.1128      2.00000
     10       4.2840      2.00000
     11       6.8557      2.00000
     12       6.8557      2.00000
     13       9.2648      0.40211
     14      10.2132      0.00000
     15      10.2132      0.00000
     16      10.7833      0.00000

 k-point     7 :       0.4615   -0.0000    0.0000
  band No.  band energies     occupation
      1     -22.9919      2.00000
      2     -22.9709      2.00000
      3     -22.9709      2.00000
      4      -2.2476      2.00000
      5       1.4038      2.00000
      6       2.8476      2.00000
      7       2.8476      2.00000
      8       4.0949      2.00000
      9       4.0949      2.00000
     10       4.0953      2.00000
     11       6.8170      2.00000
     12       6.8170      2.00000
     13       9.4096      0.00000
     14      10.2952      0.00000
     15      10.3554      0.00000
     16      10.3554      0.00000

 k-point     8 :       0.0769    0.0769   -0.0000
  band No.  band energies     occupation
      1     -22.9732      2.00000
      2     -22.9721      2.00000
      3     -22.9721      2.00000
      4      -3.6647      2.00000
      5       2.8074      2.00000
      6       3.0638      2.00000
      7       3.0638      2.00000
      8       3.8824      2.00000
      9       3.9111      2.00000
     10       7.0332      2.00000
     11       7.3259      2.00000
     12       7.3259      2.00000
     13       8.6453      2.00000
     14       9.8521      0.00000
     15      10.4317      0.00000
     16      10.4318      0.00000

 k-point     9 :       0.1538    0.0769    0.0000
  band No.  band energies     occupation
      1     -22.9756      2.00000
      2     -22.9722      2.00000
      3     -22.9720      2.00000
      4      -3.5144      2.00000
      5       2.5930      2.00000
      6       3.0388      2.00000
      7       3.0652      2.00000
      8       3.9502      2.00000
      9       3.9732      2.00000
     10       6.3682      2.00000
     11       7.1332      2.00000
     12       7.2070      2.00000
     13       8.8672      2.00000
     14       9.7038      0.00000
     15      10.1401      0.00000
     16      10.9343      0.00000

 k-point    10 :       0.2308    0.0769   -0.0000
  band No.  band energies     occupation
      1     -22.9796      2.00000
      2     -22.9721      2.00000
      3     -22.9717      2.00000
      4      -3.2527      2.00000
      5       2.3475      2.00000
      6       2.9419      2.00000
      7       3.0315      2.00000
      8       4.0422      2.00000
      9       4.0536      2.00000
     10       5.5712      2.00000
     11       6.9504      2.00000
     12       7.0360      2.00000
     13       9.1275      2.00000
     14       9.6931      0.00000
     15      10.0202      0.00000
     16      11.5173      0.00000

 k-point    11 :       0.3077    0.0769    0.0000
  band No.  band energies     occupation
      1     -22.9842      2.00000
      2     -22.9719      2.00000
      3     -22.9716      2.00000
      4      -2.9145      2.00000
      5       2.0598      2.00000
      6       2.8480      2.00000
      7       2.9929      2.00000
      8       4.1007      2.00000
      9       4.1124      2.00000
     10       4.8936      2.00000
     11       6.8229      2.00000
     12       6.8629      2.00000
     13       9.2213      2.00000
     14       9.9500      0.00000
     15      10.0308      0.00000
     16      11.6254      0.00000

 k-point    12 :       0.3846    0.0769   -0.0000
  band No.  band energies     occupation
      1     -22.9883      2.00000
      2     -22.9716      2.00000
      3     -22.9716      2.00000
      4      -2.5606      2.00000
      5       1.7464      2.00000
      6       2.8017      2.00000
      7       2.9566      2.00000
      8       4.1129      2.00000
      9       4.1242      2.00000
     10       4.4216      2.00000
     11       6.7355      2.00000
     12       6.7604      2.00000
     13       9.2776      0.00797
     14      10.1524      0.00000
     15      10.2604      0.00000
     16      10.9667      0.00000

 k-point    13 :       0.4615    0.0769   -0.0000
  band No.  band energies     occupation
      1     -22.9910      2.00000
      2     -22.9717      2.00000
      3     -22.9713      2.00000
      4      -2.2867      2.00000
      5       1.4907      2.00000
      6       2.8070      2.00000
      7       2.9139      2.00000
      8       4.0777      2.00000
      9       4.1093      2.00000
     10       4.1906      2.00000
     11       6.6616      2.00000
     12       6.7452      2.00000
     13       9.3889      0.00000
     14      10.2311      0.00000
     15      10.3148      0.00000
     16      10.6564      0.00000

 k-point    14 :      -0.4615    0.0769   -0.0000
  band No.  band energies     occupation
      1     -22.9916      2.00000
      2     -22.9719      2.00000
      3     -22.9710      2.00000
      4      -2.2060      2.00000
      5       1.4146      2.00000
      6       2.8487      2.00000
      7       2.8587      2.00000
      8       4.0337      2.00000
[...]
  212              fftbas_plan_mpi                       0.063238                     12   6
  213                dfftw_execute                         0.026079                   36   7
  214                map_backward                          0.004331                   12   7
  215                  map_gather                            0.000802                  6   8
  216                  m_alltoallv_z                         0.002130                  6   8
  217                  map_scatter                           0.001093                  6   8
  218                map_forward                           0.029796                   12   7
  219                  map_gather                            0.015812                  6   8
  220                  m_alltoallv_z                         0.006202                  6   8
  221                  map_scatter                           0.007489                  6   8
  222            M_sumb_d                              0.005282                        6   5
  223          M_sumb_d                              0.000023                          1   4
  224        setdij_                               1.733995                           20   3
  225          fft3d_mpi                             0.331682                         40   4
  226            fftbas_plan_mpi                       0.306134                       40   5
  227              dfftw_execute                         0.104093                    120   6
  228              map_backward                          0.023291                     40   6
  229                map_gather                            0.005537                   20   7
  230                m_alltoallv_z                         0.010046                   20   7
  231                map_scatter                           0.006551                   20   7
  232              map_forward                           0.167533                     40   6
  233                map_gather                            0.091739                   20   7
  234                m_alltoallv_z                         0.039155                   20   7
  235                map_scatter                           0.035589                   20   7
  236          M_sumb_d                              0.040332                         20   4
  237        set_dd_magatom                        0.000003                            1   3
  238        set_dd_paw                            0.019095                            1   3
  239          set_rsgf_all                          0.000004                          1   4
  240          M_sumb_d                              0.018918                          8   4
  241        strkin                                0.001076                            1   3
  242          M_sumb_d                              0.000630                          1   4
  243        strelo                                0.002599                            1   3
  244          M_sumb_d                              0.000479                          2   4
  245        strenl                                0.679224                            1   3
  246          spher                                 0.542934                         19   4
  247          phase                                 0.011259                        189   4
  248          proj1                                 0.108793                        756   4
  249            crexp_mul_wave                        0.017455                     2268   5
  250            M_sumb_d                              0.026703                      756   5
  251          M_sumb_d                              0.004496                          1   4
  252        M_sumb_d                              0.000276                            6   3
  253        fft3d_mpi                             0.015121                           11   3
  254          fftbas_plan_mpi                       0.014068                         11   4
  255            dfftw_execute                         0.004847                       33   5
  256            map_forward                           0.002790                       10   5
  257              map_gather                            0.000587                      5   6
  258              m_alltoallv_z                         0.001310                      5   6
  259              map_scatter                           0.000646                      5   6
  260            map_backward                          0.003766                       12   5
  261              map_gather                            0.000823                      6   6
  262              m_alltoallv_z                         0.001462                      6   6
  263              map_scatter                           0.001194                      6   6
  264        ggaall_grid                           0.001564                            1   3
  265        forhar                                0.006052                            2   3
  266          M_sumb_d                              0.000289                          2   4
  267        strehar                               0.002587                            1   3
  268          M_sumb_d                              0.000071                          1   4
  269        chggra                                0.006092                            1   3
  270          fft3d_mpi                             0.004127                          3   4
  271            fftbas_plan_mpi                       0.003852                        3   5
  272              dfftw_execute                         0.001323                      9   6
  273              map_backward                          0.000678                      2   6
  274                map_gather                            0.000123                    1   7
  275                m_alltoallv_z                         0.000307                    1   7
  276                map_scatter                           0.000195                    1   7
  277              map_forward                           0.001082                      4   6
  278                map_gather                            0.000204                    2   7
  279                m_alltoallv_z                         0.000461                    2   7
  280                map_scatter                           0.000326                    2   7
  281          M_sumb_d                              0.000135                          3   4
  282        brmix                                 0.004657                            1   3
  283          M_sumb_d                              0.000284                          6   4
  284          brpre                                 0.000048                          1   4
  285          setg0                                 0.001393                          1   4
  286          broyd                                 0.001816                          1   4
  287            M_sumb_d                              0.000511                       16   5
  288            brget                                 0.000246                       54   5
  289            brsav                                 0.000065                       14   5
  290          M_bcast_z                             0.000131                          1   4
  291          M_bcast_d                             0.000044                          1   4
  292        M_bcast_d                             0.000277                            2   3
  293      potlok                                0.035176                              1   2
  294        fft3d_mpi                             0.022366                           13   3
  295          fftbas_plan_mpi                       0.021096                         13   4
  296            dfftw_execute                         0.006852                       39   5
  297            map_forward                           0.007167                       14   5
  298              map_gather                            0.001532                      8   6
  299              m_alltoallv_z                         0.003013                      8   6
  300              map_scatter                           0.002210                      8   6
  301            map_backward                          0.003852                       12   5
  302              map_gather                            0.000795                      6   6
  303              m_alltoallv_z                         0.001486                      6   6
  304              map_scatter                           0.001264                      6   6
  305        ggaall_grid                           0.001664                            1   3
  306        M_sumb_d                              0.000619                            6   3
  307        M_bcast_d                             0.000109                            1   3
  308      potlok_metagga                        0.000004                              1   2
  309      set_dd_magatom                        0.000003                              1   2
  310      set_dd_paw                            0.000363                              1   2
  311        set_rsgf_all                          0.000004                            1   3
  312        M_sumb_d                              0.000218                            8   3
  313      densta                                0.001985                              1   2
  314        M_sumb_d                              0.000739                           42   3
  315      lprj_proall                           0.000008                              1   2

 Flat profile
 ============

             routine name                   CPU           calls
 ---------------------------------------------------------------
 total_time                             44.634275           1
 eddav                                   2.828900          14
 dfftw_execute                           2.783951       27645
 setdij_                                 2.728363          38
 fftbas_plan_mpi                         1.848819        9217
 elmin                                   1.561996           1
 M_sumb_d                                1.463026       26203
 m_alltoallv_z                           1.132121        9236
 set_charge                              1.029682          10
 crpa_reader                             0.833461           1
 spher                                   0.631645          20
 M_alltoall_d                            0.622236       30296
 pdssyex_zheevx                          0.596168         294
 orth1                                   0.454114        6171
 map_gather                              0.437586        9236
 vhamil                                  0.419705        4100
 proj1                                   0.381760        3764
 map_scatter                             0.373271        9236
 fftwav_mpi                              0.351432        4861
 map_forward                             0.346929        9968
 force_and_stress                        0.345737           1
 gemm                                    0.324784       12300
 M_bcast_z                               0.294842        3757
 vnlac0                                  0.266225        4100
 redis_pw                                0.249851       11754
 hamiltmu                                0.222796        2050
 redis_proj                              0.221490       14699
 fft3d_mpi                               0.212771        9215
 w1_copy                                 0.162424       12300
 map_backward                            0.150079        8462
 work_mul_crexp                          0.128378       12300
 fftext_mpi                              0.127590        4100
 eccp                                    0.104122        1176
 crexp_mul_wave                          0.096486       11292
 kinhamil                                0.079921        4100
 potlok                                  0.077526          11
 overl                                   0.077296        7045
 M_bcast_d                               0.067623        2078
 overl1                                  0.051220        4100
 pw_charge                               0.045920         761
 lincom                                  0.045886         315
 setup_precond                           0.038775        1176
 apply_precond                           0.037938        2924
 phase                                   0.031512         526
 w1_projall                              0.031363        1462
 fornl                                   0.020048           1
 soft_charge                             0.019910          10
 ggaall_grid                             0.018603          12
 truncate_high_frequency_w1              0.018172        5276
 densta                                  0.017927          15
 setg0                                   0.012168          11
 strenl                                  0.011742           1
 brmix                                   0.010134          10
 broyd                                   0.006014          10
 forhar                                  0.005763           2
 forloc                                  0.003113           1
 strehar                                 0.002516           1
 depsum                                  0.002346          10
 strelo                                  0.002120           1
 set_dd_paw                              0.002074          12
 orthch                                  0.001882           1
 chggra                                  0.001830           1
 brget                                   0.001453         309
 brgrid                                  0.001280           1
 proj                                    0.000983          21
 brpre                                   0.000821          10
 choleski                                0.000796          21
 brsav                                   0.000499          96
 strkin                                  0.000446           1
 fordep                                  0.000157           1
 set_rsgf_all                            0.000074          12
 vectorpot                               0.000058          11
 set_dd_magatom                          0.000045          12
 potlok_metagga                          0.000044          11
 set_kineden                             0.000034           9
 rotate_active_occupied_orbital          0.000015           1
 lprj_proall                             0.000008           1
 redis_pw_over_bands                     0.000003           1
 ---------------------------------------------------------------
  summed up times    69.1150760650635

 Accumulative profile
 ====================

             routine name                   CPU           calls
 ---------------------------------------------------------------
 total_time                             69.115076           1
 elmin                                  19.439910           1
 eddav                                  14.863240          14
 fft3d_mpi                               7.261756        9215
 fftbas_plan_mpi                         7.072755        9217
 hamiltmu                                4.638634        2050
 fftwav_mpi                              3.845071        4861
 force_and_stress                        3.582011           1
 setdij_                                 3.443825          38
 kinhamil                                2.973059        4100
 fftext_mpi                              2.893138        4100
 dfftw_execute                           2.783951       27645
 set_charge                              1.901850          10
 map_forward                             1.478320        9968
 M_sumb_d                                1.463026       26203
 m_alltoallv_z                           1.132121        9236
 vnlac0                                  0.971854        4100
 map_backward                            0.961665        8462
 crpa_reader                             0.833461           1
 soft_charge                             0.712868          10
 strenl                                  0.679224           1
 proj1                                   0.665229        3764
 spher                                   0.631645          20
 M_alltoall_d                            0.622236       30296
 redis_pw                                0.600766       11754
 pdssyex_zheevx                          0.596168         294
 w1_projall                              0.575705        1462
 fordep                                  0.523656           1
 redis_proj                              0.492810       14699
 orth1                                   0.454114        6171
 map_gather                              0.437586        9236
 vhamil                                  0.419705        4100
 map_scatter                             0.373271        9236
 gemm                                    0.324784       12300
 potlok                                  0.300839          11
 M_bcast_z                               0.294842        3757
 eccp                                    0.174777        1176
 w1_copy                                 0.162424       12300
 work_mul_crexp                          0.128378       12300
 crexp_mul_wave                          0.096486       11292
 overl                                   0.077296        7045
 M_bcast_d                               0.067623        2078
 setup_precond                           0.066427        1176
 overl1                                  0.051220        4100
 pw_charge                               0.045920         761
 lincom                                  0.045886         315
 set_dd_paw                              0.044875          12
 brmix                                   0.044757          10
 apply_precond                           0.037938        2924
 phase                                   0.031512         526
 densta                                  0.031170          15
 fornl                                   0.028072           1
 orthch                                  0.024269           1
 ggaall_grid                             0.018603          12
 truncate_high_frequency_w1              0.018172        5276
 proj                                    0.013077          21
 setg0                                   0.012168          11
 broyd                                   0.011942          10
 depsum                                  0.007648          10
 chggra                                  0.006092           1
 forhar                                  0.006052           2
 forloc                                  0.003173           1
 strelo                                  0.002599           1
 strehar                                 0.002587           1
 brget                                   0.001453         309
 brgrid                                  0.001280           1
 strkin                                  0.001076           1
 brpre                                   0.000821          10
 choleski                                0.000796          21
 brsav                                   0.000499          96
 set_rsgf_all                            0.000074          12
 vectorpot                               0.000058          11
 set_dd_magatom                          0.000045          12
 potlok_metagga                          0.000044          11
 set_kineden                             0.000034           9
 rotate_active_occupied_orbital          0.000015           1
 lprj_proall                             0.000008           1
 redis_pw_over_bands                     0.000003           1
 ---------------------------------------------------------------

Profiling took   0.720119  0.873817  0.006190  0.004796 seconds
Profiling took   0.695172 seconds
