 ----------------------------------------------------
    OOO  PPPP  EEEEE N   N M   M PPPP
   O   O P   P E     NN  N MM MM P   P
   O   O PPPP  EEEEE N N N M M M PPPP   -- VERSION
   O   O P     E     N  NN M   M P
    OOO  P     EEEEE N   N M   M P
 ----------------------------------------------------
 running   64 mpi-ranks, with    1 threads/rank
 distrk:  each k-point on   16 cores,    4 groups
 distr:  one band on    4 cores,    4 groups
 using from now: INCAR
 vasp.6.0.8 29Jun18 (build Jun 13 2019 12:54:44) complex

 POSCAR found type information on POSCAR  Hf Sb Pt
 POSCAR found :  3 types and       3 ions
 scaLAPACK will be used

 -----------------------------------------------------------------------------
|                                                                             |
|  ADVICE TO THIS USER RUNNING 'VASP/VAMP'   (HEAR YOUR MASTER'S VOICE ...):  |
|                                                                             |
|      You enforced a specific xc-type in the INCAR file,                     |
|      a different type was found on the POTCAR file                          |
|          I HOPE YOU KNOW, WHAT YOU ARE  DOING                               |
|                                                                             |
 -----------------------------------------------------------------------------

 LDA part: xc-table for Pade appr. of Perdew
 POSCAR, INCAR and KPOINTS ok, starting setup
 FFT: planning ...
 WAVECAR not read
 entering main loop
       N       E                     dE             d eps       ncg     rms          rms(c)
 ELPA: falling back to scaLAPACK
 ELPA: falling back to scaLAPACK
 ELPA: falling back to scaLAPACK
 ELPA: falling back to scaLAPACK
DAV:   1     0.140009218555E+03    0.14001E+03   -0.14322E+04  2696   0.175E+03
DAV:   2    -0.203639746073E+02   -0.16037E+03   -0.15844E+03  3408   0.340E+02
DAV:   3    -0.248866222808E+02   -0.45226E+01   -0.44716E+01  3576   0.515E+01
DAV:   4    -0.249504024052E+02   -0.63780E-01   -0.63701E-01  3328   0.642E+00
DAV:   5    -0.249518348168E+02   -0.14324E-02   -0.14318E-02  3600   0.889E-01    0.442E+01
DAV:   6    -0.242183046718E+02    0.73353E+00   -0.16109E+00  3456   0.927E+00    0.266E+01
DAV:   7    -0.240842002108E+02    0.13410E+00   -0.97875E-01  3784   0.546E+00    0.408E+00
DAV:   8    -0.240554532549E+02    0.28747E-01   -0.38479E-01  3504   0.363E+00    0.962E-01
DAV:   9    -0.240473555490E+02    0.80977E-02   -0.52352E-02  2960   0.181E+00    0.415E-01
DAV:  10    -0.240471505260E+02    0.20502E-03   -0.57224E-03  3704   0.418E-01    0.257E-01
DAV:  11    -0.240470996850E+02    0.50841E-04   -0.25363E-04  3176   0.112E-01    0.979E-02
DAV:  12    -0.240470966326E+02    0.30524E-05   -0.91233E-05  3656   0.536E-02    0.270E-02
DAV:  13    -0.240470951783E+02    0.14543E-05   -0.33070E-06  2904   0.132E-02    0.404E-03
DAV:  14    -0.240470951452E+02    0.33106E-07   -0.25918E-07  3168   0.397E-03
   1 F= -.24047095E+02 E0= -.24046946E+02  d E =-.297858E-03
