<?xml version="1.0" encoding="ISO-8859-1"?>
<modeling>
 <generator>
  <i name="program" type="string">vasp </i>
  <i name="version" type="string">6.0.8  </i>
  <i name="subversion" type="string">29Jun18 (build Jun 13 2019 12:54:44) complex                          parallel </i>
  <i name="platform" type="string">IFC18_CrayMPICH </i>
  <i name="date" type="string">2021 12 05 </i>
  <i name="time" type="string">14:21:52 </i>
 </generator>
 <incar>
  <i type="int" name="KPAR">     4</i>
  <i type="int" name="NPAR">     4</i>
  <i type="int" name="ISTART">     0</i>
  <i type="string" name="PREC"> ACC</i>
  <i type="string" name="ALGO"> Normal</i>
  <i type="logical" name="ADDGRID"> T  </i>
  <i type="int" name="ISPIN">     1</i>
  <i type="int" name="NELMIN">     5</i>
  <i type="int" name="IBRION">    -1</i>
  <i name="EDIFF">      0.00000010</i>
  <i type="int" name="NSW">     0</i>
  <i type="int" name="ISIF">     3</i>
  <i name="ENCUT">    700.00000000</i>
  <i type="logical" name="LREAL"> F  </i>
  <i type="int" name="ISMEAR">     0</i>
  <i name="SIGMA">      0.01000000</i>
  <i type="logical" name="LWAVE"> F  </i>
  <i type="logical" name="LCHARG"> F  </i>
  <i type="logical" name="LVTOT"> F  </i>
  <i type="string" name="ALGO"> Normal</i>
  <i type="string" name="GGA"> PS</i>
  <i name="EDIFF">      0.00000010</i>
  <i type="int" name="ISPIN">     1</i>
 </incar>
 <structure name="primitive_cell" >
  <crystal>
   <varray name="basis" >
    <v>       0.00000000       3.15695259       3.15695259 </v>
    <v>       3.15695259       0.00000000       3.15695259 </v>
    <v>       3.15695259       3.15695259       0.00000000 </v>
   </varray>
   <i name="volume">     62.92658685 </i>
   <varray name="rec_basis" >
    <v>      -0.15838059       0.15838059       0.15838059 </v>
    <v>       0.15838059      -0.15838059       0.15838059 </v>
    <v>       0.15838059       0.15838059      -0.15838059 </v>
   </varray>
  </crystal>
  <varray name="positions" >
   <v>       0.75000000       0.75000000       0.75000000 </v>
   <v>       0.25000000       0.25000000       0.25000000 </v>
   <v>       0.00000000       0.00000000       0.00000000 </v>
  </varray>
 </structure>
 <varray name="primitive_index" >
  <v type="int" >        1 </v>
  <v type="int" >        2 </v>
  <v type="int" >        3 </v>
 </varray>
 <kpoints>
  <generation param="Gamma">
   <v type="int" name="divisions">      13       13       13 </v>
   <v name="usershift">      0.00000000       0.00000000       0.00000000 </v>
   <v name="genvec1">      0.07692308      -0.00000000       0.00000000 </v>
   <v name="genvec2">     -0.00000000       0.07692308      -0.00000000 </v>
   <v name="genvec3">      0.00000000       0.00000000       0.07692308 </v>
   <v name="shift">      0.00000000       0.00000000       0.00000000 </v>
  </generation>
  <varray name="kpointlist" >
   <v>       0.00000000       0.00000000       0.00000000 </v>
   <v>       0.07692308       0.00000000      -0.00000000 </v>
   <v>       0.15384615       0.00000000      -0.00000000 </v>
   <v>       0.23076923       0.00000000       0.00000000 </v>
   <v>       0.30769231       0.00000000      -0.00000000 </v>
   <v>       0.38461538       0.00000000      -0.00000000 </v>
   <v>       0.46153846      -0.00000000       0.00000000 </v>
   <v>       0.07692308       0.07692308      -0.00000000 </v>
   <v>       0.15384615       0.07692308       0.00000000 </v>
   <v>       0.23076923       0.07692308      -0.00000000 </v>
   <v>       0.30769231       0.07692308       0.00000000 </v>
   <v>       0.38461538       0.07692308      -0.00000000 </v>
   <v>       0.46153846       0.07692308      -0.00000000 </v>
   <v>      -0.46153846       0.07692308      -0.00000000 </v>
   <v>      -0.38461538       0.07692308       0.00000000 </v>
   <v>      -0.30769231       0.07692308       0.00000000 </v>
   <v>      -0.23076923       0.07692308       0.00000000 </v>
   <v>      -0.15384615       0.07692308       0.00000000 </v>
   <v>      -0.07692308       0.07692308       0.00000000 </v>
   <v>       0.15384615       0.15384615      -0.00000000 </v>
   <v>       0.23076923       0.15384615       0.00000000 </v>
   <v>       0.30769231       0.15384615      -0.00000000 </v>
   <v>       0.38461538       0.15384615       0.00000000 </v>
   <v>       0.46153846       0.15384615      -0.00000000 </v>
   <v>      -0.46153846       0.15384615       0.00000000 </v>
   <v>      -0.38461538       0.15384615      -0.00000000 </v>
   <v>      -0.30769231       0.15384615      -0.00000000 </v>
   <v>      -0.23076923       0.15384615       0.00000000 </v>
   <v>      -0.15384615       0.15384615       0.00000000 </v>
   <v>       0.23076923       0.23076923      -0.00000000 </v>
   <v>       0.30769231       0.23076923      -0.00000000 </v>
   <v>       0.38461538       0.23076923      -0.00000000 </v>
   <v>       0.46153846       0.23076923      -0.00000000 </v>
   <v>      -0.46153846       0.23076923      -0.00000000 </v>
   <v>      -0.38461538       0.23076923       0.00000000 </v>
   <v>      -0.30769231       0.23076923      -0.00000000 </v>
   <v>      -0.23076923       0.23076923       0.00000000 </v>
   <v>       0.30769231       0.30769231      -0.00000000 </v>
   <v>       0.38461538       0.30769231      -0.00000000 </v>
   <v>       0.46153846       0.30769231      -0.00000000 </v>
   <v>      -0.46153846       0.30769231       0.00000000 </v>
   <v>      -0.38461538       0.30769231      -0.00000000 </v>
   <v>      -0.30769231       0.30769231       0.00000000 </v>
   <v>       0.38461538       0.38461538      -0.00000000 </v>
   <v>       0.46153846       0.38461538      -0.00000000 </v>
   <v>      -0.46153846       0.38461538      -0.00000000 </v>
   <v>      -0.38461538       0.38461538       0.00000000 </v>
   <v>       0.46153846       0.46153846      -0.00000000 </v>
   <v>      -0.46153846       0.46153846      -0.00000000 </v>
   <v>       0.23076923       0.15384615       0.07692308 </v>
   <v>       0.30769231       0.15384615       0.07692308 </v>
   <v>       0.38461538       0.15384615       0.07692308 </v>
   <v>       0.46153846       0.15384615       0.07692308 </v>
   <v>      -0.46153846       0.15384615       0.07692308 </v>
   <v>       0.30769231       0.23076923       0.07692308 </v>
   <v>       0.38461538       0.23076923       0.07692308 </v>
   <v>       0.46153846       0.23076923       0.07692308 </v>
   <v>      -0.46153846       0.23076923       0.07692308 </v>
   <v>      -0.38461538       0.23076923       0.07692308 </v>
   <v>      -0.30769231       0.23076923       0.07692308 </v>
   <v>      -0.23076923       0.23076923       0.07692308 </v>
   <v>      -0.15384615       0.23076923       0.07692308 </v>
   <v>       0.38461538       0.30769231       0.07692308 </v>
   <v>       0.46153846       0.30769231       0.07692308 </v>
   <v>      -0.46153846       0.30769231       0.07692308 </v>
   <v>      -0.38461538       0.30769231       0.07692308 </v>
   <v>      -0.30769231       0.30769231       0.07692308 </v>
   <v>      -0.23076923       0.30769231       0.07692308 </v>
   <v>       0.46153846       0.38461538       0.07692308 </v>
   <v>      -0.46153846       0.38461538       0.07692308 </v>
   <v>      -0.38461538       0.38461538       0.07692308 </v>
   <v>      -0.30769231       0.38461538       0.07692308 </v>
   <v>      -0.46153846       0.46153846       0.07692308 </v>
   <v>      -0.38461538       0.46153846       0.07692308 </v>
   <v>       0.46153846       0.30769231       0.15384615 </v>
   <v>      -0.46153846       0.30769231       0.15384615 </v>
   <v>      -0.38461538       0.30769231       0.15384615 </v>
   <v>      -0.46153846       0.38461538       0.15384615 </v>
   <v>      -0.38461538       0.38461538       0.15384615 </v>
   <v>      -0.30769231       0.38461538       0.15384615 </v>
   <v>      -0.23076923       0.38461538       0.15384615 </v>
   <v>      -0.38461538       0.46153846       0.15384615 </v>
   <v>      -0.30769231       0.46153846       0.15384615 </v>
   <v>      -0.30769231       0.46153846       0.23076923 </v>
  </varray>
  <varray name="weights" >
   <v>       0.00045517 </v>
   <v>       0.00364133 </v>
   <v>       0.00364133 </v>
   <v>       0.00364133 </v>
   <v>       0.00364133 </v>
   <v>       0.00364133 </v>
   <v>       0.00364133 </v>
   <v>       0.00273100 </v>
   <v>       0.01092399 </v>
   <v>       0.01092399 </v>
   <v>       0.01092399 </v>
   <v>       0.01092399 </v>
   <v>       0.01092399 </v>
   <v>       0.01092399 </v>
   <v>       0.01092399 </v>
   <v>       0.01092399 </v>
   <v>       0.01092399 </v>
   <v>       0.01092399 </v>
   <v>       0.00546199 </v>
   <v>       0.00273100 </v>
   <v>       0.01092399 </v>
   <v>       0.01092399 </v>
   <v>       0.01092399 </v>
   <v>       0.01092399 </v>
   <v>       0.01092399 </v>
   <v>       0.01092399 </v>
   <v>       0.01092399 </v>
   <v>       0.01092399 </v>
   <v>       0.00546199 </v>
   <v>       0.00273100 </v>
   <v>       0.01092399 </v>
   <v>       0.01092399 </v>
   <v>       0.01092399 </v>
   <v>       0.01092399 </v>
   <v>       0.01092399 </v>
   <v>       0.01092399 </v>
   <v>       0.00546199 </v>
   <v>       0.00273100 </v>
   <v>       0.01092399 </v>
   <v>       0.01092399 </v>
   <v>       0.01092399 </v>
   <v>       0.01092399 </v>
   <v>       0.00546199 </v>
   <v>       0.00273100 </v>
   <v>       0.01092399 </v>
   <v>       0.01092399 </v>
   <v>       0.00546199 </v>
   <v>       0.00273100 </v>
   <v>       0.00546199 </v>
   <v>       0.01092399 </v>
   <v>       0.02184797 </v>
   <v>       0.02184797 </v>
   <v>       0.02184797 </v>
   <v>       0.02184797 </v>
   <v>       0.01092399 </v>
   <v>       0.02184797 </v>
   <v>       0.02184797 </v>
   <v>       0.02184797 </v>
   <v>       0.02184797 </v>
   <v>       0.02184797 </v>
   <v>       0.02184797 </v>
   <v>       0.01092399 </v>
   <v>       0.01092399 </v>
   <v>       0.02184797 </v>
   <v>       0.02184797 </v>
   <v>       0.02184797 </v>
   <v>       0.02184797 </v>
   <v>       0.01092399 </v>
   <v>       0.01092399 </v>
   <v>       0.02184797 </v>
   <v>       0.02184797 </v>
   <v>       0.01092399 </v>
   <v>       0.01092399 </v>
   <v>       0.01092399 </v>
   <v>       0.01092399 </v>
   <v>       0.02184797 </v>
   <v>       0.02184797 </v>
   <v>       0.01092399 </v>
   <v>       0.02184797 </v>
   <v>       0.02184797 </v>
   <v>       0.01092399 </v>
   <v>       0.01092399 </v>
   <v>       0.01092399 </v>
   <v>       0.01092399 </v>
  </varray>
 </kpoints>
 <parameters>
  <separator name="general" >
   <i type="string" name="SYSTEM">unknown system</i>
   <i type="logical" name="LCOMPAT"> F  </i>
  </separator>
  <separator name="electronic" >
   <i type="string" name="PREC">acc</i>
   <i name="ENMAX">    700.00000000</i>
   <i name="ENAUG">    380.87800000</i>
   <i name="EDIFF">      0.00000010</i>
   <i type="int" name="IALGO">    38</i>
   <i type="int" name="IWAVPR">    10</i>
   <i type="int" name="NBANDS">    16</i>
   <i type="int" name="NBANDSLOW">    -1</i>
   <i type="int" name="NBANDSHIGH">    -1</i>
   <i name="NELECT">     25.00000000</i>
   <i type="int" name="TURBO">     0</i>
   <i type="int" name="IRESTART">     0</i>
   <i type="int" name="NREBOOT">     0</i>
   <i type="int" name="NMIN">     0</i>
   <i name="EREF">      0.00000000</i>
   <separator name="electronic smearing" >
    <i type="int" name="ISMEAR">     0</i>
    <i name="SIGMA">      0.01000000</i>
    <i name="KSPACING">      0.50000000</i>
    <i type="logical" name="KGAMMA"> T  </i>
    <i type="logical" name="KBLOWUP"> T  </i>
   </separator>
   <separator name="electronic projectors" >
    <i type="logical" name="LREAL"> F  </i>
    <v name="ROPT">      0.00000000      0.00000000      0.00000000</v>
    <i type="int" name="LMAXPAW">  -100</i>
    <i type="int" name="LMAXMIX">     2</i>
    <i type="logical" name="NLSPLINE"> F  </i>
   </separator>
   <separator name="electronic startup" >
    <i type="int" name="ISTART">     0</i>
    <i type="int" name="ICHARG">     2</i>
    <i type="int" name="INIWAV">     1</i>
   </separator>
   <separator name="electronic spin" >
    <i type="int" name="ISPIN">     1</i>
    <i type="logical" name="LNONCOLLINEAR"> F  </i>
    <v name="MAGMOM">      1.00000000      1.00000000      1.00000000</v>
    <i name="NUPDOWN">     -1.00000000</i>
    <i type="logical" name="LSORBIT"> F  </i>
    <v name="SAXIS">      0.00000000      0.00000000      1.00000000</v>
    <i type="logical" name="LSPIRAL"> F  </i>
    <v name="QSPIRAL">      0.00000000      0.00000000      0.00000000</v>
    <i type="logical" name="LZEROZ"> F  </i>
   </separator>
   <separator name="electronic exchange-correlation" >
    <i type="logical" name="LASPH"> F  </i>
    <i type="logical" name="LMETAGGA"> F  </i>
   </separator>
   <separator name="electronic convergence" >
    <i type="int" name="NELM">    60</i>
    <i type="int" name="NELMDL">    -5</i>
    <i type="int" name="NELMIN">     5</i>
    <i name="ENINI">    700.00000000</i>
    <separator name="electronic convergence detail" >
     <i type="logical" name="LDIAG"> T  </i>
     <i type="logical" name="LSUBROT"> F  </i>
     <i name="WEIMIN">      0.00000000</i>
     <i name="EBREAK">      0.00000000</i>
     <i name="DEPER">      0.30000000</i>
     <i type="int" name="NRMM">     4</i>
     <i name="TIME">      0.40000000</i>
    </separator>
   </separator>
   <separator name="electronic mixer" >
    <i name="AMIX">      0.40000000</i>
    <i name="BMIX">      1.00000000</i>
    <i name="AMIN">      0.10000000</i>
    <i name="AMIX_MAG">      1.60000000</i>
    <i name="BMIX_MAG">      1.00000000</i>
    <separator name="electronic mixer details" >
     <i type="int" name="IMIX">     4</i>
     <i type="logical" name="MIXFIRST"> F  </i>
     <i type="int" name="MAXMIX">   -45</i>
     <i name="WC">    100.00000000</i>
     <i type="int" name="INIMIX">     1</i>
     <i type="int" name="MIXPRE">     1</i>
     <i type="int" name="MREMOVE">     5</i>
    </separator>
   </separator>
   <separator name="electronic dipolcorrection" >
    <i type="logical" name="LDIPOL"> F  </i>
    <i type="logical" name="LMONO"> F  </i>
    <i type="int" name="IDIPOL">     0</i>
    <i name="EPSILON">      1.00000000</i>
    <v name="DIPOL">   -100.00000000   -100.00000000   -100.00000000</v>
    <i name="EFIELD">      0.00000000</i>
   </separator>
  </separator>
  <separator name="grids" >
   <i type="int" name="NGX">    40</i>
   <i type="int" name="NGY">    40</i>
   <i type="int" name="NGZ">    40</i>
   <i type="int" name="NGXF">    80</i>
   <i type="int" name="NGYF">    80</i>
   <i type="int" name="NGZF">    80</i>
   <i type="logical" name="ADDGRID"> T  </i>
  </separator>
  <separator name="ionic" >
   <i type="int" name="NSW">     0</i>
   <i type="int" name="IBRION">    -1</i>
   <i type="int" name="MDALGO">     0</i>
   <i type="int" name="ISIF">     3</i>
   <i name="PSTRESS">      0.00000000</i>
   <i name="EDIFFG">      0.00000100</i>
   <i type="int" name="NFREE">     0</i>
   <i name="POTIM">      0.50000000</i>
   <i name="SMASS">     -3.00000000</i>
   <i name="SCALEE">      1.00000000</i>
  </separator>
  <separator name="ionic md" >
   <i name="TEBEG">      0.00010000</i>
   <i name="TEEND">      0.00010000</i>
   <i type="int" name="NBLOCK">     1</i>
   <i type="int" name="KBLOCK">     1</i>
   <i type="int" name="NPACO">   256</i>
   <i name="APACO">     16.00000000</i>
  </separator>
  <separator name="symmetry" >
   <i type="int" name="ISYM">     2</i>
   <i name="SYMPREC">      0.00001000</i>
  </separator>
  <separator name="dos" >
   <i type="int" name="LORBIT">     0</i>
   <v name="RWIGS">     -1.00000000     -1.00000000     -1.00000000</v>
   <i type="int" name="NEDOS">   301</i>
   <i name="EMIN">     10.00000000</i>
   <i name="EMAX">    -10.00000000</i>
   <i name="EFERMI">      0.00000000</i>
  </separator>
  <separator name="writing" >
   <i type="int" name="NWRITE">     2</i>
   <i type="logical" name="LWAVE"> F  </i>
   <i type="logical" name="LDOWNSAMPLE"> F  </i>
   <i type="logical" name="LCHARG"> F  </i>
   <i type="logical" name="LPARD"> F  </i>
   <i type="logical" name="LVTOT"> F  </i>
   <i type="logical" name="LVHAR"> F  </i>
   <i type="logical" name="LELF"> F  </i>
   <i type="logical" name="LOPTICS"> F  </i>
   <v name="STM">      0.00000000      0.00000000      0.00000000      0.00000000      0.00000000      0.00000000      0.00000000</v>
  </separator>
  <separator name="performance" >
   <i type="int" name="NPAR">     4</i>
   <i type="int" name="NSIM">     4</i>
   <i type="int" name="NBLK">    -1</i>
   <i type="logical" name="LPLANE"> T  </i>
   <i type="logical" name="LSCALAPACK"> T  </i>
   <i type="logical" name="LSCAAWARE"> F  </i>
   <i type="logical" name="LSCALU"> F  </i>
   <i type="logical" name="LASYNC"> F  </i>
   <i type="logical" name="LORBITALREAL"> F  </i>
  </separator>
  <separator name="miscellaneous" >
   <i type="int" name="IDIOT">     3</i>
   <i type="int" name="PHON_NSTRUCT">    -1</i>
   <i type="logical" name="LMUSIC"> F  </i>
   <v name="POMASS">    178.49000000    121.75000000    195.08000000</v>
   <v name="DARWINR">      0.00000000      0.00000000      0.00000000</v>
   <v name="DARWINV">      1.00000000      1.00000000      1.00000000</v>
   <i type="logical" name="LCORR"> T  </i>
  </separator>
  <i type="logical" name="GGA_COMPAT"> T  </i>
  <i type="logical" name="LBERRY"> F  </i>
  <i type="int" name="ICORELEVEL">     0</i>
  <i type="logical" name="LDAU"> F  </i>
  <i type="int" name="I_CONSTRAINED_M">     0</i>
  <separator name="electronic exchange-correlation" >
   <i type="string" name="GGA">PS</i>
   <i type="int" name="VOSKOWN">     0</i>
   <i type="logical" name="LHFCALC"> F  </i>
   <i type="string" name="PRECFOCK"></i>
   <i type="logical" name="LSYMGRAD"> F  </i>
   <i type="logical" name="LHFONE"> F  </i>
   <i type="logical" name="LRHFCALC"> F  </i>
   <i type="logical" name="LTHOMAS"> F  </i>
   <i type="logical" name="LMODELHF"> F  </i>
   <i type="logical" name="LFOCKACE"> F  </i>
   <i name="ENCUT4O">     -1.00000000</i>
   <i type="int" name="EXXOEP">     0</i>
   <i type="int" name="FOURORBIT">     0</i>
   <i name="AEXX">      0.00000000</i>
   <i name="HFALPHA">      0.00000000</i>
   <i name="MCALPHA">      0.00000000</i>
   <i name="ALDAX">      1.00000000</i>
   <i name="AGGAX">      1.00000000</i>
   <i name="ALDAC">      1.00000000</i>
   <i name="AGGAC">      1.00000000</i>
   <i type="int" name="NKREDX">     1</i>
   <i type="int" name="NKREDY">     1</i>
   <i type="int" name="NKREDZ">     1</i>
   <i type="logical" name="SHIFTRED"> F  </i>
   <i type="logical" name="ODDONLY"> F  </i>
   <i type="logical" name="EVENONLY"> F  </i>
   <i type="int" name="LMAXFOCK">     0</i>
   <i type="int" name="NMAXFOCKAE">     0</i>
   <i type="logical" name="LFOCKAEDFT"> F  </i>
   <i name="HFSCREEN">      0.00000000</i>
   <i name="HFSCREENC">      0.00000000</i>
   <i type="int" name="NBANDSGWLOW">     0</i>
  </separator>
  <separator name="vdW DFT" >
   <i type="logical" name="LUSE_VDW"> F  </i>
   <i name="Zab_VDW">     -0.84910000</i>
   <i name="PARAM1">      0.12340000</i>
   <i name="PARAM2">      1.00000000</i>
   <i name="PARAM3">      0.00000000</i>
  </separator>
  <separator name="model GW" >
   <i type="int" name="MODEL_GW">     0</i>
   <i name="MODEL_EPS0">     12.58531737</i>
   <i name="MODEL_ALPHA">      1.00000000</i>
  </separator>
  <separator name="linear response parameters" >
   <i type="logical" name="LEPSILON"> F  </i>
   <i type="logical" name="LRPA"> F  </i>
   <i type="logical" name="LNABLA"> F  </i>
   <i type="logical" name="LVEL"> F  </i>
   <i type="int" name="KINTER">     0</i>
   <i name="CSHIFT">      0.10000000</i>
   <i name="OMEGAMAX">     -1.00000000</i>
   <i name="DEG_THRESHOLD">      0.00200000</i>
   <i name="RTIME">     -0.10000000</i>
   <i name="WPLASMAI">      0.00000000</i>
   <v name="DFIELD">      0.00000000      0.00000000      0.00000000</v>
   <v name="WPLASMA">      0.00000000      0.00000000      0.00000000      0.00000000      0.00000000      0.00000000      0.00000000      0.00000000      0.00000000</v>
  </separator>
  <separator name="orbital magnetization" >
   <i type="logical" name="NUCIND"> F  </i>
   <v name="MAGPOS">      0.00000000      0.00000000      0.00000000</v>
   <i type="logical" name="LNICSALL"> T  </i>
   <i type="logical" name="ORBITALMAG"> F  </i>
   <i type="logical" name="LMAGBLOCH"> F  </i>
   <i type="logical" name="LCHIMAG"> F  </i>
   <i type="logical" name="LGAUGE"> T  </i>
   <i type="int" name="MAGATOM">     0</i>
   <v name="MAGDIPOL">      0.00000000      0.00000000      0.00000000</v>
   <v name="AVECCONST">      0.00000000      0.00000000      0.00000000</v>
  </separator>
  <separator name="response functions" >
   <i type="logical" name="LFINITE_TEMPERATURE"> F  </i>
   <i type="logical" name="LADDER"> F  </i>
   <i type="logical" name="LRPAFORCE"> F  </i>
   <i type="logical" name="LFXC"> F  </i>
   <i type="logical" name="LHARTREE"> T  </i>
   <i type="int" name="IBSE">     0</i>
   <v type="int" name="KPOINT">    -1     0     0     0</v>
   <i type="logical" name="LTCTC"> F  </i>
   <i type="logical" name="LTCTE"> F  </i>
   <i type="logical" name="LTETE"> F  </i>
   <i type="logical" name="LTRIPLET"> F  </i>
   <i type="logical" name="LFXCEPS"> F  </i>
   <i type="logical" name="LFXHEG"> F  </i>
   <i type="int" name="NATURALO">     2</i>
   <i type="logical" name="L2ORDER"> F  </i>
   <i type="logical" name="LDMP1"> F  </i>
   <i type="logical" name="LMP2LT"> F  </i>
   <i type="logical" name="LSMP2LT"> F  </i>
   <i type="logical" name="LUSEW"> F  </i>
   <i name="ENCUTGW">     -2.00000000</i>
   <i name="ENCUTGWSOFT">     -2.00000000</i>
   <i name="ENCUTLF">     -1.00000000</i>
   <i type="int" name="LMAXMP2">    -1</i>
   <i name="SCISSOR">      0.00000000</i>
   <i type="int" name="NOMEGA">     0</i>
   <i type="int" name="NOMEGAR">     0</i>
   <i type="int" name="NBANDSGW">    -1</i>
   <i type="int" name="NBANDSO">    -1</i>
   <i type="int" name="NBANDSV">    -1</i>
   <i type="int" name="NELM">     1</i>
   <i type="int" name="NELMHF">     1</i>
   <i type="int" name="DIM">     3</i>
   <i type="int" name="IESPILON">     4</i>
   <i type="int" name="ANTIRES">     0</i>
   <i name="OMEGAMAX">    -30.00000000</i>
   <i name="OMEGAMIN">    -30.00000000</i>
   <i name="OMEGATL">   -200.00000000</i>
   <i type="int" name="OMEGAGRID">   145</i>
   <i name="CSHIFT">     -0.10000000</i>
   <i type="logical" name="LSELFENERGY"> F  </i>
   <i type="logical" name="LSPECTRAL"> F  </i>
   <i type="logical" name="LSPECTRALGW"> F  </i>
   <i type="logical" name="LSINGLES"> F  </i>
   <i type="logical" name="LFERMIGW"> F  </i>
   <i type="logical" name="ODDONLYGW"> F  </i>
   <i type="logical" name="EVENONLYGW"> F  </i>
   <i type="int" name="NKREDLFX">     1</i>
   <i type="int" name="NKREDLFY">     1</i>
   <i type="int" name="NKREDLFZ">     1</i>
   <i type="int" name="MAXMEM">  2800</i>
   <i type="int" name="TELESCOPE">     0</i>
   <i type="int" name="NTAUPAR">     1</i>
   <i type="int" name="NOMEGAPAR">    -1</i>
   <i name="LAMBDA">      1.00000000</i>
  </separator>
  <separator name="External order field" >
   <i name="OFIELD_KAPPA">      0.00000000</i>
   <v name="OFIELD_K">      0.00000000      0.00000000      0.00000000</v>
   <i name="OFIELD_Q6_NEAR">      0.00000000</i>
   <i name="OFIELD_Q6_FAR">      0.00000000</i>
   <i name="OFIELD_A">      0.00000000</i>
  </separator>
 </parameters>
 <atominfo>
  <atoms>       3 </atoms>
  <types>       3 </types>
  <array name="atoms" >
   <dimension dim="1">ion</dimension>
   <field type="string">element</field>
   <field type="int">atomtype</field>
   <set>
    <rc><c>Hf</c><c>   1</c></rc>
    <rc><c>Sb</c><c>   2</c></rc>
    <rc><c>Pt</c><c>   3</c></rc>
   </set>
  </array>
  <array name="atomtypes" >
   <dimension dim="1">type</dimension>
   <field type="int">atomspertype</field>
   <field type="string">element</field>
   <field>mass</field>
   <field>valence</field>
   <field type="string">pseudopotential</field>
   <set>
    <rc><c>   1</c><c>Hf</c><c>    178.49000000</c><c>     10.00000000</c><c>  PAW_PBE Hf_pv 06Sep2000               </c></rc>
    <rc><c>   1</c><c>Sb</c><c>    121.75000000</c><c>      5.00000000</c><c>  PAW_PBE Sb 06Sep2000                  </c></rc>
    <rc><c>   1</c><c>Pt</c><c>    195.08000000</c><c>     10.00000000</c><c>  PAW_PBE Pt 04Feb2005                  </c></rc>
   </set>
  </array>
 </atominfo>
 <structure name="initialpos" >
  <crystal>
   <varray name="basis" >
    <v>       0.00000000       3.15695259       3.15695259 </v>
    <v>       3.15695259       0.00000000       3.15695259 </v>
    <v>       3.15695259       3.15695259       0.00000000 </v>
   </varray>
   <i name="volume">     62.92658685 </i>
   <varray name="rec_basis" >
    <v>      -0.15838059       0.15838059       0.15838059 </v>
    <v>       0.15838059      -0.15838059       0.15838059 </v>
    <v>       0.15838059       0.15838059      -0.15838059 </v>
   </varray>
  </crystal>
  <varray name="positions" >
   <v>       0.75000000       0.75000000       0.75000000 </v>
   <v>       0.25000000       0.25000000       0.25000000 </v>
   <v>       0.00000000       0.00000000       0.00000000 </v>
  </varray>
 </structure>
 <calculation>
  <scstep>
   <time name="dav">    0.93    0.93</time>
   <time name="total">    1.07    1.41</time>
   <energy>
    <i name="alphaZ">    108.26510489 </i>
    <i name="ewald">  -1574.95541012 </i>
    <i name="hartreedc">   -320.10999928 </i>
    <i name="XCdc">    -18.81233998 </i>
    <i name="pawpsdc">   1514.36848356 </i>
    <i name="pawaedc">  -1421.27055995 </i>
    <i name="eentropy">     -0.00011585 </i>
    <i name="bandstr">    111.41954409 </i>
    <i name="atom">   1741.10451121 </i>
    <i name="e_fr_energy">    140.00921856 </i>
    <i name="e_wo_entrp">    140.00933440 </i>
    <i name="e_0_energy">    140.00927648 </i>
   </energy>
  </scstep>
  <scstep>
   <time name="dav">    1.07    1.10</time>
   <time name="total">    1.07    1.10</time>
   <energy>
    <i name="e_fr_energy">    -20.36397461 </i>
    <i name="e_wo_entrp">    -20.36377010 </i>
    <i name="e_0_energy">    -20.36387235 </i>
   </energy>
  </scstep>
  <scstep>
   <time name="dav">    1.12    1.16</time>
   <time name="total">    1.12    1.16</time>
   <energy>
    <i name="e_fr_energy">    -24.88662228 </i>
    <i name="e_wo_entrp">    -24.88637954 </i>
    <i name="e_0_energy">    -24.88650091 </i>
   </energy>
  </scstep>
  <scstep>
   <time name="dav">    1.08    1.10</time>
   <time name="total">    1.08    1.10</time>
   <energy>
    <i name="e_fr_energy">    -24.95040241 </i>
    <i name="e_wo_entrp">    -24.95024989 </i>
    <i name="e_0_energy">    -24.95032615 </i>
   </energy>
  </scstep>
  <scstep>
   <time name="dav">    1.13    1.16</time>
   <time name="total">    1.39    1.41</time>
   <energy>
    <i name="e_fr_energy">    -24.95183482 </i>
    <i name="e_wo_entrp">    -24.95168835 </i>
    <i name="e_0_energy">    -24.95176158 </i>
   </energy>
  </scstep>
  <scstep>
   <time name="dav">    1.11    1.11</time>
   <time name="total">    1.46    1.49</time>
   <energy>
    <i name="e_fr_energy">    -24.21830467 </i>
    <i name="e_wo_entrp">    -24.21820090 </i>
    <i name="e_0_energy">    -24.21825278 </i>
   </energy>
  </scstep>
  <scstep>
   <time name="dav">    1.15    1.16</time>
   <time name="total">    1.46    1.50</time>
   <energy>
    <i name="e_fr_energy">    -24.08420021 </i>
    <i name="e_wo_entrp">    -24.08386586 </i>
    <i name="e_0_energy">    -24.08403304 </i>
   </energy>
  </scstep>
  <scstep>
   <time name="dav">    1.08    1.08</time>
   <time name="total">    1.43    1.49</time>
   <energy>
    <i name="e_fr_energy">    -24.05545325 </i>
    <i name="e_wo_entrp">    -24.05520158 </i>
    <i name="e_0_energy">    -24.05532742 </i>
   </energy>
  </scstep>
  <scstep>
   <time name="dav">    0.96    0.96</time>
   <time name="total">    1.29    1.32</time>
   <energy>
    <i name="e_fr_energy">    -24.04735555 </i>
    <i name="e_wo_entrp">    -24.04704102 </i>
    <i name="e_0_energy">    -24.04719828 </i>
   </energy>
  </scstep>
  <scstep>
   <time name="dav">    1.13    1.13</time>
   <time name="total">    1.44    1.48</time>
   <energy>
    <i name="e_fr_energy">    -24.04715053 </i>
    <i name="e_wo_entrp">    -24.04685224 </i>
    <i name="e_0_energy">    -24.04700138 </i>
   </energy>
  </scstep>
  <scstep>
   <time name="dav">    1.02    1.02</time>
   <time name="total">    1.35    1.38</time>
   <energy>
    <i name="e_fr_energy">    -24.04709968 </i>
    <i name="e_wo_entrp">    -24.04680364 </i>
    <i name="e_0_energy">    -24.04695166 </i>
   </energy>
  </scstep>
  <scstep>
   <time name="dav">    1.13    1.13</time>
   <time name="total">    1.45    1.51</time>
   <energy>
    <i name="e_fr_energy">    -24.04709663 </i>
    <i name="e_wo_entrp">    -24.04679796 </i>
    <i name="e_0_energy">    -24.04694730 </i>
   </energy>
  </scstep>
  <scstep>
   <time name="dav">    0.96    0.96</time>
   <time name="total">    1.27    1.30</time>
   <energy>
    <i name="e_fr_energy">    -24.04709518 </i>
    <i name="e_wo_entrp">    -24.04679737 </i>
    <i name="e_0_energy">    -24.04694627 </i>
   </energy>
  </scstep>
  <scstep>
   <time name="dav">    1.05    1.05</time>
   <time name="total">    1.19    1.22</time>
   <energy>
    <i name="alphaZ">    108.26510489 </i>
    <i name="ewald">  -1574.95541012 </i>
    <i name="hartreedc">   -299.35082043 </i>
    <i name="XCdc">    -19.40734564 </i>
    <i name="pawpsdc">   2712.25718577 </i>
    <i name="pawaedc">  -2624.67594604 </i>
    <i name="eentropy">     -0.00029786 </i>
    <i name="bandstr">    -67.28407692 </i>
    <i name="atom">   1741.10451121 </i>
    <i name="e_fr_energy">    -24.04709515 </i>
    <i name="e_wo_entrp">    -24.04679729 </i>
    <i name="e_0_energy">    -24.04694622 </i>
   </energy>
  </scstep>
  <structure>
   <crystal>
    <varray name="basis" >
     <v>       0.00000000       3.15695259       3.15695259 </v>
     <v>       3.15695259       0.00000000       3.15695259 </v>
     <v>       3.15695259       3.15695259       0.00000000 </v>
    </varray>
    <i name="volume">     62.92658685 </i>
    <varray name="rec_basis" >
     <v>      -0.15838059       0.15838059       0.15838059 </v>
     <v>       0.15838059      -0.15838059       0.15838059 </v>
     <v>       0.15838059       0.15838059      -0.15838059 </v>
    </varray>
   </crystal>
   <varray name="positions" >
    <v>       0.75000000       0.75000000       0.75000000 </v>
    <v>       0.25000000       0.25000000       0.25000000 </v>
    <v>       0.00000000       0.00000000       0.00000000 </v>
   </varray>
  </structure>
  <varray name="forces" >
   <v>      -0.00000000      -0.00000000      -0.00000000 </v>
   <v>      -0.00000000      -0.00000000      -0.00000000 </v>
   <v>       0.00000000       0.00000000       0.00000000 </v>
  </varray>
  <varray name="stress" >
   <v>      28.62075833       0.00000000       0.00000000 </v>
   <v>       0.00000000      28.62075833       0.00000000 </v>
   <v>       0.00000000      -0.00000000      28.62075833 </v>
  </varray>
  <energy>
   <i name="e_fr_energy">    -24.04709515 </i>
   <i name="e_wo_entrp">    -24.04694622 </i>
   <i name="e_0_energy">     -0.00029786 </i>
  </energy>
  <time name="totalsc">   21.58   23.21</time>
  <eigenvalues>
   <array>
    <dimension dim="1">band</dimension>
    <dimension dim="2">kpoint</dimension>
    <dimension dim="3">spin</dimension>
    <field>eigene</field>
    <field>occ</field>
    <set>
     <set comment="spin 1">
      <set comment="kpoint 1">
       <r>  -22.9720    1.0000 </r>
       <r>  -22.9720    1.0000 </r>
       <r>  -22.9720    1.0000 </r>
       <r>   -3.7534    1.0000 </r>
       <r>    3.0324    1.0000 </r>
       <r>    3.0324    1.0000 </r>
       <r>    3.0324    1.0000 </r>
       <r>    3.8483    1.0000 </r>
       <r>    3.8483    1.0000 </r>
       <r>    7.5240    1.0000 </r>
       <r>    7.5240    1.0000 </r>
       <r>    7.5240    1.0000 </r>
       <r>    8.3775    1.0000 </r>
       <r>   10.1430    0.0000 </r>
       <r>   10.1430    0.0000 </r>
       <r>   10.1430    0.0000 </r>
      </set>
      <set comment="kpoint 2">
       <r>  -22.9732    1.0000 </r>
       <r>  -22.9719    1.0000 </r>
       <r>  -22.9719    1.0000 </r>
       <r>   -3.6866    1.0000 </r>
       <r>    2.9544    1.0000 </r>
       <r>    3.0019    1.0000 </r>
       <r>    3.0019    1.0000 </r>
       <r>    3.8917    1.0000 </r>
       <r>    3.8917    1.0000 </r>
       <r>    6.9862    1.0000 </r>
       <r>    7.4582    1.0000 </r>
       <r>    7.4582    1.0000 </r>
       <r>    8.5854    1.0000 </r>
       <r>    9.9775    0.0000 </r>
       <r>    9.9775    0.0000 </r>
       <r>   10.5433    0.0000 </r>
      </set>
      <set comment="kpoint 3">
       <r>  -22.9764    1.0000 </r>
       <r>  -22.9718    1.0000 </r>
       <r>  -22.9718    1.0000 </r>
       <r>   -3.4928    1.0000 </r>
       <r>    2.7371    1.0000 </r>
       <r>    2.9377    1.0000 </r>
       <r>    2.9377    1.0000 </r>
       <r>    3.9870    1.0000 </r>
       <r>    3.9870    1.0000 </r>
       <r>    6.1108    1.0000 </r>
       <r>    7.2935    1.0000 </r>
       <r>    7.2935    1.0000 </r>
       <r>    8.7945    1.0000 </r>
       <r>    9.8744    0.0000 </r>
       <r>    9.8744    0.0000 </r>
       <r>   11.3384    0.0000 </r>
      </set>
      <set comment="kpoint 4">
       <r>  -22.9810    1.0000 </r>
       <r>  -22.9715    1.0000 </r>
       <r>  -22.9715    1.0000 </r>
       <r>   -3.1941    1.0000 </r>
       <r>    2.4159    1.0000 </r>
       <r>    2.8805    1.0000 </r>
       <r>    2.8805    1.0000 </r>
       <r>    4.0744    1.0000 </r>
       <r>    4.0744    1.0000 </r>
       <r>    5.3042    1.0000 </r>
       <r>    7.1024    1.0000 </r>
       <r>    7.1024    1.0000 </r>
       <r>    8.9604    1.0000 </r>
       <r>    9.9036    0.0000 </r>
       <r>    9.9036    0.0000 </r>
       <r>   12.0016    0.0000 </r>
      </set>
      <set comment="kpoint 5">
       <r>  -22.9858    1.0000 </r>
       <r>  -22.9713    1.0000 </r>
       <r>  -22.9713    1.0000 </r>
       <r>   -2.8322    1.0000 </r>
       <r>    2.0319    1.0000 </r>
       <r>    2.8495    1.0000 </r>
       <r>    2.8495    1.0000 </r>
       <r>    4.1164    1.0000 </r>
       <r>    4.1164    1.0000 </r>
       <r>    4.6830    1.0000 </r>
       <r>    6.9481    1.0000 </r>
       <r>    6.9481    1.0000 </r>
       <r>    9.1118    1.0000 </r>
       <r>   10.0333    0.0000 </r>
       <r>   10.0333    0.0000 </r>
       <r>   11.5423    0.0000 </r>
      </set>
      <set comment="kpoint 6">
       <r>  -22.9897    1.0000 </r>
       <r>  -22.9711    1.0000 </r>
       <r>  -22.9711    1.0000 </r>
       <r>   -2.4795    1.0000 </r>
       <r>    1.6541    1.0000 </r>
       <r>    2.8433    1.0000 </r>
       <r>    2.8433    1.0000 </r>
       <r>    4.1128    1.0000 </r>
       <r>    4.1128    1.0000 </r>
       <r>    4.2840    1.0000 </r>
       <r>    6.8557    1.0000 </r>
       <r>    6.8557    1.0000 </r>
       <r>    9.2648    0.2011 </r>
       <r>   10.2132    0.0000 </r>
       <r>   10.2132    0.0000 </r>
       <r>   10.7833    0.0000 </r>
      </set>
      <set comment="kpoint 7">
       <r>  -22.9919    1.0000 </r>
       <r>  -22.9709    1.0000 </r>
       <r>  -22.9709    1.0000 </r>
       <r>   -2.2476    1.0000 </r>
       <r>    1.4038    1.0000 </r>
       <r>    2.8476    1.0000 </r>
       <r>    2.8476    1.0000 </r>
       <r>    4.0949    1.0000 </r>
       <r>    4.0949    1.0000 </r>
       <r>    4.0953    1.0000 </r>
       <r>    6.8170    1.0000 </r>
       <r>    6.8170    1.0000 </r>
       <r>    9.4096    0.0000 </r>
       <r>   10.2952    0.0000 </r>
       <r>   10.3554    0.0000 </r>
       <r>   10.3554    0.0000 </r>
      </set>
      <set comment="kpoint 8">
       <r>  -22.9732    1.0000 </r>
       <r>  -22.9721    1.0000 </r>
       <r>  -22.9721    1.0000 </r>
       <r>   -3.6647    1.0000 </r>
       <r>    2.8074    1.0000 </r>
       <r>    3.0638    1.0000 </r>
       <r>    3.0638    1.0000 </r>
       <r>    3.8824    1.0000 </r>
       <r>    3.9111    1.0000 </r>
       <r>    7.0332    1.0000 </r>
       <r>    7.3259    1.0000 </r>
       <r>    7.3259    1.0000 </r>
       <r>    8.6453    1.0000 </r>
       <r>    9.8521    0.0000 </r>
       <r>   10.4317    0.0000 </r>
       <r>   10.4318    0.0000 </r>
      </set>
      <set comment="kpoint 9">
       <r>  -22.9756    1.0000 </r>
       <r>  -22.9722    1.0000 </r>
       <r>  -22.9720    1.0000 </r>
       <r>   -3.5144    1.0000 </r>
       <r>    2.5930    1.0000 </r>
       <r>    3.0388    1.0000 </r>
       <r>    3.0652    1.0000 </r>
       <r>    3.9502    1.0000 </r>
       <r>    3.9732    1.0000 </r>
       <r>    6.3682    1.0000 </r>
       <r>    7.1332    1.0000 </r>
       <r>    7.2070    1.0000 </r>
       <r>    8.8672    1.0000 </r>
       <r>    9.7038    0.0000 </r>
       <r>   10.1401    0.0000 </r>
       <r>   10.9343    0.0000 </r>
      </set>
      <set comment="kpoint 10">
       <r>  -22.9796    1.0000 </r>
       <r>  -22.9721    1.0000 </r>
       <r>  -22.9717    1.0000 </r>
       <r>   -3.2527    1.0000 </r>
       <r>    2.3475    1.0000 </r>
       <r>    2.9419    1.0000 </r>
       <r>    3.0315    1.0000 </r>
       <r>    4.0422    1.0000 </r>
       <r>    4.0536    1.0000 </r>
       <r>    5.5712    1.0000 </r>
       <r>    6.9504    1.0000 </r>
       <r>    7.0360    1.0000 </r>
       <r>    9.1275    1.0000 </r>
       <r>    9.6931    0.0000 </r>
       <r>   10.0202    0.0000 </r>
       <r>   11.5173    0.0000 </r>
      </set>
      <set comment="kpoint 11">
       <r>  -22.9842    1.0000 </r>
       <r>  -22.9719    1.0000 </r>
       <r>  -22.9716    1.0000 </r>
       <r>   -2.9145    1.0000 </r>
       <r>    2.0598    1.0000 </r>
       <r>    2.8480    1.0000 </r>
       <r>    2.9929    1.0000 </r>
       <r>    4.1007    1.0000 </r>
       <r>    4.1124    1.0000 </r>
       <r>    4.8936    1.0000 </r>
       <r>    6.8229    1.0000 </r>
       <r>    6.8629    1.0000 </r>
       <r>    9.2213    1.0000 </r>
       <r>    9.9500    0.0000 </r>
       <r>   10.0308    0.0000 </r>
       <r>   11.6254    0.0000 </r>
      </set>
      <set comment="kpoint 12">
       <r>  -22.9883    1.0000 </r>
       <r>  -22.9716    1.0000 </r>
       <r>  -22.9716    1.0000 </r>
       <r>   -2.5606    1.0000 </r>
       <r>    1.7464    1.0000 </r>
       <r>    2.8017    1.0000 </r>
       <r>    2.9566    1.0000 </r>
       <r>    4.1129    1.0000 </r>
       <r>    4.1242    1.0000 </r>
       <r>    4.4216    1.0000 </r>
       <r>    6.7355    1.0000 </r>
       <r>    6.7604    1.0000 </r>
       <r>    9.2776    0.0040 </r>
       <r>   10.1524    0.0000 </r>
       <r>   10.2604    0.0000 </r>
       <r>   10.9667    0.0000 </r>
      </set>
      <set comment="kpoint 13">
       <r>  -22.9910    1.0000 </r>
       <r>  -22.9717    1.0000 </r>
       <r>  -22.9713    1.0000 </r>
       <r>   -2.2867    1.0000 </r>
       <r>    1.4907    1.0000 </r>
       <r>    2.8070    1.0000 </r>
       <r>    2.9139    1.0000 </r>
       <r>    4.0777    1.0000 </r>
       <r>    4.1093    1.0000 </r>
       <r>    4.1906    1.0000 </r>
       <r>    6.6616    1.0000 </r>
       <r>    6.7452    1.0000 </r>
       <r>    9.3889    0.0000 </r>
       <r>   10.2311    0.0000 </r>
       <r>   10.3148    0.0000 </r>
       <r>   10.6564    0.0000 </r>
      </set>
      <set comment="kpoint 14">
       <r>  -22.9916    1.0000 </r>
       <r>  -22.9719    1.0000 </r>
       <r>  -22.9710    1.0000 </r>
       <r>   -2.2060    1.0000 </r>
       <r>    1.4146    1.0000 </r>
       <r>    2.8487    1.0000 </r>
       <r>    2.8587    1.0000 </r>
       <r>    4.0337    1.0000 </r>
       <r>    4.1223    1.0000 </r>
       <r>    4.1515    1.0000 </r>
       <r>    6.6224    1.0000 </r>
       <r>    6.7626    1.0000 </r>
       <r>    9.4794    0.0000 </r>
       <r>   10.0390    0.0000 </r>
       <r>   10.3852    0.0000 </r>
       <r>   10.7087    0.0000 </r>
      </set>
      <set comment="kpoint 15">
       <r>  -22.9902    1.0000 </r>
       <r>  -22.9721    1.0000 </r>
       <r>  -22.9709    1.0000 </r>
       <r>   -2.3612    1.0000 </r>
       <r>    1.5673    1.0000 </r>
       <r>    2.8015    1.0000 </r>
       <r>    2.9096    1.0000 </r>
       <r>    4.0622    1.0000 </r>
       <r>    4.1510    1.0000 </r>
       <r>    4.2454    1.0000 </r>
       <r>    6.5991    1.0000 </r>
       <r>    6.8193    1.0000 </r>
       <r>    9.3903    0.0000 </r>
       <r>   10.2587    0.0000 </r>
       <r>   10.2839    0.0000 </r>
       <r>   10.7041    0.0000 </r>
      </set>
      <set comment="kpoint 16">
       <r>  -22.9870    1.0000 </r>
       <r>  -22.9724    1.0000 </r>
       <r>  -22.9709    1.0000 </r>
       <r>   -2.6744    1.0000 </r>
       <r>    1.8684    1.0000 </r>
       <r>    2.7648    1.0000 </r>
       <r>    2.9783    1.0000 </r>
       <r>    4.0780    1.0000 </r>
       <r>    4.1653    1.0000 </r>
       <r>    4.5605    1.0000 </r>
       <r>    6.5976    1.0000 </r>
       <r>    6.9347    1.0000 </r>
       <r>    9.3159    0.0000 </r>
       <r>   10.0785    0.0000 </r>
       <r>   10.1960    0.0000 </r>
       <r>   11.1992    0.0000 </r>
      </set>
      <set comment="kpoint 17">
       <r>  -22.9826    1.0000 </r>
       <r>  -22.9725    1.0000 </r>
       <r>  -22.9711    1.0000 </r>
       <r>   -3.0320    1.0000 </r>
       <r>    2.2066    1.0000 </r>
       <r>    2.7674    1.0000 </r>
       <r>    3.0468    1.0000 </r>
       <r>    4.0551    1.0000 </r>
       <r>    4.1370    1.0000 </r>
       <r>    5.1018    1.0000 </r>
       <r>    6.6503    1.0000 </r>
       <r>    7.1135    1.0000 </r>
       <r>    9.2704    0.0511 </r>
       <r>    9.8671    0.0000 </r>
       <r>   10.0212    0.0000 </r>
       <r>   11.5139    0.0000 </r>
      </set>
      <set comment="kpoint 18">
       <r>  -22.9782    1.0000 </r>
       <r>  -22.9725    1.0000 </r>
       <r>  -22.9713    1.0000 </r>
       <r>   -3.3502    1.0000 </r>
       <r>    2.5182    1.0000 </r>
       <r>    2.8167    1.0000 </r>
       <r>    3.0975    1.0000 </r>
       <r>    3.9897    1.0000 </r>
       <r>    4.0634    1.0000 </r>
       <r>    5.8199    1.0000 </r>
       <r>    6.7965    1.0000 </r>
       <r>    7.3169    1.0000 </r>
       <r>    9.1179    1.0000 </r>
       <r>    9.7278    0.0000 </r>
       <r>   10.0061    0.0000 </r>
       <r>   11.0171    0.0000 </r>
      </set>
      <set comment="kpoint 19">
       <r>  -22.9748    1.0000 </r>
       <r>  -22.9723    1.0000 </r>
       <r>  -22.9717    1.0000 </r>
       <r>   -3.5778    1.0000 </r>
       <r>    2.7778    1.0000 </r>
       <r>    2.9043    1.0000 </r>
       <r>    3.0902    1.0000 </r>
       <r>    3.9200    1.0000 </r>
       <r>    3.9678    1.0000 </r>
       <r>    6.5491    1.0000 </r>
       <r>    7.0890    1.0000 </r>
       <r>    7.4582    1.0000 </r>
       <r>    8.8210    1.0000 </r>
       <r>    9.7433    0.0000 </r>
       <r>   10.1394    0.0000 </r>
       <r>   10.5678    0.0000 </r>
      </set>
      <set comment="kpoint 20">
       <r>  -22.9764    1.0000 </r>
       <r>  -22.9725    1.0000 </r>
       <r>  -22.9725    1.0000 </r>
       <r>   -3.4125    1.0000 </r>
       <r>    2.3405    1.0000 </r>
       <r>    3.1525    1.0000 </r>
       <r>    3.1525    1.0000 </r>
       <r>    3.9550    1.0000 </r>
       <r>    3.9800    1.0000 </r>
       <r>    6.3226    1.0000 </r>
       <r>    6.9200    1.0000 </r>
       <r>    6.9200    1.0000 </r>
       <r>    8.8052    1.0000 </r>
       <r>    9.7481    0.0000 </r>
       <r>   10.1945    0.0000 </r>
       <r>   11.0501    0.0000 </r>
      </set>
      <set comment="kpoint 21">
       <r>  -22.9794    1.0000 </r>
       <r>  -22.9726    1.0000 </r>
       <r>  -22.9726    1.0000 </r>
       <r>   -3.1997    1.0000 </r>
       <r>    2.1061    1.0000 </r>
       <r>    3.1434    1.0000 </r>
       <r>    3.1797    1.0000 </r>
       <r>    3.9770    1.0000 </r>
       <r>    4.0593    1.0000 </r>
       <r>    5.7877    1.0000 </r>
       <r>    6.7307    1.0000 </r>
       <r>    6.7365    1.0000 </r>
       <r>    8.9951    1.0000 </r>
       <r>    9.7370    0.0000 </r>
       <r>   10.0482    0.0000 </r>
       <r>   11.4047    0.0000 </r>
      </set>
      <set comment="kpoint 22">
       <r>  -22.9832    1.0000 </r>
       <r>  -22.9727    1.0000 </r>
       <r>  -22.9726    1.0000 </r>
       <r>   -2.9059    1.0000 </r>
       <r>    1.9041    1.0000 </r>
       <r>    3.0362    1.0000 </r>
       <r>    3.1646    1.0000 </r>
       <r>    4.0384    1.0000 </r>
       <r>    4.1289    1.0000 </r>
       <r>    5.1433    1.0000 </r>
       <r>    6.5481    1.0000 </r>
       <r>    6.6122    1.0000 </r>
       <r>    9.2106    1.0000 </r>
       <r>    9.9464    0.0000 </r>
       <r>    9.9738    0.0000 </r>
       <r>   11.5329    0.0000 </r>
      </set>
      <set comment="kpoint 23">
       <r>  -22.9869    1.0000 </r>
       <r>  -22.9730    1.0000 </r>
       <r>  -22.9723    1.0000 </r>
       <r>   -2.5826    1.0000 </r>
       <r>    1.7339    1.0000 </r>
       <r>    2.9048    1.0000 </r>
       <r>    3.1210    1.0000 </r>
       <r>    4.0900    1.0000 </r>
       <r>    4.1569    1.0000 </r>
       <r>    4.6095    1.0000 </r>
       <r>    6.3870    1.0000 </r>
       <r>    6.5695    1.0000 </r>
       <r>    9.2305    1.0000 </r>
       <r>   10.0406    0.0000 </r>
       <r>   10.4318    0.0000 </r>
       <r>   11.0518    0.0000 </r>
      </set>
      <set comment="kpoint 24">
       <r>  -22.9894    1.0000 </r>
       <r>  -22.9736    1.0000 </r>
       <r>  -22.9719    1.0000 </r>
       <r>   -2.3074    1.0000 </r>
       <r>    1.6005    1.0000 </r>
       <r>    2.8138    1.0000 </r>
       <r>    3.0469    1.0000 </r>
       <r>    4.0671    1.0000 </r>
       <r>    4.1658    1.0000 </r>
       <r>    4.3111    1.0000 </r>
       <r>    6.2741    1.0000 </r>
       <r>    6.5736    1.0000 </r>
       <r>    9.2749    0.0116 </r>
       <r>   10.2263    0.0000 </r>
       <r>   10.3946    0.0000 </r>
       <r>   10.9277    0.0000 </r>
      </set>
      <set comment="kpoint 25">
       <r>  -22.9904    1.0000 </r>
       <r>  -22.9742    1.0000 </r>
       <r>  -22.9715    1.0000 </r>
       <r>   -2.1733    1.0000 </r>
       <r>    1.5385    1.0000 </r>
       <r>    2.8051    1.0000 </r>
       <r>    2.9452    1.0000 </r>
       <r>    3.9805    1.0000 </r>
       <r>    4.1873    1.0000 </r>
       <r>    4.2646    1.0000 </r>
       <r>    6.1967    1.0000 </r>
       <r>    6.6034    1.0000 </r>
       <r>    9.4168    0.0000 </r>
       <r>    9.9981    0.0000 </r>
       <r>   10.3978    0.0000 </r>
       <r>   11.1910    0.0000 </r>
      </set>
      <set comment="kpoint 26">
       <r>  -22.9896    1.0000 </r>
       <r>  -22.9746    1.0000 </r>
       <r>  -22.9711    1.0000 </r>
       <r>   -2.2389    1.0000 </r>
       <r>    1.5908    1.0000 </r>
       <r>    2.8373    1.0000 </r>
       <r>    2.8855    1.0000 </r>
       <r>    3.9839    1.0000 </r>
       <r>    4.2192    1.0000 </r>
       <r>    4.3279    1.0000 </r>
       <r>    6.1259    1.0000 </r>
       <r>    6.6687    1.0000 </r>
       <r>    9.4986    0.0000 </r>
       <r>   10.0518    0.0000 </r>
       <r>   10.3827    0.0000 </r>
       <r>   11.1681    0.0000 </r>
      </set>
      <set comment="kpoint 27">
       <r>  -22.9873    1.0000 </r>
       <r>  -22.9748    1.0000 </r>
       <r>  -22.9709    1.0000 </r>
       <r>   -2.4749    1.0000 </r>
       <r>    1.7506    1.0000 </r>
       <r>    2.7530    1.0000 </r>
       <r>    3.0204    1.0000 </r>
       <r>    4.0291    1.0000 </r>
       <r>    4.2341    1.0000 </r>
       <r>    4.5480    1.0000 </r>
       <r>    6.0567    1.0000 </r>
       <r>    6.7933    1.0000 </r>
       <r>    9.5100    0.0000 </r>
       <r>   10.2019    0.0000 </r>
       <r>   10.4528    0.0000 </r>
       <r>   11.0156    0.0000 </r>
      </set>
      <set comment="kpoint 28">
       <r>  -22.9841    1.0000 </r>
       <r>  -22.9745    1.0000 </r>
       <r>  -22.9708    1.0000 </r>
       <r>   -2.7924    1.0000 </r>
       <r>    1.9785    1.0000 </r>
       <r>    2.7157    1.0000 </r>
       <r>    3.1433    1.0000 </r>
       <r>    4.0364    1.0000 </r>
       <r>    4.2098    1.0000 </r>
       <r>    4.9706    1.0000 </r>
       <r>    6.0476    1.0000 </r>
       <r>    6.9803    1.0000 </r>
       <r>    9.6233    0.0000 </r>
       <r>    9.9705    0.0000 </r>
       <r>   10.3039    0.0000 </r>
       <r>   11.1577    0.0000 </r>
      </set>
      <set comment="kpoint 29">
       <r>  -22.9808    1.0000 </r>
       <r>  -22.9736    1.0000 </r>
       <r>  -22.9710    1.0000 </r>
       <r>   -3.1044    1.0000 </r>
       <r>    2.2432    1.0000 </r>
       <r>    2.7373    1.0000 </r>
       <r>    3.1841    1.0000 </r>
       <r>    4.0093    1.0000 </r>
       <r>    4.1468    1.0000 </r>
       <r>    5.4654    1.0000 </r>
       <r>    6.2503    1.0000 </r>
       <r>    7.1855    1.0000 </r>
       <r>    9.6213    0.0000 </r>
       <r>    9.7812    0.0000 </r>
       <r>    9.9862    0.0000 </r>
       <r>   10.9766    0.0000 </r>
      </set>
      <set comment="kpoint 30">
       <r>  -22.9811    1.0000 </r>
       <r>  -22.9730    1.0000 </r>
       <r>  -22.9730    1.0000 </r>
       <r>   -3.0434    1.0000 </r>
       <r>    1.8832    1.0000 </r>
       <r>    3.2815    1.0000 </r>
       <r>    3.2815    1.0000 </r>
       <r>    3.8887    1.0000 </r>
       <r>    4.1268    1.0000 </r>
       <r>    5.6842    1.0000 </r>
       <r>    6.5244    1.0000 </r>
       <r>    6.5244    1.0000 </r>
       <r>    8.7750    1.0000 </r>
       <r>    9.8692    0.0000 </r>
       <r>    9.9313    0.0000 </r>
       <r>   11.5321    0.0000 </r>
      </set>
      <set comment="kpoint 31">
       <r>  -22.9839    1.0000 </r>
       <r>  -22.9734    1.0000 </r>
       <r>  -22.9732    1.0000 </r>
       <r>   -2.8093    1.0000 </r>
       <r>    1.7263    1.0000 </r>
       <r>    3.2605    1.0000 </r>
       <r>    3.3205    1.0000 </r>
       <r>    3.8933    1.0000 </r>
       <r>    4.2035    1.0000 </r>
       <r>    5.2626    1.0000 </r>
       <r>    6.3192    1.0000 </r>
       <r>    6.3909    1.0000 </r>
       <r>    8.8824    1.0000 </r>
       <r>    9.8160    0.0000 </r>
       <r>   10.0225    0.0000 </r>
       <r>   11.5380    0.0000 </r>
      </set>
      <set comment="kpoint 32">
       <r>  -22.9867    1.0000 </r>
       <r>  -22.9741    1.0000 </r>
       <r>  -22.9730    1.0000 </r>
       <r>   -2.5411    1.0000 </r>
       <r>    1.6538    1.0000 </r>
       <r>    3.1094    1.0000 </r>
       <r>    3.3007    1.0000 </r>
       <r>    3.9875    1.0000 </r>
       <r>    4.2449    1.0000 </r>
       <r>    4.7659    1.0000 </r>
       <r>    6.0822    1.0000 </r>
       <r>    6.3466    1.0000 </r>
       <r>    9.0086    1.0000 </r>
       <r>    9.8323    0.0000 </r>
       <r>   10.4494    0.0000 </r>
       <r>   11.1501    0.0000 </r>
      </set>
      <set comment="kpoint 33">
       <r>  -22.9886    1.0000 </r>
       <r>  -22.9753    1.0000 </r>
       <r>  -22.9727    1.0000 </r>
       <r>   -2.2998    1.0000 </r>
       <r>    1.6647    1.0000 </r>
       <r>    2.9311    1.0000 </r>
       <r>    3.2218    1.0000 </r>
       <r>    4.0323    1.0000 </r>
       <r>    4.2606    1.0000 </r>
       <r>    4.4129    1.0000 </r>
       <r>    5.8783    1.0000 </r>
       <r>    6.3585    1.0000 </r>
       <r>    9.0639    1.0000 </r>
       <r>   10.0305    0.0000 </r>
       <r>   10.5895    0.0000 </r>
       <r>   11.0168    0.0000 </r>
      </set>
      <set comment="kpoint 34">
       <r>  -22.9891    1.0000 </r>
       <r>  -22.9767    1.0000 </r>
       <r>  -22.9722    1.0000 </r>
       <r>   -2.1515    1.0000 </r>
       <r>    1.7212    1.0000 </r>
       <r>    2.7963    1.0000 </r>
       <r>    3.0928    1.0000 </r>
       <r>    3.9118    1.0000 </r>
       <r>    4.2810    1.0000 </r>
       <r>    4.3911    1.0000 </r>
       <r>    5.7282    1.0000 </r>
       <r>    6.3946    1.0000 </r>
       <r>    9.1773    1.0000 </r>
       <r>   10.1487    0.0000 </r>
       <r>   10.3396    0.0000 </r>
       <r>   11.2803    0.0000 </r>
      </set>
      <set comment="kpoint 35">
       <r>  -22.9883    1.0000 </r>
       <r>  -22.9778    1.0000 </r>
       <r>  -22.9716    1.0000 </r>
       <r>   -2.1442    1.0000 </r>
       <r>    1.7519    1.0000 </r>
       <r>    2.7900    1.0000 </r>
       <r>    2.9445    1.0000 </r>
       <r>    3.8726    1.0000 </r>
       <r>    4.3043    1.0000 </r>
       <r>    4.4911    1.0000 </r>
       <r>    5.6202    1.0000 </r>
       <r>    6.4632    1.0000 </r>
       <r>    9.3797    0.0000 </r>
       <r>    9.9603    0.0000 </r>
       <r>   10.4886    0.0000 </r>
       <r>   11.2101    0.0000 </r>
      </set>
      <set comment="kpoint 36">
       <r>  -22.9868    1.0000 </r>
       <r>  -22.9779    1.0000 </r>
       <r>  -22.9711    1.0000 </r>
       <r>   -2.2820    1.0000 </r>
       <r>    1.7584    1.0000 </r>
       <r>    2.8149    1.0000 </r>
       <r>    2.9222    1.0000 </r>
       <r>    3.9448    1.0000 </r>
       <r>    4.3062    1.0000 </r>
       <r>    4.6465    1.0000 </r>
       <r>    5.5553    1.0000 </r>
       <r>    6.5906    1.0000 </r>
       <r>    9.5138    0.0000 </r>
       <r>   10.2317    0.0000 </r>
       <r>   10.3728    0.0000 </r>
       <r>   11.1086    0.0000 </r>
      </set>
      <set comment="kpoint 37">
       <r>  -22.9854    1.0000 </r>
       <r>  -22.9766    1.0000 </r>
       <r>  -22.9708    1.0000 </r>
       <r>   -2.5209    1.0000 </r>
       <r>    1.8218    1.0000 </r>
       <r>    2.7331    1.0000 </r>
       <r>    3.0803    1.0000 </r>
       <r>    4.0148    1.0000 </r>
       <r>    4.2725    1.0000 </r>
       <r>    4.8390    1.0000 </r>
       <r>    5.6422    1.0000 </r>
       <r>    6.7781    1.0000 </r>
       <r>    9.6040    0.0000 </r>
       <r>   10.1653    0.0000 </r>
       <r>   10.7646    0.0000 </r>
       <r>   10.9830    0.0000 </r>
      </set>
      <set comment="kpoint 38">
       <r>  -22.9861    1.0000 </r>
       <r>  -22.9736    1.0000 </r>
       <r>  -22.9736    1.0000 </r>
       <r>   -2.6450    1.0000 </r>
       <r>    1.6141    1.0000 </r>
       <r>    3.4221    1.0000 </r>
       <r>    3.4221    1.0000 </r>
       <r>    3.7416    1.0000 </r>
       <r>    4.2969    1.0000 </r>
       <r>    5.0702    1.0000 </r>
       <r>    6.2266    1.0000 </r>
       <r>    6.2266    1.0000 </r>
       <r>    8.6906    1.0000 </r>
       <r>    9.6382    0.0000 </r>
       <r>   10.0862    0.0000 </r>
       <r>   11.4810    0.0000 </r>
      </set>
      <set comment="kpoint 39">
       <r>  -22.9883    1.0000 </r>
       <r>  -22.9741    1.0000 </r>
       <r>  -22.9737    1.0000 </r>
       <r>   -2.4490    1.0000 </r>
       <r>    1.6039    1.0000 </r>
       <r>    3.3329    1.0000 </r>
       <r>    3.4519    1.0000 </r>
       <r>    3.8070    1.0000 </r>
       <r>    4.3590    1.0000 </r>
       <r>    4.6999    1.0000 </r>
       <r>    6.0257    1.0000 </r>
       <r>    6.1564    1.0000 </r>
       <r>    8.7415    1.0000 </r>
       <r>    9.5711    0.0000 </r>
       <r>   10.3177    0.0000 </r>
       <r>   11.2013    0.0000 </r>
      </set>
      <set comment="kpoint 40">
       <r>  -22.9895    1.0000 </r>
       <r>  -22.9755    1.0000 </r>
       <r>  -22.9735    1.0000 </r>
       <r>   -2.2661    1.0000 </r>
       <r>    1.7019    1.0000 </r>
       <r>    3.1246    1.0000 </r>
       <r>    3.4009    1.0000 </r>
       <r>    3.9382    1.0000 </r>
       <r>    4.3611    1.0000 </r>
       <r>    4.3793    1.0000 </r>
       <r>    5.7282    1.0000 </r>
       <r>    6.1598    1.0000 </r>
       <r>    8.8271    1.0000 </r>
       <r>    9.7149    0.0000 </r>
       <r>   10.6750    0.0000 </r>
       <r>   10.9538    0.0000 </r>
      </set>
      <set comment="kpoint 41">
       <r>  -22.9893    1.0000 </r>
       <r>  -22.9775    1.0000 </r>
       <r>  -22.9730    1.0000 </r>
       <r>   -2.1385    1.0000 </r>
       <r>    1.8678    1.0000 </r>
       <r>    2.9069    1.0000 </r>
       <r>    3.2740    1.0000 </r>
       <r>    3.8147    1.0000 </r>
       <r>    4.3871    1.0000 </r>
       <r>    4.3998    1.0000 </r>
       <r>    5.4472    1.0000 </r>
       <r>    6.1965    1.0000 </r>
       <r>    8.9274    1.0000 </r>
       <r>   10.0926    0.0000 </r>
       <r>   10.3186    0.0000 </r>
       <r>   11.0328    0.0000 </r>
      </set>
      <set comment="kpoint 42">
       <r>  -22.9878    1.0000 </r>
       <r>  -22.9796    1.0000 </r>
       <r>  -22.9723    1.0000 </r>
       <r>   -2.0942    1.0000 </r>
       <r>    1.9740    1.0000 </r>
       <r>    2.7363    1.0000 </r>
       <r>    3.1052    1.0000 </r>
       <r>    3.7351    1.0000 </r>
       <r>    4.3872    1.0000 </r>
       <r>    4.6152    1.0000 </r>
       <r>    5.2394    1.0000 </r>
       <r>    6.2684    1.0000 </r>
       <r>    9.1135    1.0000 </r>
       <r>   10.0421    0.0000 </r>
       <r>   10.5448    0.0000 </r>
       <r>   11.0124    0.0000 </r>
      </set>
      <set comment="kpoint 43">
       <r>  -22.9865    1.0000 </r>
       <r>  -22.9802    1.0000 </r>
       <r>  -22.9716    1.0000 </r>
       <r>   -2.1447    1.0000 </r>
       <r>    1.8832    1.0000 </r>
       <r>    2.7733    1.0000 </r>
       <r>    2.9400    1.0000 </r>
       <r>    3.8182    1.0000 </r>
       <r>    4.3619    1.0000 </r>
       <r>    4.7408    1.0000 </r>
       <r>    5.2271    1.0000 </r>
       <r>    6.4006    1.0000 </r>
       <r>    9.3635    0.0000 </r>
       <r>    9.9866    0.0000 </r>
       <r>   10.5407    0.0000 </r>
       <r>   10.9684    0.0000 </r>
      </set>
      <set comment="kpoint 44">
       <r>  -22.9904    1.0000 </r>
       <r>  -22.9740    1.0000 </r>
       <r>  -22.9740    1.0000 </r>
       <r>   -2.3317    1.0000 </r>
       <r>    1.6385    1.0000 </r>
       <r>    3.5394    1.0000 </r>
       <r>    3.5394    1.0000 </r>
       <r>    3.5960    1.0000 </r>
       <r>    4.4154    1.0000 </r>
       <r>    4.4520    1.0000 </r>
       <r>    6.0480    1.0000 </r>
       <r>    6.0480    1.0000 </r>
       <r>    8.6110    1.0000 </r>
       <r>    9.3816    0.0000 </r>
       <r>   10.2162    0.0000 </r>
       <r>   11.1345    0.0000 </r>
      </set>
      <set comment="kpoint 45">
       <r>  -22.9915    1.0000 </r>
       <r>  -22.9747    1.0000 </r>
       <r>  -22.9740    1.0000 </r>
       <r>   -2.2193    1.0000 </r>
       <r>    1.7639    1.0000 </r>
       <r>    3.3429    1.0000 </r>
       <r>    3.5409    1.0000 </r>
       <r>    3.7759    1.0000 </r>
       <r>    4.1027    1.0000 </r>
       <r>    4.4883    1.0000 </r>
       <r>    5.8696    1.0000 </r>
       <r>    6.0253    1.0000 </r>
       <r>    8.6399    1.0000 </r>
       <r>    9.3929    0.0000 </r>
       <r>   10.3900    0.0000 </r>
       <r>   10.9147    0.0000 </r>
      </set>
      <set comment="kpoint 46">
       <r>  -22.9911    1.0000 </r>
       <r>  -22.9763    1.0000 </r>
       <r>  -22.9737    1.0000 </r>
       <r>   -2.1352    1.0000 </r>
       <r>    1.9345    1.0000 </r>
       <r>    3.1278    1.0000 </r>
       <r>    3.4490    1.0000 </r>
       <r>    3.7024    1.0000 </r>
       <r>    4.1659    1.0000 </r>
       <r>    4.4819    1.0000 </r>
       <r>    5.5508    1.0000 </r>
       <r>    6.0544    1.0000 </r>
       <r>    8.7287    1.0000 </r>
       <r>    9.6703    0.0000 </r>
       <r>   10.4605    0.0000 </r>
       <r>   10.8686    0.0000 </r>
      </set>
      <set comment="kpoint 47">
       <r>  -22.9894    1.0000 </r>
       <r>  -22.9785    1.0000 </r>
       <r>  -22.9731    1.0000 </r>
       <r>   -2.0920    1.0000 </r>
       <r>    2.0502    1.0000 </r>
       <r>    2.8766    1.0000 </r>
       <r>    3.2881    1.0000 </r>
       <r>    3.6355    1.0000 </r>
       <r>    4.4489    1.0000 </r>
       <r>    4.4535    1.0000 </r>
       <r>    5.2633    1.0000 </r>
       <r>    6.1293    1.0000 </r>
       <r>    8.8800    1.0000 </r>
       <r>   10.1727    0.0000 </r>
       <r>   10.2242    0.0000 </r>
       <r>   10.7905    0.0000 </r>
      </set>
      <set comment="kpoint 48">
       <r>  -22.9928    1.0000 </r>
       <r>  -22.9743    1.0000 </r>
       <r>  -22.9743    1.0000 </r>
       <r>   -2.1754    1.0000 </r>
       <r>    1.8559    1.0000 </r>
       <r>    3.5516    1.0000 </r>
       <r>    3.6046    1.0000 </r>
       <r>    3.6046    1.0000 </r>
       <r>    3.8282    1.0000 </r>
       <r>    4.5465    1.0000 </r>
       <r>    5.9722    1.0000 </r>
       <r>    5.9722    1.0000 </r>
       <r>    8.5628    1.0000 </r>
       <r>    9.2299    1.0000 </r>
       <r>   10.1738    0.0000 </r>
       <r>   10.8803    0.0000 </r>
      </set>
      <set comment="kpoint 49">
       <r>  -22.9927    1.0000 </r>
       <r>  -22.9749    1.0000 </r>
       <r>  -22.9742    1.0000 </r>
       <r>   -2.1464    1.0000 </r>
       <r>    1.9283    1.0000 </r>
       <r>    3.3721    1.0000 </r>
       <r>    3.5714    1.0000 </r>
       <r>    3.6585    1.0000 </r>
       <r>    3.8677    1.0000 </r>
       <r>    4.5407    1.0000 </r>
       <r>    5.8240    1.0000 </r>
       <r>    5.9835    1.0000 </r>
       <r>    8.6035    1.0000 </r>
       <r>    9.3289    0.0000 </r>
       <r>   10.3368    0.0000 </r>
       <r>   10.8121    0.0000 </r>
      </set>
      <set comment="kpoint 50">
       <r>  -22.9780    1.0000 </r>
       <r>  -22.9728    1.0000 </r>
       <r>  -22.9717    1.0000 </r>
       <r>   -3.3316    1.0000 </r>
       <r>    2.3509    1.0000 </r>
       <r>    2.9646    1.0000 </r>
       <r>    3.1628    1.0000 </r>
       <r>    3.9810    1.0000 </r>
       <r>    4.0442    1.0000 </r>
       <r>    5.9532    1.0000 </r>
       <r>    6.6654    1.0000 </r>
       <r>    7.1638    1.0000 </r>
       <r>    9.1440    1.0000 </r>
       <r>    9.6468    0.0000 </r>
       <r>   10.0940    0.0000 </r>
       <r>   10.9874    0.0000 </r>
      </set>
      <set comment="kpoint 51">
       <r>  -22.9816    1.0000 </r>
       <r>  -22.9733    1.0000 </r>
       <r>  -22.9714    1.0000 </r>
       <r>   -3.0526    1.0000 </r>
       <r>    2.1097    1.0000 </r>
       <r>    2.8749    1.0000 </r>
       <r>    3.1666    1.0000 </r>
       <r>    4.0297    1.0000 </r>
       <r>    4.1259    1.0000 </r>
       <r>    5.3442    1.0000 </r>
       <r>    6.3927    1.0000 </r>
       <r>    7.0169    1.0000 </r>
       <r>    9.4309    0.0000 </r>
       <r>    9.7512    0.0000 </r>
       <r>   10.0298    0.0000 </r>
       <r>   11.2795    0.0000 </r>
      </set>
      <set comment="kpoint 52">
       <r>  -22.9855    1.0000 </r>
       <r>  -22.9735    1.0000 </r>
       <r>  -22.9713    1.0000 </r>
       <r>   -2.7210    1.0000 </r>
       <r>    1.8733    1.0000 </r>
       <r>    2.8136    1.0000 </r>
       <r>    3.1003    1.0000 </r>
       <r>    4.0667    1.0000 </r>
       <r>    4.1738    1.0000 </r>
       <r>    4.7686    1.0000 </r>
       <r>    6.3088    1.0000 </r>
       <r>    6.8444    1.0000 </r>
       <r>    9.4019    0.0000 </r>
       <r>    9.9925    0.0000 </r>
       <r>   10.2808    0.0000 </r>
       <r>   11.2706    0.0000 </r>
      </set>
      <set comment="kpoint 53">
       <r>  -22.9887    1.0000 </r>
       <r>  -22.9735    1.0000 </r>
       <r>  -22.9713    1.0000 </r>
       <r>   -2.4071    1.0000 </r>
       <r>    1.6577    1.0000 </r>
       <r>    2.7928    1.0000 </r>
       <r>    3.0095    1.0000 </r>
       <r>    4.0601    1.0000 </r>
       <r>    4.1783    1.0000 </r>
       <r>    4.3879    1.0000 </r>
       <r>    6.3038    1.0000 </r>
       <r>    6.7206    1.0000 </r>
       <r>    9.3857    0.0000 </r>
       <r>   10.1579    0.0000 </r>
       <r>   10.4669    0.0000 </r>
       <r>   10.8647    0.0000 </r>
      </set>
      <set comment="kpoint 54">
       <r>  -22.9906    1.0000 </r>
       <r>  -22.9735    1.0000 </r>
       <r>  -22.9713    1.0000 </r>
       <r>   -2.2077    1.0000 </r>
       <r>    1.5164    1.0000 </r>
       <r>    2.8034    1.0000 </r>
       <r>    2.9361    1.0000 </r>
       <r>    4.0101    1.0000 </r>
       <r>    4.1545    1.0000 </r>
       <r>    4.2536    1.0000 </r>
       <r>    6.3138    1.0000 </r>
       <r>    6.6643    1.0000 </r>
       <r>    9.4679    0.0000 </r>
       <r>    9.9989    0.0000 </r>
       <r>   10.3919    0.0000 </r>
       <r>   11.0402    0.0000 </r>
      </set>
      <set comment="kpoint 55">
       <r>  -22.9820    1.0000 </r>
       <r>  -22.9735    1.0000 </r>
       <r>  -22.9723    1.0000 </r>
       <r>   -2.9735    1.0000 </r>
       <r>    1.8995    1.0000 </r>
       <r>    3.1000    1.0000 </r>
       <r>    3.2632    1.0000 </r>
       <r>    3.9755    1.0000 </r>
       <r>    4.1343    1.0000 </r>
       <r>    5.4388    1.0000 </r>
       <r>    6.2902    1.0000 </r>
       <r>    6.7224    1.0000 </r>
       <r>    9.1138    1.0000 </r>
       <r>    9.8494    0.0000 </r>
       <r>    9.9791    0.0000 </r>
       <r>   11.4344    0.0000 </r>
      </set>
      <set comment="kpoint 56">
       <r>  -22.9850    1.0000 </r>
       <r>  -22.9743    1.0000 </r>
       <r>  -22.9722    1.0000 </r>
       <r>   -2.6907    1.0000 </r>
       <r>    1.7550    1.0000 </r>
       <r>    3.0030    1.0000 </r>
       <r>    3.2487    1.0000 </r>
       <r>    4.0290    1.0000 </r>
       <r>    4.1852    1.0000 </r>
       <r>    4.9635    1.0000 </r>
       <r>    6.0479    1.0000 </r>
       <r>    6.6132    1.0000 </r>
       <r>    9.2443    0.9803 </r>
       <r>    9.8544    0.0000 </r>
       <r>   10.3275    0.0000 </r>
       <r>   11.3381    0.0000 </r>
      </set>
      <set comment="kpoint 57">
       <r>  -22.9876    1.0000 </r>
       <r>  -22.9750    1.0000 </r>
       <r>  -22.9721    1.0000 </r>
       <r>   -2.4094    1.0000 </r>
       <r>    1.6788    1.0000 </r>
       <r>    2.8862    1.0000 </r>
       <r>    3.1775    1.0000 </r>
       <r>    4.0696    1.0000 </r>
       <r>    4.1932    1.0000 </r>
       <r>    4.5489    1.0000 </r>
       <r>    5.9422    1.0000 </r>
       <r>    6.5219    1.0000 </r>
       <r>    9.2582    0.5384 </r>
       <r>    9.9782    0.0000 </r>
       <r>   10.7128    0.0000 </r>
       <r>   10.8962    0.0000 </r>
      </set>
      <set comment="kpoint 58">
       <r>  -22.9891    1.0000 </r>
       <r>  -22.9757    1.0000 </r>
       <r>  -22.9720    1.0000 </r>
       <r>   -2.2047    1.0000 </r>
       <r>    1.6593    1.0000 </r>
       <r>    2.7838    1.0000 </r>
       <r>    3.0927    1.0000 </r>
       <r>    3.9912    1.0000 </r>
       <r>    4.1946    1.0000 </r>
       <r>    4.3906    1.0000 </r>
       <r>    5.8755    1.0000 </r>
       <r>    6.4910    1.0000 </r>
       <r>    9.3149    0.0000 </r>
       <r>   10.0718    0.0000 </r>
       <r>   10.3454    0.0000 </r>
       <r>   11.2484    0.0000 </r>
      </set>
      <set comment="kpoint 59">
       <r>  -22.9893    1.0000 </r>
       <r>  -22.9763    1.0000 </r>
       <r>  -22.9717    1.0000 </r>
       <r>   -2.1451    1.0000 </r>
       <r>    1.6675    1.0000 </r>
       <r>    2.7522    1.0000 </r>
       <r>    3.0196    1.0000 </r>
       <r>    3.9250    1.0000 </r>
       <r>    4.2173    1.0000 </r>
       <r>    4.3985    1.0000 </r>
       <r>    5.8238    1.0000 </r>
       <r>    6.5076    1.0000 </r>
       <r>    9.4585    0.0000 </r>
       <r>    9.8643    0.0000 </r>
       <r>   10.4227    0.0000 </r>
       <r>   11.3480    0.0000 </r>
      </set>
      <set comment="kpoint 60">
       <r>  -22.9882    1.0000 </r>
       <r>  -22.9765    1.0000 </r>
       <r>  -22.9714    1.0000 </r>
       <r>   -2.2538    1.0000 </r>
       <r>    1.6934    1.0000 </r>
       <r>    2.7843    1.0000 </r>
       <r>    3.0104    1.0000 </r>
       <r>    3.9732    1.0000 </r>
       <r>    4.2439    1.0000 </r>
       <r>    4.4866    1.0000 </r>
       <r>    5.7796    1.0000 </r>
       <r>    6.5742    1.0000 </r>
       <r>    9.4915    0.0000 </r>
       <r>   10.0368    0.0000 </r>
       <r>   10.3888    0.0000 </r>
       <r>   11.2734    0.0000 </r>
      </set>
      <set comment="kpoint 61">
       <r>  -22.9862    1.0000 </r>
       <r>  -22.9760    1.0000 </r>
       <r>  -22.9712    1.0000 </r>
       <r>   -2.4909    1.0000 </r>
       <r>    1.7662    1.0000 </r>
       <r>    2.7925    1.0000 </r>
       <r>    3.1095    1.0000 </r>
       <r>    4.0342    1.0000 </r>
       <r>    4.2390    1.0000 </r>
       <r>    4.7324    1.0000 </r>
       <r>    5.7668    1.0000 </r>
       <r>    6.7059    1.0000 </r>
       <r>    9.5352    0.0000 </r>
       <r>   10.0049    0.0000 </r>
       <r>   10.7201    0.0000 </r>
       <r>   11.0243    0.0000 </r>
      </set>
      <set comment="kpoint 62">
       <r>  -22.9838    1.0000 </r>
       <r>  -22.9748    1.0000 </r>
       <r>  -22.9712    1.0000 </r>
       <r>   -2.7813    1.0000 </r>
       <r>    1.9069    1.0000 </r>
       <r>    2.8122    1.0000 </r>
       <r>    3.1982    1.0000 </r>
       <r>    4.0373    1.0000 </r>
       <r>    4.1965    1.0000 </r>
       <r>    5.0812    1.0000 </r>
       <r>    5.9184    1.0000 </r>
       <r>    6.8814    1.0000 </r>
       <r>    9.6097    0.0000 </r>
       <r>    9.8484    0.0000 </r>
       <r>   10.3402    0.0000 </r>
       <r>   11.1958    0.0000 </r>
      </set>
      <set comment="kpoint 63">
       <r>  -22.9863    1.0000 </r>
       <r>  -22.9742    1.0000 </r>
       <r>  -22.9731    1.0000 </r>
       <r>   -2.5918    1.0000 </r>
       <r>    1.6398    1.0000 </r>
       <r>    3.2086    1.0000 </r>
       <r>    3.3813    1.0000 </r>
       <r>    3.9065    1.0000 </r>
       <r>    4.2644    1.0000 </r>
       <r>    4.9464    1.0000 </r>
       <r>    6.0028    1.0000 </r>
       <r>    6.3542    1.0000 </r>
       <r>    8.9227    1.0000 </r>
       <r>    9.7060    0.0000 </r>
       <r>   10.2972    0.0000 </r>
       <r>   11.3509    0.0000 </r>
      </set>
      <set comment="kpoint 64">
       <r>  -22.9880    1.0000 </r>
       <r>  -22.9754    1.0000 </r>
       <r>  -22.9731    1.0000 </r>
       <r>   -2.3682    1.0000 </r>
       <r>    1.6593    1.0000 </r>
       <r>    3.0517    1.0000 </r>
       <r>    3.3678    1.0000 </r>
       <r>    4.0050    1.0000 </r>
       <r>    4.2590    1.0000 </r>
       <r>    4.6003    1.0000 </r>
       <r>    5.7290    1.0000 </r>
       <r>    6.3136    1.0000 </r>
       <r>    9.0121    1.0000 </r>
       <r>    9.7342    0.0000 </r>
       <r>   10.7492    0.0000 </r>
       <r>   10.9076    0.0000 </r>
      </set>
      <set comment="kpoint 65">
       <r>  -22.9887    1.0000 </r>
       <r>  -22.9770    1.0000 </r>
       <r>  -22.9729    1.0000 </r>
       <r>   -2.1920    1.0000 </r>
       <r>    1.7698    1.0000 </r>
       <r>    2.8665    1.0000 </r>
       <r>    3.2944    1.0000 </r>
       <r>    3.9599    1.0000 </r>
       <r>    4.2408    1.0000 </r>
       <r>    4.4638    1.0000 </r>
       <r>    5.5110    1.0000 </r>
       <r>    6.3120    1.0000 </r>
       <r>    9.0827    1.0000 </r>
       <r>    9.9771    0.0000 </r>
       <r>   10.3462    0.0000 </r>
       <r>   11.1568    0.0000 </r>
      </set>
      <set comment="kpoint 66">
       <r>  -22.9882    1.0000 </r>
       <r>  -22.9786    1.0000 </r>
       <r>  -22.9725    1.0000 </r>
       <r>   -2.1081    1.0000 </r>
       <r>    1.8846    1.0000 </r>
       <r>    2.7144    1.0000 </r>
       <r>    3.1815    1.0000 </r>
       <r>    3.8167    1.0000 </r>
       <r>    4.3007    1.0000 </r>
       <r>    4.5262    1.0000 </r>
       <r>    5.3553    1.0000 </r>
       <r>    6.3411    1.0000 </r>
       <r>    9.2265    1.0000 </r>
       <r>    9.9895    0.0000 </r>
       <r>   10.3275    0.0000 </r>
       <r>   11.0794    0.0000 </r>
      </set>
      <set comment="kpoint 67">
       <r>  -22.9871    1.0000 </r>
       <r>  -22.9794    1.0000 </r>
       <r>  -22.9719    1.0000 </r>
       <r>   -2.1390    1.0000 </r>
       <r>    1.8645    1.0000 </r>
       <r>    2.7123    1.0000 </r>
       <r>    3.0702    1.0000 </r>
       <r>    3.8391    1.0000 </r>
       <r>    4.3189    1.0000 </r>
       <r>    4.6468    1.0000 </r>
       <r>    5.2895    1.0000 </r>
       <r>    6.4086    1.0000 </r>
       <r>    9.4368    0.0000 </r>
       <r>    9.8934    0.0000 </r>
       <r>   10.3754    0.0000 </r>
       <r>   11.0956    0.0000 </r>
      </set>
      <set comment="kpoint 68">
       <r>  -22.9864    1.0000 </r>
       <r>  -22.9784    1.0000 </r>
       <r>  -22.9715    1.0000 </r>
       <r>   -2.2785    1.0000 </r>
       <r>    1.7750    1.0000 </r>
       <r>    2.7840    1.0000 </r>
       <r>    3.0422    1.0000 </r>
       <r>    3.9537    1.0000 </r>
       <r>    4.2925    1.0000 </r>
       <r>    4.7276    1.0000 </r>
       <r>    5.3980    1.0000 </r>
       <r>    6.5353    1.0000 </r>
       <r>    9.5324    0.0000 </r>
       <r>   10.0669    0.0000 </r>
       <r>   10.3758    0.0000 </r>
       <r>   11.1021    0.0000 </r>
      </set>
      <set comment="kpoint 69">
       <r>  -22.9899    1.0000 </r>
       <r>  -22.9749    1.0000 </r>
       <r>  -22.9738    1.0000 </r>
       <r>   -2.2975    1.0000 </r>
       <r>    1.6759    1.0000 </r>
       <r>    3.2279    1.0000 </r>
       <r>    3.5078    1.0000 </r>
       <r>    3.8647    1.0000 </r>
       <r>    4.3281    1.0000 </r>
       <r>    4.4557    1.0000 </r>
       <r>    5.7874    1.0000 </r>
       <r>    6.1446    1.0000 </r>
       <r>    8.7614    1.0000 </r>
       <r>    9.5098    0.0000 </r>
       <r>   10.5619    0.0000 </r>
       <r>   10.9554    0.0000 </r>
      </set>
      <set comment="kpoint 70">
       <r>  -22.9901    1.0000 </r>
       <r>  -22.9763    1.0000 </r>
       <r>  -22.9737    1.0000 </r>
       <r>   -2.1721    1.0000 </r>
       <r>    1.8412    1.0000 </r>
       <r>    3.0355    1.0000 </r>
       <r>    3.4796    1.0000 </r>
       <r>    3.8984    1.0000 </r>
       <r>    4.1637    1.0000 </r>
       <r>    4.4465    1.0000 </r>
       <r>    5.4657    1.0000 </r>
       <r>    6.1732    1.0000 </r>
       <r>    8.8507    1.0000 </r>
       <r>    9.6377    0.0000 </r>
       <r>   10.4964    0.0000 </r>
       <r>   10.9566    0.0000 </r>
      </set>
      <set comment="kpoint 71">
       <r>  -22.9890    1.0000 </r>
       <r>  -22.9784    1.0000 </r>
       <r>  -22.9733    1.0000 </r>
       <r>   -2.0973    1.0000 </r>
       <r>    2.0248    1.0000 </r>
       <r>    2.8166    1.0000 </r>
       <r>    3.3711    1.0000 </r>
       <r>    3.7056    1.0000 </r>
       <r>    4.3675    1.0000 </r>
       <r>    4.4634    1.0000 </r>
       <r>    5.1753    1.0000 </r>
       <r>    6.2155    1.0000 </r>
       <r>    8.9800    1.0000 </r>
       <r>    9.9782    0.0000 </r>
       <r>   10.2409    0.0000 </r>
       <r>   10.7649    0.0000 </r>
      </set>
      <set comment="kpoint 72">
       <r>  -22.9873    1.0000 </r>
       <r>  -22.9802    1.0000 </r>
       <r>  -22.9726    1.0000 </r>
       <r>   -2.0850    1.0000 </r>
       <r>    2.0571    1.0000 </r>
       <r>    2.6615    1.0000 </r>
       <r>    3.2134    1.0000 </r>
       <r>    3.7070    1.0000 </r>
       <r>    4.3809    1.0000 </r>
       <r>    4.6915    1.0000 </r>
       <r>    5.0114    1.0000 </r>
       <r>    6.2857    1.0000 </r>
       <r>    9.1928    1.0000 </r>
       <r>    9.9546    0.0000 </r>
       <r>   10.4063    0.0000 </r>
       <r>   10.8078    0.0000 </r>
      </set>
      <set comment="kpoint 73">
       <r>  -22.9919    1.0000 </r>
       <r>  -22.9752    1.0000 </r>
       <r>  -22.9742    1.0000 </r>
       <r>   -2.1538    1.0000 </r>
       <r>    1.9000    1.0000 </r>
       <r>    3.2351    1.0000 </r>
       <r>    3.5664    1.0000 </r>
       <r>    3.8177    1.0000 </r>
       <r>    3.9033    1.0000 </r>
       <r>    4.5090    1.0000 </r>
       <r>    5.6617    1.0000 </r>
       <r>    6.0706    1.0000 </r>
       <r>    8.6733    1.0000 </r>
       <r>    9.3924    0.0000 </r>
       <r>   10.5184    0.0000 </r>
       <r>   10.7854    0.0000 </r>
      </set>
      <set comment="kpoint 74">
       <r>  -22.9909    1.0000 </r>
       <r>  -22.9767    1.0000 </r>
       <r>  -22.9739    1.0000 </r>
       <r>   -2.1123    1.0000 </r>
       <r>    2.0124    1.0000 </r>
       <r>    3.0380    1.0000 </r>
       <r>    3.5009    1.0000 </r>
       <r>    3.7022    1.0000 </r>
       <r>    4.1234    1.0000 </r>
       <r>    4.4790    1.0000 </r>
       <r>    5.3613    1.0000 </r>
       <r>    6.1370    1.0000 </r>
       <r>    8.7950    1.0000 </r>
       <r>    9.5967    0.0000 </r>
       <r>   10.4728    0.0000 </r>
       <r>   10.6983    0.0000 </r>
      </set>
      <set comment="kpoint 75">
       <r>  -22.9865    1.0000 </r>
       <r>  -22.9761    1.0000 </r>
       <r>  -22.9721    1.0000 </r>
       <r>   -2.4512    1.0000 </r>
       <r>    1.7027    1.0000 </r>
       <r>    2.9199    1.0000 </r>
       <r>    3.2508    1.0000 </r>
       <r>    4.0581    1.0000 </r>
       <r>    4.2032    1.0000 </r>
       <r>    4.7777    1.0000 </r>
       <r>    5.6455    1.0000 </r>
       <r>    6.5220    1.0000 </r>
       <r>    9.3534    0.0000 </r>
       <r>    9.7859    0.0000 </r>
       <r>   10.8005    0.0000 </r>
       <r>   10.9553    0.0000 </r>
      </set>
      <set comment="kpoint 76">
       <r>  -22.9875    1.0000 </r>
       <r>  -22.9775    1.0000 </r>
       <r>  -22.9723    1.0000 </r>
       <r>   -2.2444    1.0000 </r>
       <r>    1.7531    1.0000 </r>
       <r>    2.8031    1.0000 </r>
       <r>    3.2203    1.0000 </r>
       <r>    4.0011    1.0000 </r>
       <r>    4.2141    1.0000 </r>
       <r>    4.6047    1.0000 </r>
       <r>    5.4437    1.0000 </r>
       <r>    6.4374    1.0000 </r>
       <r>    9.3949    0.0000 </r>
       <r>    9.8866    0.0000 </r>
       <r>   10.3364    0.0000 </r>
       <r>   11.2236    0.0000 </r>
      </set>
      <set comment="kpoint 77">
       <r>  -22.9879    1.0000 </r>
       <r>  -22.9784    1.0000 </r>
       <r>  -22.9724    1.0000 </r>
       <r>   -2.1247    1.0000 </r>
       <r>    1.8473    1.0000 </r>
       <r>    2.6851    1.0000 </r>
       <r>    3.2082    1.0000 </r>
       <r>    3.8776    1.0000 </r>
       <r>    4.2301    1.0000 </r>
       <r>    4.5395    1.0000 </r>
       <r>    5.3604    1.0000 </r>
       <r>    6.4027    1.0000 </r>
       <r>    9.4680    0.0000 </r>
       <r>    9.7958    0.0000 </r>
       <r>   10.2434    0.0000 </r>
       <r>   11.1407    0.0000 </r>
      </set>
      <set comment="kpoint 78">
       <r>  -22.9885    1.0000 </r>
       <r>  -22.9771    1.0000 </r>
       <r>  -22.9732    1.0000 </r>
[...]
       <r>    9.6989    0.0000 </r>
       <r>   10.3910    0.0000 </r>
       <r>   11.0833    0.0000 </r>
      </set>
      <set comment="kpoint 79">
       <r>  -22.9880    1.0000 </r>
       <r>  -22.9788    1.0000 </r>
       <r>  -22.9733    1.0000 </r>
       <r>   -2.1110    1.0000 </r>
       <r>    1.9803    1.0000 </r>
       <r>    2.7261    1.0000 </r>
       <r>    3.4185    1.0000 </r>
       <r>    3.8690    1.0000 </r>
       <r>    4.2178    1.0000 </r>
       <r>    4.5257    1.0000 </r>
       <r>    5.0563    1.0000 </r>
       <r>    6.3254    1.0000 </r>
       <r>    9.2591    0.4874 </r>
       <r>    9.8651    0.0000 </r>
       <r>   10.0251    0.0000 </r>
       <r>   10.8486    0.0000 </r>
      </set>
      <set comment="kpoint 80">
       <r>  -22.9872    1.0000 </r>
       <r>  -22.9801    1.0000 </r>
       <r>  -22.9731    1.0000 </r>
       <r>   -2.0804    1.0000 </r>
       <r>    2.0882    1.0000 </r>
       <r>    2.6032    1.0000 </r>
       <r>    3.3719    1.0000 </r>
       <r>    3.7667    1.0000 </r>
       <r>    4.2936    1.0000 </r>
       <r>    4.6267    1.0000 </r>
       <r>    4.8892    1.0000 </r>
       <r>    6.3452    1.0000 </r>
       <r>    9.4355    0.0000 </r>
       <r>    9.7687    0.0000 </r>
       <r>   10.0794    0.0000 </r>
       <r>   10.7174    0.0000 </r>
      </set>
      <set comment="kpoint 81">
       <r>  -22.9870    1.0000 </r>
       <r>  -22.9796    1.0000 </r>
       <r>  -22.9727    1.0000 </r>
       <r>   -2.1270    1.0000 </r>
       <r>    1.9390    1.0000 </r>
       <r>    2.6759    1.0000 </r>
       <r>    3.2914    1.0000 </r>
       <r>    3.8532    1.0000 </r>
       <r>    4.2692    1.0000 </r>
       <r>    4.6773    1.0000 </r>
       <r>    5.0291    1.0000 </r>
       <r>    6.3735    1.0000 </r>
       <r>    9.5272    0.0000 </r>
       <r>    9.7835    0.0000 </r>
       <r>   10.0516    0.0000 </r>
       <r>   11.0285    0.0000 </r>
      </set>
      <set comment="kpoint 82">
       <r>  -22.9896    1.0000 </r>
       <r>  -22.9776    1.0000 </r>
       <r>  -22.9739    1.0000 </r>
       <r>   -2.1053    1.0000 </r>
       <r>    2.0291    1.0000 </r>
       <r>    2.8723    1.0000 </r>
       <r>    3.5057    1.0000 </r>
       <r>    3.9059    1.0000 </r>
       <r>    4.0829    1.0000 </r>
       <r>    4.4396    1.0000 </r>
       <r>    5.1223    1.0000 </r>
       <r>    6.2540    1.0000 </r>
       <r>    9.0062    1.0000 </r>
       <r>    9.6085    0.0000 </r>
       <r>   10.3075    0.0000 </r>
       <r>   10.6880    0.0000 </r>
      </set>
      <set comment="kpoint 83">
       <r>  -22.9882    1.0000 </r>
       <r>  -22.9793    1.0000 </r>
       <r>  -22.9737    1.0000 </r>
       <r>   -2.0741    1.0000 </r>
       <r>    2.1628    1.0000 </r>
       <r>    2.6879    1.0000 </r>
       <r>    3.4659    1.0000 </r>
       <r>    3.7906    1.0000 </r>
       <r>    4.3310    1.0000 </r>
       <r>    4.3848    1.0000 </r>
       <r>    4.8822    1.0000 </r>
       <r>    6.3096    1.0000 </r>
       <r>    9.2050    1.0000 </r>
       <r>    9.7739    0.0000 </r>
       <r>   10.1010    0.0000 </r>
       <r>   10.5271    0.0000 </r>
      </set>
      <set comment="kpoint 84">
       <r>  -22.9872    1.0000 </r>
       <r>  -22.9801    1.0000 </r>
       <r>  -22.9737    1.0000 </r>
       <r>   -2.0689    1.0000 </r>
       <r>    2.2032    1.0000 </r>
       <r>    2.5928    1.0000 </r>
       <r>    3.4671    1.0000 </r>
       <r>    3.8888    1.0000 </r>
       <r>    4.2444    1.0000 </r>
       <r>    4.4395    1.0000 </r>
       <r>    4.7616    1.0000 </r>
       <r>    6.3558    1.0000 </r>
       <r>    9.5124    0.0000 </r>
       <r>    9.7492    0.0000 </r>
       <r>    9.8160    0.0000 </r>
       <r>   10.5251    0.0000 </r>
      </set>
     </set>
    </set>
   </array>
  </eigenvalues>
  <separator name="orbital magnetization" >
   <v name="MAGDIPOLOUT">      0.00000000      0.00000000      0.00000000</v>
  </separator>
  <dos>
   <i name="efermi">      9.25886356 </i>
   <total>
    <array>
     <dimension dim="1">gridpoints</dimension>
     <dimension dim="2">spin</dimension>
     <field>energy</field>
     <field>total</field>
     <field>integrated</field>
     <set>
      <set comment="spin 1">
       <r>   -24.7425     0.0000     0.0000 </r>
       <r>   -24.6142     0.0000     0.0000 </r>
       <r>   -24.4859     0.0000     0.0000 </r>
       <r>   -24.3576     0.0000     0.0000 </r>
       <r>   -24.2293     0.0000     0.0000 </r>
       <r>   -24.1010     0.0000     0.0000 </r>
       <r>   -23.9726     0.0000     0.0000 </r>
       <r>   -23.8443     0.0000     0.0000 </r>
       <r>   -23.7160     0.0000     0.0000 </r>
       <r>   -23.5877     0.0000     0.0000 </r>
       <r>   -23.4594     0.0000     0.0000 </r>
       <r>   -23.3311     0.0000     0.0000 </r>
       <r>   -23.2028     0.0000     0.0000 </r>
       <r>   -23.0745     0.0000     0.0000 </r>
       <r>   -22.9461    46.7582     5.9997 </r>
       <r>   -22.8178     0.0000     6.0000 </r>
       <r>   -22.6895     0.0000     6.0000 </r>
       <r>   -22.5612     0.0000     6.0000 </r>
       <r>   -22.4329     0.0000     6.0000 </r>
       <r>   -22.3046     0.0000     6.0000 </r>
       <r>   -22.1763     0.0000     6.0000 </r>
       <r>   -22.0480     0.0000     6.0000 </r>
       <r>   -21.9196     0.0000     6.0000 </r>
       <r>   -21.7913     0.0000     6.0000 </r>
       <r>   -21.6630     0.0000     6.0000 </r>
       <r>   -21.5347     0.0000     6.0000 </r>
       <r>   -21.4064     0.0000     6.0000 </r>
       <r>   -21.2781     0.0000     6.0000 </r>
       <r>   -21.1498     0.0000     6.0000 </r>
       <r>   -21.0215     0.0000     6.0000 </r>
       <r>   -20.8931     0.0000     6.0000 </r>
       <r>   -20.7648     0.0000     6.0000 </r>
       <r>   -20.6365     0.0000     6.0000 </r>
       <r>   -20.5082     0.0000     6.0000 </r>
       <r>   -20.3799     0.0000     6.0000 </r>
       <r>   -20.2516     0.0000     6.0000 </r>
       <r>   -20.1233     0.0000     6.0000 </r>
       <r>   -19.9950     0.0000     6.0000 </r>
       <r>   -19.8666     0.0000     6.0000 </r>
       <r>   -19.7383     0.0000     6.0000 </r>
       <r>   -19.6100     0.0000     6.0000 </r>
       <r>   -19.4817     0.0000     6.0000 </r>
       <r>   -19.3534     0.0000     6.0000 </r>
       <r>   -19.2251     0.0000     6.0000 </r>
       <r>   -19.0968     0.0000     6.0000 </r>
       <r>   -18.9684     0.0000     6.0000 </r>
       <r>   -18.8401     0.0000     6.0000 </r>
       <r>   -18.7118     0.0000     6.0000 </r>
       <r>   -18.5835     0.0000     6.0000 </r>
       <r>   -18.4552     0.0000     6.0000 </r>
       <r>   -18.3269     0.0000     6.0000 </r>
       <r>   -18.1986     0.0000     6.0000 </r>
       <r>   -18.0703     0.0000     6.0000 </r>
       <r>   -17.9419     0.0000     6.0000 </r>
       <r>   -17.8136     0.0000     6.0000 </r>
       <r>   -17.6853     0.0000     6.0000 </r>
       <r>   -17.5570     0.0000     6.0000 </r>
       <r>   -17.4287     0.0000     6.0000 </r>
       <r>   -17.3004     0.0000     6.0000 </r>
       <r>   -17.1721     0.0000     6.0000 </r>
       <r>   -17.0438     0.0000     6.0000 </r>
       <r>   -16.9154     0.0000     6.0000 </r>
       <r>   -16.7871     0.0000     6.0000 </r>
       <r>   -16.6588     0.0000     6.0000 </r>
       <r>   -16.5305     0.0000     6.0000 </r>
       <r>   -16.4022     0.0000     6.0000 </r>
       <r>   -16.2739     0.0000     6.0000 </r>
       <r>   -16.1456     0.0000     6.0000 </r>
       <r>   -16.0173     0.0000     6.0000 </r>
       <r>   -15.8889     0.0000     6.0000 </r>
       <r>   -15.7606     0.0000     6.0000 </r>
       <r>   -15.6323     0.0000     6.0000 </r>
       <r>   -15.5040     0.0000     6.0000 </r>
       <r>   -15.3757     0.0000     6.0000 </r>
       <r>   -15.2474     0.0000     6.0000 </r>
       <r>   -15.1191     0.0000     6.0000 </r>
       <r>   -14.9908     0.0000     6.0000 </r>
       <r>   -14.8624     0.0000     6.0000 </r>
       <r>   -14.7341     0.0000     6.0000 </r>
       <r>   -14.6058     0.0000     6.0000 </r>
       <r>   -14.4775     0.0000     6.0000 </r>
       <r>   -14.3492     0.0000     6.0000 </r>
       <r>   -14.2209     0.0000     6.0000 </r>
       <r>   -14.0926     0.0000     6.0000 </r>
       <r>   -13.9643     0.0000     6.0000 </r>
       <r>   -13.8359     0.0000     6.0000 </r>
       <r>   -13.7076     0.0000     6.0000 </r>
       <r>   -13.5793     0.0000     6.0000 </r>
       <r>   -13.4510     0.0000     6.0000 </r>
       <r>   -13.3227     0.0000     6.0000 </r>
       <r>   -13.1944     0.0000     6.0000 </r>
       <r>   -13.0661     0.0000     6.0000 </r>
       <r>   -12.9378     0.0000     6.0000 </r>
       <r>   -12.8094     0.0000     6.0000 </r>
       <r>   -12.6811     0.0000     6.0000 </r>
       <r>   -12.5528     0.0000     6.0000 </r>
       <r>   -12.4245     0.0000     6.0000 </r>
       <r>   -12.2962     0.0000     6.0000 </r>
       <r>   -12.1679     0.0000     6.0000 </r>
       <r>   -12.0396     0.0000     6.0000 </r>
       <r>   -11.9113     0.0000     6.0000 </r>
       <r>   -11.7829     0.0000     6.0000 </r>
       <r>   -11.6546     0.0000     6.0000 </r>
       <r>   -11.5263     0.0000     6.0000 </r>
       <r>   -11.3980     0.0000     6.0000 </r>
       <r>   -11.2697     0.0000     6.0000 </r>
       <r>   -11.1414     0.0000     6.0000 </r>
       <r>   -11.0131     0.0000     6.0000 </r>
       <r>   -10.8848     0.0000     6.0000 </r>
       <r>   -10.7564     0.0000     6.0000 </r>
       <r>   -10.6281     0.0000     6.0000 </r>
       <r>   -10.4998     0.0000     6.0000 </r>
       <r>   -10.3715     0.0000     6.0000 </r>
       <r>   -10.2432     0.0000     6.0000 </r>
       <r>   -10.1149     0.0000     6.0000 </r>
       <r>    -9.9866     0.0000     6.0000 </r>
       <r>    -9.8582     0.0000     6.0000 </r>
       <r>    -9.7299     0.0000     6.0000 </r>
       <r>    -9.6016     0.0000     6.0000 </r>
       <r>    -9.4733     0.0000     6.0000 </r>
       <r>    -9.3450     0.0000     6.0000 </r>
       <r>    -9.2167     0.0000     6.0000 </r>
       <r>    -9.0884     0.0000     6.0000 </r>
       <r>    -8.9601     0.0000     6.0000 </r>
       <r>    -8.8317     0.0000     6.0000 </r>
       <r>    -8.7034     0.0000     6.0000 </r>
       <r>    -8.5751     0.0000     6.0000 </r>
       <r>    -8.4468     0.0000     6.0000 </r>
       <r>    -8.3185     0.0000     6.0000 </r>
       <r>    -8.1902     0.0000     6.0000 </r>
       <r>    -8.0619     0.0000     6.0000 </r>
       <r>    -7.9336     0.0000     6.0000 </r>
       <r>    -7.8052     0.0000     6.0000 </r>
       <r>    -7.6769     0.0000     6.0000 </r>
       <r>    -7.5486     0.0000     6.0000 </r>
       <r>    -7.4203     0.0000     6.0000 </r>
       <r>    -7.2920     0.0000     6.0000 </r>
       <r>    -7.1637     0.0000     6.0000 </r>
       <r>    -7.0354     0.0000     6.0000 </r>
       <r>    -6.9071     0.0000     6.0000 </r>
       <r>    -6.7787     0.0000     6.0000 </r>
       <r>    -6.6504     0.0000     6.0000 </r>
       <r>    -6.5221     0.0000     6.0000 </r>
       <r>    -6.3938     0.0000     6.0000 </r>
       <r>    -6.2655     0.0000     6.0000 </r>
       <r>    -6.1372     0.0000     6.0000 </r>
       <r>    -6.0089     0.0000     6.0000 </r>
       <r>    -5.8806     0.0000     6.0000 </r>
       <r>    -5.7522     0.0000     6.0000 </r>
       <r>    -5.6239     0.0000     6.0000 </r>
       <r>    -5.4956     0.0000     6.0000 </r>
       <r>    -5.3673     0.0000     6.0000 </r>
       <r>    -5.2390     0.0000     6.0000 </r>
       <r>    -5.1107     0.0000     6.0000 </r>
       <r>    -4.9824     0.0000     6.0000 </r>
       <r>    -4.8541     0.0000     6.0000 </r>
       <r>    -4.7257     0.0000     6.0000 </r>
       <r>    -4.5974     0.0000     6.0000 </r>
       <r>    -4.4691     0.0000     6.0000 </r>
       <r>    -4.3408     0.0000     6.0000 </r>
       <r>    -4.2125     0.0000     6.0000 </r>
       <r>    -4.0842     0.0000     6.0000 </r>
       <r>    -3.9559     0.0000     6.0000 </r>
       <r>    -3.8276     0.0000     6.0000 </r>
       <r>    -3.6992     0.0092     6.0012 </r>
       <r>    -3.5709     0.0711     6.0228 </r>
       <r>    -3.4426     0.2270     6.0537 </r>
       <r>    -3.3143     0.3393     6.1027 </r>
       <r>    -3.1860     0.3856     6.1524 </r>
       <r>    -3.0577     0.1667     6.1752 </r>
       <r>    -2.9294     0.1734     6.2580 </r>
       <r>    -2.8011     0.2252     6.3302 </r>
       <r>    -2.6727     0.7802     6.4743 </r>
       <r>    -2.5444     0.5637     6.5612 </r>
       <r>    -2.4161     1.0014     6.7157 </r>
       <r>    -2.2878     0.8271     6.9409 </r>
       <r>    -2.1595     2.3112     7.4063 </r>
       <r>    -2.0312     2.2987     8.0000 </r>
       <r>    -1.9029     0.0000     8.0000 </r>
       <r>    -1.7746     0.0000     8.0000 </r>
       <r>    -1.6462     0.0000     8.0000 </r>
       <r>    -1.5179     0.0000     8.0000 </r>
       <r>    -1.3896     0.0000     8.0000 </r>
       <r>    -1.2613     0.0000     8.0000 </r>
       <r>    -1.1330     0.0000     8.0000 </r>
       <r>    -1.0047     0.0000     8.0000 </r>
       <r>    -0.8764     0.0000     8.0000 </r>
       <r>    -0.7480     0.0000     8.0000 </r>
       <r>    -0.6197     0.0000     8.0000 </r>
       <r>    -0.4914     0.0000     8.0000 </r>
       <r>    -0.3631     0.0000     8.0000 </r>
       <r>    -0.2348     0.0000     8.0000 </r>
       <r>    -0.1065     0.0000     8.0000 </r>
       <r>     0.0218     0.0000     8.0000 </r>
       <r>     0.1501     0.0000     8.0000 </r>
       <r>     0.2785     0.0000     8.0000 </r>
       <r>     0.4068     0.0000     8.0000 </r>
       <r>     0.5351     0.0000     8.0000 </r>
       <r>     0.6634     0.0000     8.0000 </r>
       <r>     0.7917     0.0000     8.0000 </r>
       <r>     0.9200     0.0000     8.0000 </r>
       <r>     1.0483     0.0000     8.0000 </r>
       <r>     1.1766     0.0000     8.0000 </r>
       <r>     1.3050     0.0000     8.0000 </r>
       <r>     1.4333     0.2263     8.0290 </r>
       <r>     1.5616     0.7169     8.1211 </r>
       <r>     1.6899     2.6199     8.5401 </r>
       <r>     1.8182     2.5802     9.0120 </r>
       <r>     1.9465     2.2238     9.4415 </r>
       <r>     2.0748     1.1695     9.6831 </r>
       <r>     2.2031     0.3080     9.8311 </r>
       <r>     2.3315     0.0067     9.8689 </r>
       <r>     2.4598     0.0568     9.9244 </r>
       <r>     2.5881     0.2606     9.9579 </r>
       <r>     2.7164     1.4264    10.2167 </r>
       <r>     2.8447     5.5359    11.1227 </r>
       <r>     2.9730     2.9119    11.7783 </r>
       <r>     3.1013     3.6323    12.4970 </r>
       <r>     3.2296     3.1482    13.1258 </r>
       <r>     3.3580     1.4081    13.4706 </r>
       <r>     3.4863     1.5619    13.8508 </r>
       <r>     3.6146     0.6743    14.0101 </r>
       <r>     3.7429     1.0230    14.1640 </r>
       <r>     3.8712     2.0522    14.5200 </r>
       <r>     3.9995     3.9499    15.3043 </r>
       <r>     4.1278     5.2615    16.4157 </r>
       <r>     4.2561     5.9970    17.5533 </r>
       <r>     4.3845     2.6184    18.1921 </r>
       <r>     4.5128     2.9095    18.8139 </r>
       <r>     4.6411     1.4634    19.2620 </r>
       <r>     4.7694     1.4065    19.5241 </r>
       <r>     4.8977     0.6771    19.6599 </r>
       <r>     5.0260     0.9041    19.7874 </r>
       <r>     5.1543     0.6716    19.9378 </r>
       <r>     5.2826     0.5666    20.0554 </r>
       <r>     5.4110     1.5268    20.2951 </r>
       <r>     5.5393     0.7771    20.4830 </r>
       <r>     5.6676     0.5619    20.6192 </r>
       <r>     5.7959     1.6588    20.8419 </r>
       <r>     5.9242     0.8182    21.0290 </r>
       <r>     6.0525     1.1559    21.2580 </r>
       <r>     6.1808     1.2903    21.5156 </r>
       <r>     6.3091     1.8596    21.8581 </r>
       <r>     6.4375     2.2992    22.5208 </r>
       <r>     6.5658     1.8145    22.7972 </r>
       <r>     6.6941     1.2079    23.1782 </r>
       <r>     6.8224     1.2191    23.5074 </r>
       <r>     6.9507     0.5847    23.6845 </r>
       <r>     7.0790     0.5602    23.8015 </r>
       <r>     7.2073     0.5137    23.9139 </r>
       <r>     7.3356     0.3612    23.9708 </r>
       <r>     7.4640     0.1576    23.9920 </r>
       <r>     7.5923     0.0213    24.0000 </r>
       <r>     7.7206     0.0000    24.0000 </r>
       <r>     7.8489     0.0000    24.0000 </r>
       <r>     7.9772     0.0000    24.0000 </r>
       <r>     8.1055     0.0000    24.0000 </r>
       <r>     8.2338     0.0000    24.0000 </r>
       <r>     8.3622     0.0001    24.0000 </r>
       <r>     8.4905     0.0000    24.0009 </r>
       <r>     8.6188     0.2202    24.0292 </r>
       <r>     8.7471     0.5196    24.1240 </r>
       <r>     8.8754     0.8368    24.2922 </r>
       <r>     9.0037     0.8619    24.4538 </r>
       <r>     9.1320     1.3090    24.6932 </r>
       <r>     9.2603     2.0090    25.0088 </r>
       <r>     9.3887     1.5909    25.3175 </r>
       <r>     9.5170     2.2461    25.9168 </r>
       <r>     9.6453     1.4200    26.2041 </r>
       <r>     9.7736     2.3729    26.5721 </r>
       <r>     9.9019     2.5843    27.0635 </r>
       <r>    10.0302     5.0543    27.7755 </r>
       <r>    10.1585     1.8326    28.3089 </r>
       <r>    10.2868     2.1810    28.6895 </r>
       <r>    10.4152     4.1460    29.4605 </r>
       <r>    10.5435     1.6871    29.8150 </r>
       <r>    10.6718     0.2251    29.9187 </r>
       <r>    10.8001     1.1758    30.3029 </r>
       <r>    10.9284     1.8668    30.5845 </r>
       <r>    11.0567     2.1192    31.0375 </r>
       <r>    11.1850     1.4540    31.3618 </r>
       <r>    11.3133     1.5325    31.7051 </r>
       <r>    11.4417     0.3147    31.8620 </r>
       <r>    11.5700     0.7804    31.9709 </r>
       <r>    11.6983     0.1703    31.9927 </r>
       <r>    11.8266     0.0000    31.9927 </r>
       <r>    11.9549     0.0000    31.9927 </r>
       <r>    12.0832     0.0000    32.0000 </r>
       <r>    12.2115     0.0000    32.0000 </r>
       <r>    12.3398     0.0000    32.0000 </r>
       <r>    12.4682     0.0000    32.0000 </r>
       <r>    12.5965     0.0000    32.0000 </r>
       <r>    12.7248     0.0000    32.0000 </r>
       <r>    12.8531     0.0000    32.0000 </r>
       <r>    12.9814     0.0000    32.0000 </r>
       <r>    13.1097     0.0000    32.0000 </r>
       <r>    13.2380     0.0000    32.0000 </r>
       <r>    13.3663     0.0000    32.0000 </r>
       <r>    13.4947     0.0000    32.0000 </r>
       <r>    13.6230     0.0000    32.0000 </r>
       <r>    13.7513     0.0000    32.0000 </r>
      </set>
     </set>
    </array>
   </total>
  </dos>
 </calculation>
 <structure name="finalpos" >
  <crystal>
   <varray name="basis" >
    <v>       0.00000000       3.15695259       3.15695259 </v>
    <v>       3.15695259       0.00000000       3.15695259 </v>
    <v>       3.15695259       3.15695259       0.00000000 </v>
   </varray>
   <i name="volume">     62.92658685 </i>
   <varray name="rec_basis" >
    <v>      -0.15838059       0.15838059       0.15838059 </v>
    <v>       0.15838059      -0.15838059       0.15838059 </v>
    <v>       0.15838059       0.15838059      -0.15838059 </v>
   </varray>
  </crystal>
  <varray name="positions" >
   <v>       0.75000000       0.75000000       0.75000000 </v>
   <v>       0.25000000       0.25000000       0.25000000 </v>
   <v>       0.00000000       0.00000000       0.00000000 </v>
  </varray>
 </structure>
</modeling>
