   3   3   0   0
  0.2784214E+02  0.4906589E-09  0.4906589E-09  0.4906589E-09  0.1000000E-15
  1.000000000000000E-004
  CAR
 unknown system
     12.71120810    -33.67879454  301      8.49471134      1.00000000
    -33.679  0.0000E+00  0.0000E+00
    -33.524  0.0000E+00  0.0000E+00
    -33.370  0.0000E+00  0.0000E+00
    -33.215  0.0000E+00  0.0000E+00
    -33.060  0.0000E+00  0.0000E+00
    -32.906  0.0000E+00  0.0000E+00
    -32.751  0.0000E+00  0.0000E+00
    -32.596  0.0000E+00  0.0000E+00
    -32.442  0.0000E+00  0.0000E+00
    -32.287  0.0000E+00  0.0000E+00
    -32.132  0.0000E+00  0.0000E+00
    -31.978  0.0000E+00  0.0000E+00
    -31.823  0.0000E+00  0.0000E+00
    -31.669  0.0000E+00  0.0000E+00
    -31.514  0.2156E+00  0.3333E-01
    -31.359  0.0000E+00  0.3333E-01
    -31.205  0.0000E+00  0.3333E-01
    -31.050  0.0000E+00  0.3333E-01
    -30.895  0.0000E+00  0.3333E-01
    -30.741  0.0000E+00  0.3333E-01
    -30.586  0.0000E+00  0.3333E-01
    -30.431  0.0000E+00  0.3333E-01
    -30.277  0.0000E+00  0.3333E-01
    -30.122  0.0000E+00  0.3333E-01
    -29.968  0.0000E+00  0.3333E-01
    -29.813  0.0000E+00  0.3333E-01
    -29.658  0.0000E+00  0.3333E-01
    -29.504  0.0000E+00  0.3333E-01
    -29.349  0.0000E+00  0.3333E-01
    -29.194  0.0000E+00  0.3333E-01
    -29.040  0.0000E+00  0.3333E-01
    -28.885  0.0000E+00  0.3333E-01
    -28.731  0.0000E+00  0.3333E-01
    -28.576  0.0000E+00  0.3333E-01
    -28.421  0.0000E+00  0.3333E-01
    -28.267  0.0000E+00  0.3333E-01
    -28.112  0.0000E+00  0.3333E-01
    -27.957  0.0000E+00  0.3333E-01
    -27.803  0.0000E+00  0.3333E-01
    -27.648  0.0000E+00  0.3333E-01
    -27.493  0.0000E+00  0.3333E-01
    -27.339  0.0000E+00  0.3333E-01
    -27.184  0.0000E+00  0.3333E-01
    -27.030  0.0000E+00  0.3333E-01
    -26.875  0.0000E+00  0.3333E-01
    -26.720  0.0000E+00  0.3333E-01
    -26.566  0.0000E+00  0.3333E-01
    -26.411  0.0000E+00  0.3333E-01
    -26.256  0.0000E+00  0.3333E-01
    -26.102  0.0000E+00  0.3333E-01
    -25.947  0.0000E+00  0.3333E-01
    -25.792  0.0000E+00  0.3333E-01
    -25.638  0.0000E+00  0.3333E-01
    -25.483  0.0000E+00  0.3333E-01
    -25.329  0.0000E+00  0.3333E-01
    -25.174  0.0000E+00  0.3333E-01
    -25.019  0.0000E+00  0.3333E-01
    -24.865  0.0000E+00  0.3333E-01
    -24.710  0.0000E+00  0.3333E-01
    -24.555  0.0000E+00  0.3333E-01
    -24.401  0.0000E+00  0.3333E-01
    -24.246  0.0000E+00  0.3333E-01
    -24.092  0.0000E+00  0.3333E-01
    -23.937  0.0000E+00  0.3333E-01
    -23.782  0.0000E+00  0.3333E-01
    -23.628  0.0000E+00  0.3333E-01
    -23.473  0.0000E+00  0.3333E-01
    -23.318  0.0000E+00  0.3333E-01
    -23.164  0.0000E+00  0.3333E-01
    -23.009  0.0000E+00  0.3333E-01
    -22.854  0.0000E+00  0.3333E-01
    -22.700  0.0000E+00  0.3333E-01
    -22.545  0.0000E+00  0.3333E-01
    -22.391  0.0000E+00  0.3333E-01
    -22.236  0.0000E+00  0.3333E-01
    -22.081  0.0000E+00  0.3333E-01
    -21.927  0.0000E+00  0.3333E-01
    -21.772  0.0000E+00  0.3333E-01
    -21.617  0.0000E+00  0.3333E-01
    -21.463  0.0000E+00  0.3333E-01
    -21.308  0.0000E+00  0.3333E-01
    -21.153  0.0000E+00  0.3333E-01
    -20.999  0.0000E+00  0.3333E-01
    -20.844  0.0000E+00  0.3333E-01
    -20.690  0.0000E+00  0.3333E-01
    -20.535  0.0000E+00  0.3333E-01
    -20.380  0.0000E+00  0.3333E-01
    -20.226  0.0000E+00  0.3333E-01
    -20.071  0.0000E+00  0.3333E-01
    -19.916  0.0000E+00  0.3333E-01
    -19.762  0.0000E+00  0.3333E-01
    -19.607  0.0000E+00  0.3333E-01
    -19.453  0.0000E+00  0.3333E-01
    -19.298  0.0000E+00  0.3333E-01
    -19.143  0.0000E+00  0.3333E-01
    -18.989  0.0000E+00  0.3333E-01
    -18.834  0.0000E+00  0.3333E-01
    -18.679  0.0000E+00  0.3333E-01
    -18.525  0.0000E+00  0.3333E-01
    -18.370  0.0000E+00  0.3333E-01
    -18.215  0.0000E+00  0.3333E-01
    -18.061  0.0000E+00  0.3333E-01
    -17.906  0.0000E+00  0.3333E-01
    -17.752  0.0000E+00  0.3333E-01
    -17.597  0.0000E+00  0.3333E-01
    -17.442  0.0000E+00  0.3333E-01
    -17.288  0.0000E+00  0.3333E-01
    -17.133  0.0000E+00  0.3333E-01
    -16.978  0.0000E+00  0.3333E-01
    -16.824  0.0000E+00  0.3333E-01
    -16.669  0.0000E+00  0.3333E-01
    -16.514  0.0000E+00  0.3333E-01
    -16.360  0.0000E+00  0.3333E-01
    -16.205  0.0000E+00  0.3333E-01
    -16.051  0.0000E+00  0.3333E-01
    -15.896  0.0000E+00  0.3333E-01
    -15.741  0.0000E+00  0.3333E-01
    -15.587  0.0000E+00  0.3333E-01
    -15.432  0.0000E+00  0.3333E-01
    -15.277  0.0000E+00  0.3333E-01
    -15.123  0.0000E+00  0.3333E-01
    -14.968  0.0000E+00  0.3333E-01
    -14.814  0.0000E+00  0.3333E-01
    -14.659  0.0000E+00  0.3333E-01
    -14.504  0.3021E-02  0.3380E-01
    -14.350  0.0000E+00  0.2000E+00
    -14.195  0.0000E+00  0.2000E+00
    -14.040  0.0000E+00  0.2000E+00
    -13.886  0.0000E+00  0.2000E+00
    -13.731  0.0000E+00  0.2000E+00
    -13.576  0.0000E+00  0.2000E+00
    -13.422  0.0000E+00  0.2000E+00
    -13.267  0.0000E+00  0.2000E+00
    -13.113  0.0000E+00  0.2000E+00
    -12.958  0.0000E+00  0.2000E+00
    -12.803  0.0000E+00  0.2000E+00
    -12.649  0.0000E+00  0.2000E+00
    -12.494  0.0000E+00  0.2000E+00
    -12.339  0.0000E+00  0.2000E+00
    -12.185  0.0000E+00  0.2000E+00
    -12.030  0.0000E+00  0.2000E+00
    -11.875  0.0000E+00  0.2000E+00
    -11.721  0.0000E+00  0.2000E+00
    -11.566  0.0000E+00  0.2000E+00
    -11.412  0.0000E+00  0.2000E+00
    -11.257  0.0000E+00  0.2000E+00
    -11.102  0.0000E+00  0.2000E+00
    -10.948  0.0000E+00  0.2000E+00
    -10.793  0.0000E+00  0.2000E+00
    -10.638  0.0000E+00  0.2000E+00
    -10.484  0.0000E+00  0.2000E+00
    -10.329  0.0000E+00  0.2000E+00
    -10.175  0.0000E+00  0.2000E+00
    -10.020  0.0000E+00  0.2000E+00
     -9.865  0.0000E+00  0.2000E+00
     -9.711  0.1480E+00  0.2237E+00
     -9.556  0.2551E+00  0.2758E+00
     -9.401  0.0000E+00  0.3000E+00
     -9.247  0.0000E+00  0.3000E+00
     -9.092  0.0000E+00  0.3000E+00
     -8.937  0.0000E+00  0.3000E+00
     -8.783  0.0000E+00  0.3000E+00
     -8.628  0.0000E+00  0.3000E+00
     -8.474  0.0000E+00  0.3000E+00
     -8.319  0.0000E+00  0.3000E+00
     -8.164  0.0000E+00  0.3000E+00
     -8.010  0.0000E+00  0.3000E+00
     -7.855  0.0000E+00  0.3000E+00
     -7.700  0.0000E+00  0.3000E+00
     -7.546  0.0000E+00  0.3000E+00
     -7.391  0.0000E+00  0.3000E+00
     -7.236  0.0000E+00  0.3000E+00
     -7.082  0.0000E+00  0.3000E+00
     -6.927  0.0000E+00  0.3000E+00
     -6.773  0.0000E+00  0.3000E+00
     -6.618  0.0000E+00  0.3000E+00
     -6.463  0.0000E+00  0.3000E+00
     -6.309  0.0000E+00  0.3000E+00
     -6.154  0.0000E+00  0.3000E+00
     -5.999  0.0000E+00  0.3000E+00
     -5.845  0.0000E+00  0.3000E+00
     -5.690  0.0000E+00  0.3000E+00
     -5.536  0.0000E+00  0.3000E+00
     -5.381  0.0000E+00  0.3000E+00
     -5.226  0.0000E+00  0.3000E+00
     -5.072  0.0000E+00  0.3000E+00
     -4.917  0.0000E+00  0.3000E+00
     -4.762  0.0000E+00  0.3000E+00
     -4.608  0.0000E+00  0.3000E+00
     -4.453  0.0000E+00  0.3000E+00
     -4.298  0.0000E+00  0.3000E+00
     -4.144  0.0000E+00  0.3000E+00
     -3.989  0.0000E+00  0.3000E+00
     -3.835  0.0000E+00  0.3000E+00
     -3.680  0.9149E-03  0.3001E+00
     -3.525  0.3773E-02  0.3008E+00
     -3.371  0.4710E-02  0.3017E+00
     -3.216  0.3224E-02  0.3029E+00
     -3.061  0.2413E-01  0.3084E+00
     -2.907  0.5276E-01  0.3230E+00
     -2.752  0.1716E-01  0.3325E+00
     -2.597  0.0000E+00  0.3333E+00
     -2.443  0.0000E+00  0.3333E+00
     -2.288  0.0000E+00  0.3333E+00
     -2.134  0.0000E+00  0.3333E+00
     -1.979  0.0000E+00  0.3333E+00
     -1.824  0.0000E+00  0.3333E+00
     -1.670  0.0000E+00  0.3333E+00
     -1.515  0.0000E+00  0.3333E+00
     -1.360  0.0000E+00  0.3333E+00
     -1.206  0.0000E+00  0.3333E+00
     -1.051  0.0000E+00  0.3333E+00
     -0.897  0.0000E+00  0.3333E+00
     -0.742  0.0000E+00  0.3333E+00
     -0.587  0.0000E+00  0.3333E+00
     -0.433  0.0000E+00  0.3333E+00
     -0.278  0.0000E+00  0.3333E+00
     -0.123  0.0000E+00  0.3333E+00
      0.031  0.0000E+00  0.3333E+00
      0.186  0.0000E+00  0.3333E+00
      0.341  0.0000E+00  0.3333E+00
      0.495  0.0000E+00  0.3333E+00
      0.650  0.0000E+00  0.3333E+00
      0.804  0.0000E+00  0.3333E+00
      0.959  0.0000E+00  0.3333E+00
      1.114  0.0000E+00  0.3333E+00
      1.268  0.0000E+00  0.3333E+00
      1.423  0.0000E+00  0.3333E+00
      1.578  0.0000E+00  0.3333E+00
      1.732  0.0000E+00  0.3333E+00
      1.887  0.0000E+00  0.3333E+00
      2.042  0.0000E+00  0.3333E+00
      2.196  0.0000E+00  0.3333E+00
      2.351  0.0000E+00  0.3333E+00
      2.505  0.1638E-02  0.3336E+00
      2.660  0.7850E-02  0.3354E+00
      2.815  0.3923E-01  0.3436E+00
      2.969  0.2037E-01  0.3509E+00
      3.124  0.2391E-01  0.3560E+00
      3.279  0.1178E-01  0.3589E+00
      3.433  0.9348E-02  0.3624E+00
      3.588  0.7577E-01  0.3779E+00
      3.742  0.5043E-01  0.3954E+00
      3.897  0.5657E-01  0.4092E+00
      4.052  0.4587E-01  0.4222E+00
      4.206  0.2068E-01  0.4321E+00
      4.361  0.5298E-02  0.4345E+00
      4.516  0.6111E-01  0.4448E+00
      4.670  0.7849E-01  0.4747E+00
      4.825  0.8179E-01  0.5006E+00
      4.980  0.3127E-01  0.5101E+00
      5.134  0.3109E-01  0.5198E+00
      5.289  0.1913E-01  0.5263E+00
      5.443  0.1742E-01  0.5303E+00
      5.598  0.1589E-01  0.5338E+00
      5.753  0.1316E-01  0.5365E+00
      5.907  0.5393E-02  0.5411E+00
      6.062  0.1219E-01  0.5448E+00
      6.217  0.1434E-01  0.5508E+00
      6.371  0.9690E-02  0.5540E+00
      6.526  0.1420E-01  0.5595E+00
      6.681  0.1270E-01  0.5622E+00
      6.835  0.9018E-01  0.5850E+00
      6.990  0.2546E-01  0.5964E+00
      7.144  0.4316E-03  0.5988E+00
      7.299  0.6731E-03  0.5996E+00
      7.454  0.2944E-03  0.6000E+00
      7.608  0.5507E-03  0.6001E+00
      7.763  0.5970E-03  0.6002E+00
      7.918  0.1412E-02  0.6005E+00
      8.072  0.7817E-03  0.6009E+00
      8.227  0.9314E-02  0.6044E+00
      8.381  0.2359E-01  0.6093E+00
      8.536  0.2630E-01  0.6185E+00
      8.691  0.2561E-01  0.6269E+00
      8.845  0.2442E-01  0.6335E+00
      9.000  0.8149E-02  0.6359E+00
      9.155  0.4713E-02  0.6384E+00
      9.309  0.1278E-01  0.6410E+00
      9.464  0.1493E-01  0.6469E+00
      9.619  0.4351E-01  0.6584E+00
      9.773  0.4343E-01  0.6705E+00
      9.928  0.2490E-01  0.6792E+00
     10.082  0.4466E-01  0.6902E+00
     10.237  0.6598E-01  0.7142E+00
     10.392  0.1681E+00  0.7545E+00
     10.546  0.7660E-01  0.7807E+00
     10.701  0.0000E+00  0.8000E+00
     10.856  0.0000E+00  0.8000E+00
     11.010  0.0000E+00  0.8000E+00
     11.165  0.0000E+00  0.8000E+00
     11.320  0.0000E+00  0.8000E+00
     11.474  0.0000E+00  0.8000E+00
     11.629  0.0000E+00  0.8000E+00
     11.783  0.0000E+00  0.8000E+00
     11.938  0.0000E+00  0.8000E+00
     12.093  0.0000E+00  0.8000E+00
     12.247  0.0000E+00  0.8000E+00
     12.402  0.0000E+00  0.8000E+00
     12.557  0.0000E+00  0.8000E+00
     12.711  0.0000E+00  0.8000E+00
