    3    3   60    1
  0.2784214E+02  0.4906588E-09  0.4906588E-09  0.4906588E-09  0.1000000E-15
  1.000000000000000E-004
  CAR
 unknown system
     37     84     24

  0.0000000E+00  0.0000000E+00  0.0000000E+00  0.4551661E-03
    1      -31.570158   1.000000
    2      -14.479244   1.000000
    3      -14.479244   1.000000
    4      -14.445905   1.000000
    5      -14.445905   1.000000
    6      -14.445905   1.000000
    7       -9.559189   1.000000
    8       -9.559189   1.000000
    9       -9.559189   1.000000
   10       -3.751780   1.000000
   11        4.184799   1.000000
   12        4.184799   1.000000
   13        4.184799   1.000000
   14        4.397804   1.000000
   15        4.397804   1.000000
   16        6.611023   1.000000
   17        7.404557   1.000000
   18        7.404557   1.000000
   19        7.404557   1.000000
   20        8.737713   0.000000
   21        8.737713   0.000000
   22        8.737713   0.000000
   23        9.558151   0.000000
   24       10.501467   0.000000

  0.7692308E-01 -0.1778040E-17  0.1993333E-17  0.3641329E-02
    1      -31.569841   1.000000
    2      -14.479948   1.000000
    3      -14.479948   1.000000
    4      -14.446038   1.000000
    5      -14.445760   1.000000
    6      -14.445760   1.000000
    7       -9.575687   1.000000
    8       -9.557088   1.000000
    9       -9.557088   1.000000
   10       -3.690834   1.000000
   11        4.050943   1.000000
   12        4.059742   1.000000
   13        4.059742   1.000000
   14        4.515557   1.000000
   15        4.515557   1.000000
   16        6.293162   1.000000
   17        7.322532   1.000000
   18        7.322532   1.000000
   19        7.604567   1.000000
   20        8.833592   0.000000
   21        8.833593   0.000000
   22        8.842221   0.000000
   23        9.779248   0.000000
   24       10.509074   0.000000

  0.1538462E+00 -0.1811607E-17  0.2242194E-17  0.3641329E-02
    1      -31.568968   1.000000
    2      -14.481940   1.000000
    3      -14.481940   1.000000
    4      -14.446493   1.000000
    5      -14.445344   1.000000
    6      -14.445344   1.000000
    7       -9.619775   1.000000
    8       -9.551277   1.000000
    9       -9.551277   1.000000
   10       -3.521948   1.000000
   11        3.713032   1.000000
   12        3.892053   1.000000
   13        3.892053   1.000000
   14        4.651077   1.000000
   15        4.651077   1.000000
   16        5.787736   1.000000
   17        7.152957   1.000000
   18        7.152957   1.000000
   19        7.757935   1.000000
   20        9.060291   0.000000
   21        9.060291   0.000000
   22        9.299012   0.000000
   23       10.176086   0.000000
   24       10.511705   0.000000

  0.2307692E+00 -0.3589647E-17  0.4235527E-17  0.3641329E-02
    1      -31.567740   1.000000
    2      -14.484771   1.000000
    3      -14.484771   1.000000
    4      -14.447174   1.000000
    5      -14.444734   1.000000
    6      -14.444734   1.000000
    7       -9.678168   1.000000
    8       -9.543116   1.000000
    9       -9.543116   1.000000
   10       -3.283511   1.000000
   11        3.296798   1.000000
   12        3.763561   1.000000
   13        3.763561   1.000000
   14        4.703220   1.000000
   15        4.703220   1.000000
   16        5.341614   1.000000
   17        7.006670   1.000000
   18        7.006670   1.000000
   19        7.837922   1.000000
   20        9.334520   0.000000
   21        9.334520   0.000000
   22        9.920272   0.000000
   23       10.487683   0.000000
   24       10.516998   0.000000

  0.3076923E+00 -0.3623214E-17  0.4484387E-17  0.3641329E-02
    1      -31.566435   1.000000
    2      -14.487787   1.000000
    3      -14.487787   1.000000
    4      -14.447994   1.000000
    5      -14.444059   1.000000
    6      -14.444059   1.000000
    7       -9.735784   1.000000
    8       -9.534493   1.000000
    9       -9.534493   1.000000
   10       -3.029566   1.000000
   11        2.908817   1.000000
   12        3.688106   1.000000
   13        3.688106   1.000000
   14        4.660033   1.000000
   15        4.660033   1.000000
   16        5.010968   1.000000
   17        6.930667   1.000000
   18        6.930667   1.000000
   19        7.951973   1.000000
   20        9.602024   0.000000
   21        9.602024   0.000000
   22       10.383539   0.000000
   23       10.483461   0.000000
   24       10.483473   0.000000

  0.3846154E+00  0.6635929E-17 -0.5559464E-17  0.3641329E-02
    1      -31.565353   1.000000
    2      -14.490289   1.000000
    3      -14.490289   1.000000
    4      -14.448755   1.000000
    5      -14.443478   1.000000
    6      -14.443478   1.000000
    7       -9.780453   1.000000
    8       -9.527380   1.000000
    9       -9.527380   1.000000
   10       -2.818238   1.000000
   11        2.618571   1.000000
   12        3.660783   1.000000
   13        3.660783   1.000000
   14        4.565150   1.000000
   15        4.565150   1.000000
   16        4.803950   1.000000
   17        6.910799   1.000000
   18        6.910799   1.000000
   19        8.113902   1.000000
   20        9.812992   0.000000
   21        9.812992   0.000000
   22       10.449633   0.000000
   23       10.449634   0.000000
   24       10.514722   0.000000

  0.4615385E+00  0.1028357E-16 -0.8991811E-17  0.3641329E-02
    1      -31.564744   1.000000
    2      -14.491722   1.000000
    3      -14.491722   1.000000
    4      -14.449224   1.000000
    5      -14.443157   1.000000
    6      -14.443156   1.000000
    7       -9.804531   1.000000
    8       -9.523378   1.000000
    9       -9.523378   1.000000
   10       -2.698602   1.000000
   11        2.465065   1.000000
   12        3.660088   1.000000
   13        3.660088   1.000000
   14        4.489704   1.000000
   15        4.489704   1.000000
   16        4.707639   1.000000
   17        6.912013   1.000000
   18        6.912013   1.000000
   19        8.261172   1.000000
   20        9.927618   0.000000
   21        9.927618   0.000000
   22       10.393314   0.000000
   23       10.427183   0.000000
   24       10.427183   0.000000

  0.7692308E-01  0.7692308E-01  0.3716960E-17  0.2730997E-02
    1      -31.569737   1.000000
    2      -14.481247   1.000000
    3      -14.478985   1.000000
    4      -14.446219   1.000000
    5      -14.445637   1.000000
    6      -14.445637   1.000000
    7       -9.571813   1.000000
    8       -9.561104   1.000000
    9       -9.561104   1.000000
   10       -3.672160   1.000000
   11        3.793538   1.000000
   12        4.198346   1.000000
   13        4.198346   1.000000
   14        4.414452   1.000000
   15        4.554043   1.000000
   16        6.275476   1.000000
   17        7.203266   1.000000
   18        7.203266   1.000000
   19        7.844287   1.000000
   20        8.559042   0.000000
   21        8.996834   0.000000
   22        8.996834   0.000000
   23        9.818991   0.000000
   24       10.485262   0.000000

  0.1538462E+00  0.7692308E-01  0.6794468E-18  0.1092399E-01
    1      -31.569054   1.000000
    2      -14.483508   1.000000
    3      -14.479485   1.000000
    4      -14.446603   1.000000
    5      -14.445346   1.000000
    6      -14.445258   1.000000
    7       -9.604481   1.000000
    8       -9.560722   1.000000
    9       -9.554710   1.000000
   10       -3.544271   1.000000
   11        3.509453   1.000000
   12        4.075117   1.000000
   13        4.103994   1.000000
   14        4.519149   1.000000
   15        4.654608   1.000000
   16        5.940910   1.000000
   17        7.025014   1.000000
   18        7.036190   1.000000
   19        8.097009   1.000000
   20        8.586125   0.000000
   21        9.234345   0.000000
   22        9.321577   0.000000
   23       10.112083   0.000000
   24       10.471371   0.000000

  0.2307692E+00  0.7692308E-01  0.8321758E-18  0.1092399E-01
    1      -31.567949   1.000000
    2      -14.486188   1.000000
    3      -14.481358   1.000000
    4      -14.447138   1.000000
    5      -14.444916   1.000000
    6      -14.444658   1.000000
    7       -9.657544   1.000000
    8       -9.556061   1.000000
    9       -9.545275   1.000000
   10       -3.337473   1.000000
   11        3.219501   1.000000
   12        3.846566   1.000000
   13        3.975602   1.000000
   14        4.600996   1.000000
   15        4.744634   1.000000
   16        5.523704   1.000000
   17        6.856664   1.000000
   18        6.911229   1.000000
   19        8.137144   1.000000
   20        8.937086   0.000000
   21        9.477510   0.000000
   22        9.796710   0.000000
   23       10.417681   0.000000
   24       10.460152   0.000000

  0.3076923E+00  0.7692308E-01  0.1081036E-17  0.1092399E-01
    1      -31.566676   1.000000
    2      -14.488687   1.000000
    3      -14.484185   1.000000
    4      -14.447769   1.000000
    5      -14.444390   1.000000
    6      -14.443962   1.000000
    7       -9.714408   1.000000
    8       -9.548215   1.000000
    9       -9.537155   1.000000
   10       -3.100162   1.000000
   11        2.935702   1.000000
   12        3.674055   1.000000
   13        3.876379   1.000000
   14        4.589078   1.000000
   15        4.752843   1.000000
   16        5.158619   1.000000
   17        6.765246   1.000000
   18        6.860955   1.000000
   19        8.131782   1.000000
   20        9.353910   0.000000
   21        9.697787   0.000000
   22       10.242988   0.000000
   23       10.447334   0.000000
   24       10.511316   0.000000

  0.3846154E+00  0.7692308E-01  0.4914973E-17  0.1092399E-01
    1      -31.565526   1.000000
    2      -14.490477   1.000000
    3      -14.487286   1.000000
    4      -14.448436   1.000000
    5      -14.443881   1.000000
    6      -14.443368   1.000000
    7       -9.762198   1.000000
    8       -9.538980   1.000000
    9       -9.532183   1.000000
   10       -2.887110   1.000000
   11        2.697799   1.000000
   12        3.600437   1.000000
   13        3.801539   1.000000
   14        4.525457   1.000000
   15        4.684901   1.000000
   16        4.897053   1.000000
   17        6.742963   1.000000
   18        6.861466   1.000000
   19        8.197318   1.000000
   20        9.675299   0.000000
   21        9.869153   0.000000
   22       10.393374   0.000000
   23       10.430433   0.000000
   24       10.551876   0.000000

  0.4615385E+00  0.7692308E-01 -0.2198582E-17  0.1092399E-01
    1      -31.564761   1.000000
    2      -14.491112   1.000000
    3      -14.489950   1.000000
    4      -14.448907   1.000000
    5      -14.443476   1.000000
    6      -14.443017   1.000000
    7       -9.792172   1.000000
    8       -9.531398   1.000000
    9       -9.530451   1.000000
   10       -2.746149   1.000000
   11        2.547767   1.000000
   12        3.612248   1.000000
   13        3.727739   1.000000
   14        4.489136   1.000000
   15        4.585987   1.000000
   16        4.749745   1.000000
   17        6.751113   1.000000
   18        6.873213   1.000000
   19        8.316356   1.000000
   20        9.835451   0.000000
   21        9.964184   0.000000
   22       10.372102   0.000000
   23       10.412290   0.000000
   24       10.522966   0.000000

 -0.4615385E+00  0.7692308E-01  0.2314746E-16  0.1092399E-01
    1      -31.564559   1.000000
    2      -14.491557   1.000000
    3      -14.490460   1.000000
    4      -14.449030   1.000000
    5      -14.443319   1.000000
    6      -14.443010   1.000000
    7       -9.799826   1.000000
    8       -9.534867   1.000000
    9       -9.524550   1.000000
   10       -2.707599   1.000000
   11        2.507897   1.000000
   12        3.644515   1.000000
   13        3.678300   1.000000
   14        4.506236   1.000000
   15        4.528885   1.000000
   16        4.715969   1.000000
   17        6.750774   1.000000
   18        6.877376   1.000000
   19        8.374660   1.000000
   20        9.866833   0.000000
   21        9.959089   0.000000
   22       10.374468   0.000000
   23       10.405666   0.000000
   24       10.480998   0.000000

 -0.3846154E+00  0.7692308E-01 -0.8040467E-17  0.1092399E-01
    1      -31.564963   1.000000
    2      -14.491736   1.000000
    3      -14.488648   1.000000
    4      -14.448720   1.000000
    5      -14.443442   1.000000
    6      -14.443320   1.000000
    7       -9.784197   1.000000
    8       -9.541690   1.000000
    9       -9.522618   1.000000
   10       -2.779703   1.000000
   11        2.585939   1.000000
   12        3.574865   1.000000
   13        3.765596   1.000000
   14        4.488186   1.000000
   15        4.630273   1.000000
   16        4.788747   1.000000
   17        6.720277   1.000000
   18        6.881479   1.000000
   19        8.298505   1.000000
   20        9.836589   0.000000
   21        9.888443   0.000000
   22       10.389340   0.000000
   23       10.418857   0.000000
   24       10.546691   0.000000

 -0.3076923E+00  0.7692308E-01  0.9671258E-17  0.1092399E-01
    1      -31.565882   1.000000
    2      -14.490473   1.000000
    3      -14.486083   1.000000
    4      -14.448120   1.000000
    5      -14.443876   1.000000
    6      -14.443814   1.000000
    7       -9.747621   1.000000
    8       -9.550198   1.000000
    9       -9.525120   1.000000
   10       -2.947718   1.000000
   11        2.779799   1.000000
   12        3.549831   1.000000
   13        3.860622   1.000000
   14        4.530235   1.000000
   15        4.741237   1.000000
   16        4.970212   1.000000
   17        6.665535   1.000000
   18        6.912643   1.000000
   19        8.196457   1.000000
   20        9.607411   0.000000
   21        9.786186   0.000000
   22       10.377296   0.000000
   23       10.442493   0.000000
   24       10.546740   0.000000

 -0.2307692E+00  0.7692308E-01  0.6238910E-17  0.1092399E-01
    1      -31.567105   1.000000
    2      -14.488081   1.000000
    3      -14.483362   1.000000
    4      -14.447416   1.000000
    5      -14.444552   1.000000
    6      -14.444360   1.000000
    7       -9.696216   1.000000
    8       -9.558273   1.000000
    9       -9.531511   1.000000
   10       -3.174843   1.000000
   11        3.071757   1.000000
   12        3.588136   1.000000
   13        3.975890   1.000000
   14        4.571594   1.000000
   15        4.802648   1.000000
   16        5.265603   1.000000
   17        6.631576   1.000000
   18        7.002645   1.000000
   19        8.146841   1.000000
   20        9.317950   0.000000
   21        9.520342   0.000000
   22       10.133378   0.000000
   23       10.466056   0.000000
   24       10.520552   0.000000

 -0.1538462E+00  0.7692308E-01 -0.3804940E-17  0.1092399E-01
    1      -31.568353   1.000000
    2      -14.485082   1.000000
    3      -14.481123   1.000000
    4      -14.446796   1.000000
    5      -14.445162   1.000000
    6      -14.444933   1.000000
    7       -9.640629   1.000000
    8       -9.563610   1.000000
    9       -9.540347   1.000000
   10       -3.409016   1.000000
   11        3.420689   1.000000
   12        3.694468   1.000000
   13        4.118167   1.000000
   14        4.542214   1.000000
   15        4.776967   1.000000
   16        5.649316   1.000000
   17        6.701793   1.000000
   18        7.153167   1.000000
   19        8.120403   1.000000
   20        9.036343   0.000000
   21        9.102559   0.000000
   22        9.721475   0.000000
   23       10.330118   0.000000
   24       10.483859   0.000000

 -0.7692308E-01  0.7692308E-01 -0.3556080E-17  0.5461994E-02
    1      -31.569341   1.000000
    2      -14.482133   1.000000
    3      -14.479892   1.000000
    4      -14.446318   1.000000
    5      -14.445596   1.000000
    6      -14.445428   1.000000
    7       -9.595988   1.000000
    8       -9.563336   1.000000
    9       -9.549586   1.000000
   10       -3.595640   1.000000
   11        3.766781   1.000000
   12        3.860280   1.000000
   13        4.210041   1.000000
   14        4.472378   1.000000
   15        4.668724   1.000000
   16        6.029331   1.000000
   17        6.964054   1.000000
   18        7.297775   1.000000
   19        7.930617   1.000000
   20        8.802951   0.000000
   21        8.845251   0.000000
   22        9.291639   0.000000
   23       10.015802   0.000000
   24       10.495535   0.000000

  0.1538462E+00  0.1538462E+00  0.7433921E-17  0.2730997E-02
    1      -31.568593   1.000000
    2      -14.485417   1.000000
    3      -14.478257   1.000000
    4      -14.447136   1.000000
    5      -14.444893   1.000000
    6      -14.444893   1.000000
    7       -9.605157   1.000000
    8       -9.566511   1.000000
    9       -9.566511   1.000000
   10       -3.471402   1.000000
   11        3.219582   1.000000
   12        4.224373   1.000000
   13        4.224373   1.000000
   14        4.461495   1.000000
   15        4.580881   1.000000
   16        5.923986   1.000000
   17        6.887015   1.000000
   18        6.887015   1.000000
   19        8.154427   1.000000
   20        8.599351   0.000000
   21        9.457054   0.000000
   22        9.457054   0.000000
   23       10.216720   0.000000
   24       10.430227   0.000000

  0.2307692E+00  0.1538462E+00  0.1397139E-16  0.1092399E-01
    1      -31.567688   1.000000
    2      -14.487246   1.000000
    3      -14.478634   1.000000
    4      -14.447699   1.000000
    5      -14.444444   1.000000
    6      -14.444313   1.000000
    7       -9.642131   1.000000
    8       -9.567348   1.000000
    9       -9.561711   1.000000
   10       -3.323774   1.000000
   11        2.983705   1.000000
   12        4.086168   1.000000
   13        4.163235   1.000000
   14        4.527174   1.000000
   15        4.635652   1.000000
   16        5.706398   1.000000
   17        6.692722   1.000000
   18        6.784412   1.000000
   19        8.302707   1.000000
   20        8.739325   0.000000
   21        9.660854   0.000000
   22        9.763635   0.000000
   23       10.396286   0.000000
   24       10.416943   0.000000

  0.3076923E+00  0.1538462E+00  0.3103366E-17  0.1092399E-01
    1      -31.566550   1.000000
    2      -14.488572   1.000000
    3      -14.480492   1.000000
    4      -14.448149   1.000000
    5      -14.444093   1.000000
    6      -14.443622   1.000000
    7       -9.691658   1.000000
    8       -9.563073   1.000000
    9       -9.554557   1.000000
   10       -3.139906   1.000000
   11        2.824620   1.000000
   12        3.853156   1.000000
   13        4.065476   1.000000
   14        4.548636   1.000000
   15        4.711708   1.000000
   16        5.398786   1.000000
   17        6.511791   1.000000
   18        6.757311   1.000000
   19        8.376311   1.000000
   20        9.109471   0.000000
   21        9.829153   0.000000
   22       10.115586   0.000000
   23       10.379433   0.000000
   24       10.531284   0.000000

  0.3846154E+00  0.1538462E+00  0.5096699E-17  0.1092399E-01
    1      -31.565439   1.000000
    2      -14.489114   1.000000
    3      -14.483402   1.000000
    4      -14.448452   1.000000
    5      -14.443903   1.000000
    6      -14.443009   1.000000
    7       -9.736468   1.000000
    8       -9.554692   1.000000
    9       -9.552083   1.000000
   10       -2.964243   1.000000
   11        2.740558   1.000000
   12        3.678535   1.000000
   13        3.959164   1.000000
   14        4.525461   1.000000
   15        4.723040   1.000000
   16        5.100210   1.000000
   17        6.431794   1.000000
   18        6.775455   1.000000
   19        8.367495   1.000000
   20        9.546313   0.000000
   21        9.958738   0.000000
   22       10.318149   0.000000
   23       10.378680   0.000000
   24       10.566278   0.000000

  0.4615385E+00  0.1538462E+00  0.1664352E-17  0.1092399E-01
    1      -31.564609   1.000000
    2      -14.488756   1.000000
    3      -14.486649   1.000000
    4      -14.448565   1.000000
    5      -14.443835   1.000000
    6      -14.442631   1.000000
    7       -9.767197   1.000000
    8       -9.555246   1.000000
    9       -9.544101   1.000000
   10       -2.833932   1.000000
   11        2.704952   1.000000
   12        3.611153   1.000000
   13        3.828418   1.000000
   14        4.529812   1.000000
   15        4.673926   1.000000
   16        4.885886   1.000000
   17        6.415299   1.000000
   18        6.792657   1.000000
   19        8.426665   1.000000
   20        9.744796   0.000000
   21       10.038563   0.000000
   22       10.344267   0.000000
   23       10.377950   0.000000
   24       10.581823   0.000000

 -0.4615385E+00  0.1538462E+00 -0.8107602E-17  0.1092399E-01
    1      -31.564250   1.000000
    2      -14.489501   1.000000
    3      -14.487590   1.000000
    4      -14.448469   1.000000
    5      -14.443858   1.000000
    6      -14.442600   1.000000
    7       -9.779139   1.000000
    8       -9.562931   1.000000
    9       -9.533690   1.000000
   10       -2.771755   1.000000
   11        2.687210   1.000000
   12        3.652854   1.000000
   13        3.683158   1.000000
   14        4.590781   1.000000
   15        4.595904   1.000000
   16        4.802540   1.000000
   17        6.404289   1.000000
   18        6.791862   1.000000
   19        8.527299   0.000002
   20        9.713797   0.000000
   21       10.044573   0.000000
   22       10.373537   0.000000
   23       10.392220   0.000000
   24       10.544761   0.000000

 -0.3846154E+00  0.1538462E+00  0.1621563E-16  0.1092399E-01
    1      -31.564442   1.000000
    2      -14.491301   1.000000
    3      -14.485870   1.000000
    4      -14.448171   1.000000
    5      -14.443947   1.000000
    6      -14.442900   1.000000
    7       -9.771322   1.000000
    8       -9.572640   1.000000
    9       -9.525812   1.000000
   10       -2.788120   1.000000
   11        2.686621   1.000000
   12        3.558007   1.000000
   13        3.772091   1.000000
   14        4.517323   1.000000
   15        4.705039   1.000000
   16        4.856319   1.000000
   17        6.354373   1.000000
   18        6.788444   1.000000
   19        8.561288   0.000000
   20        9.752934   0.000000
   21        9.941341   0.000000
   22       10.381076   0.000000
   23       10.405787   0.000000
   24       10.557476   0.000000

 -0.3076923E+00  0.1538462E+00  0.9852984E-17  0.1092399E-01
    1      -31.565144   1.000000
    2      -14.491669   1.000000
    3      -14.483971   1.000000
    4      -14.447787   1.000000
    5      -14.444090   1.000000
    6      -14.443464   1.000000
    7       -9.746042   1.000000
    8       -9.581015   1.000000
    9       -9.522286   1.000000
   10       -2.883501   1.000000
   11        2.735531   1.000000
   12        3.483828   1.000000
   13        3.932129   1.000000
   14        4.483551   1.000000
   15        4.814031   1.000000
   16        5.025958   1.000000
   17        6.258373   1.000000
   18        6.815385   1.000000
   19        8.544437   0.000000
   20        9.727507   0.000000
   21        9.794704   0.000000
   22       10.379676   0.000000
   23       10.401345   0.000000
   24       10.592034   0.000000

 -0.2307692E+00  0.1538462E+00  0.6420636E-17  0.1092399E-01
    1      -31.566194   1.000000
    2      -14.490542   1.000000
    3      -14.482297   1.000000
    4      -14.447422   1.000000
    5      -14.444280   1.000000
    6      -14.444126   1.000000
    7       -9.709165   1.000000
    8       -9.584223   1.000000
    9       -9.523958   1.000000
   10       -3.043620   1.000000
   11        2.872267   1.000000
   12        3.479151   1.000000
   13        4.100067   1.000000
   14        4.472211   1.000000
   15        4.875238   1.000000
   16        5.280791   1.000000
   17        6.175402   1.000000
   18        6.901942   1.000000
   19        8.543149   0.000000
   20        9.451743   0.000000
   21        9.618661   0.000000
   22       10.290896   0.000000
   23       10.426168   0.000000
   24       10.592271   0.000000

 -0.1538462E+00  0.1538462E+00 -0.3623214E-17  0.5461994E-02
    1      -31.567352   1.000000
    2      -14.488172   1.000000
    3      -14.481255   1.000000
    4      -14.447120   1.000000
    5      -14.444733   1.000000
    6      -14.444548   1.000000
    7       -9.670640   1.000000
    8       -9.578413   1.000000
    9       -9.530475   1.000000
   10       -3.234510   1.000000
   11        3.109606   1.000000
   12        3.550855   1.000000
   13        4.218128   1.000000
   14        4.457470   1.000000
   15        4.860805   1.000000
   16        5.518614   1.000000
   17        6.279906   1.000000
   18        7.038757   1.000000
   19        8.478954   0.987073
   20        9.191025   0.000000
   21        9.264098   0.000000
   22       10.072802   0.000000
   23       10.453601   0.000000
   24       10.506360   0.000000

  0.2307692E+00  0.2307692E+00  0.1115088E-16  0.2730997E-02
    1      -31.567015   1.000000
    2      -14.487697   1.000000
    3      -14.477266   1.000000
    4      -14.448469   1.000000
    5      -14.443752   1.000000
    6      -14.443752   1.000000
    7       -9.648784   1.000000
    8       -9.574400   1.000000
    9       -9.574400   1.000000
   10       -3.251287   1.000000
   11        2.810607   1.000000
   12        4.228563   1.000000
   13        4.228563   1.000000
   14        4.462068   1.000000
   15        4.530177   1.000000
   16        5.697806   1.000000
   17        6.700385   1.000000
   18        6.700385   1.000000
   19        8.070023   1.000000
   20        9.005256   0.000000
   21        9.820470   0.000000
   22        9.820470   0.000000
   23       10.330836   0.000000
   24       10.498053   0.000000

  0.3076923E+00  0.2307692E+00  0.1081690E-16  0.1092399E-01
    1      -31.566088   1.000000
    2      -14.487434   1.000000
    3      -14.477606   1.000000
    4      -14.449048   1.000000
    5      -14.443249   1.000000
    6      -14.443083   1.000000
    7       -9.680662   1.000000
    8       -9.575654   1.000000
    9       -9.574290   1.000000
   10       -3.144637   1.000000
   11        2.745314   1.000000
   12        4.051035   1.000000
   13        4.179350   1.000000
   14        4.521462   1.000000
   15        4.562676   1.000000
   16        5.542566   1.000000
   17        6.537371   1.000000
   18        6.690296   1.000000
   19        8.221606   1.000000
   20        9.175602   0.000000
   21        9.943038   0.000000
   22       10.023924   0.000000
   23       10.290957   0.000000
   24       10.543566   0.000000

  0.3846154E+00  0.2307692E+00  0.3533952E-17  0.1092399E-01
    1      -31.565113   1.000000
    2      -14.486482   1.000000
    3      -14.479538   1.000000
    4      -14.449265   1.000000
    5      -14.443094   1.000000
    6      -14.442453   1.000000
    7       -9.715591   1.000000
    8       -9.575598   1.000000
    9       -9.570858   1.000000
   10       -3.032652   1.000000
   11        2.787533   1.000000
   12        3.825025   1.000000
   13        4.078462   1.000000
   14        4.571853   1.000000
   15        4.618946   1.000000
   16        5.313762   1.000000
   17        6.312701   1.000000
   18        6.720256   1.000000
   19        8.379345   1.000000
   20        9.486401   0.000000
   21       10.037393   0.000000
   22       10.235584   0.000000
   23       10.300334   0.000000
   24       10.565433   0.000000

  0.4615385E+00  0.2307692E+00  0.1942209E-17  0.1092399E-01
    1      -31.564319   1.000000
    2      -14.485134   1.000000
    3      -14.482588   1.000000
    4      -14.449048   1.000000
    5      -14.443347   1.000000
    6      -14.442068   1.000000
    7       -9.740174   1.000000
    8       -9.584045   1.000000
    9       -9.561118   1.000000
   10       -2.937539   1.000000
   11        2.892098   1.000000
   12        3.676917   1.000000
   13        3.933052   1.000000
   14        4.599550   1.000000
   15        4.658348   1.000000
   16        5.086939   1.000000
   17        6.159570   1.000000
   18        6.734670   1.000000
   19        8.455525   1.000000
   20        9.715495   0.000000
   21       10.106279   0.000000
   22       10.307393   0.000000
   23       10.333552   0.000000
   24       10.593829   0.000000

 -0.4615385E+00  0.2307692E+00 -0.2170753E-16  0.1092399E-01
    1      -31.563887   1.000000
    2      -14.486040   1.000000
    3      -14.483710   1.000000
    4      -14.448436   1.000000
    5      -14.443911   1.000000
    6      -14.442031   1.000000
    7       -9.749597   1.000000
    8       -9.598187   1.000000
    9       -9.548625   1.000000
   10       -2.871503   1.000000
   11        2.964932   1.000000
   12        3.637757   1.000000
   13        3.763840   1.000000
   14        4.621694   1.000000
   15        4.670210   1.000000
   16        4.969766   1.000000
   17        6.065848   1.000000
   18        6.716755   1.000000
   19        8.574917   0.000000
   20        9.659235   0.000000
   21       10.135330   0.000000
   22       10.349611   0.000000
   23       10.360549   0.000000
   24       10.571051   0.000000

 -0.3846154E+00  0.2307692E+00  0.2615696E-17  0.1092399E-01
    1      -31.563913   1.000000
    2      -14.489109   1.000000
    3      -14.482548   1.000000
    4      -14.447589   1.000000
    5      -14.444556   1.000000
    6      -14.442328   1.000000
    7       -9.744761   1.000000
    8       -9.612643   1.000000
    9       -9.536187   1.000000
   10       -2.842344   1.000000
   11        2.931002   1.000000
   12        3.607249   1.000000
   13        3.707172   1.000000
   14        4.557309   1.000000
   15        4.767855   1.000000
   16        5.005547   1.000000
   17        5.985897   1.000000
   18        6.692439   1.000000
   19        8.718710   0.000000
   20        9.593090   0.000000
   21       10.080885   0.000000
   22       10.352791   0.000000