       N       E                     dE             d eps       ncg     rms          rms(c)
DAV:   1     0.398053386570E+03    0.39805E+03   -0.17259E+04  4032   0.161E+03
DAV:   2     0.382603078267E+02   -0.35979E+03   -0.35279E+03  4168   0.435E+02
DAV:   3    -0.190054271809E+02   -0.57266E+02   -0.56565E+02  5488   0.156E+02
DAV:   4    -0.228582536414E+02   -0.38528E+01   -0.38441E+01  7496   0.412E+01
DAV:   5    -0.229470627832E+02   -0.88809E-01   -0.88790E-01  5384   0.489E+00    0.309E+01
DAV:   6    -0.219929762615E+02    0.95409E+00   -0.18373E+00  5088   0.812E+00    0.192E+01
DAV:   7    -0.218803153137E+02    0.11266E+00   -0.25171E+00  6080   0.841E+00    0.634E+00
DAV:   8    -0.218294791109E+02    0.50836E-01   -0.32301E-01  5048   0.278E+00    0.482E+00
DAV:   9    -0.218174311608E+02    0.12048E-01   -0.22119E-01  6040   0.224E+00    0.323E+00
DAV:  10    -0.218121349428E+02    0.52962E-02   -0.33423E-02  4912   0.109E+00    0.645E-01
DAV:  11    -0.218122398970E+02   -0.10495E-03   -0.24288E-03  5544   0.311E-01    0.276E-01
DAV:  12    -0.218121243037E+02    0.11559E-03   -0.62040E-04  5640   0.138E-01    0.376E-02
DAV:  13    -0.218121267191E+02   -0.24154E-05   -0.12854E-04  6272   0.611E-02    0.230E-02
DAV:  14    -0.218121249446E+02    0.17746E-05   -0.11769E-05  3448   0.204E-02
   1 F= -.21812125E+02 E0= -.21812042E+02  d E =-.218121E+02
       N       E                     dE             d eps       ncg     rms          rms(c)
DAV:   1    -0.219828271951E+02   -0.17070E+00   -0.34891E+00  5520   0.191E+01    0.271E+00
DAV:   2    -0.218628701136E+02    0.11996E+00   -0.59435E-01  4888   0.659E+00    0.105E+00
DAV:   3    -0.218435678689E+02    0.19302E-01   -0.95310E-02  5736   0.256E+00    0.328E-01
DAV:   4    -0.218405524538E+02    0.30154E-02   -0.21676E-02  6824   0.130E+00    0.475E-01
DAV:   5    -0.218406502505E+02   -0.97797E-04   -0.90704E-04  5776   0.184E-01    0.438E-01
DAV:   6    -0.218409191448E+02   -0.26889E-03   -0.55023E-04  6680   0.186E-01    0.131E-01
DAV:   7    -0.218409164500E+02    0.26949E-05   -0.59477E-04  5632   0.127E-01    0.504E-02
DAV:   8    -0.218409191794E+02   -0.27295E-05   -0.50177E-05  5104   0.383E-02
   2 F= -.21840919E+02 E0= -.21840837E+02  d E =-.287942E-01
       N       E                     dE             d eps       ncg     rms          rms(c)
DAV:   1    -0.221631361165E+02   -0.32222E+00   -0.77132E+00  5456   0.284E+01    0.412E+00
DAV:   2    -0.218987276966E+02    0.26441E+00   -0.13171E+00  4920   0.994E+00    0.161E+00
DAV:   3    -0.218550036813E+02    0.43724E-01   -0.20575E-01  5760   0.382E+00    0.489E-01
DAV:   4    -0.218480248932E+02    0.69788E-02   -0.49927E-02  6936   0.197E+00    0.717E-01
DAV:   5    -0.218482498915E+02   -0.22500E-03   -0.21125E-03  5512   0.284E-01    0.662E-01
DAV:   6    -0.218488427350E+02   -0.59284E-03   -0.12243E-03  7104   0.278E-01    0.208E-01
DAV:   7    -0.218488308211E+02    0.11914E-04   -0.13151E-03  5480   0.196E-01    0.717E-02
DAV:   8    -0.218488429488E+02   -0.12128E-04   -0.12218E-04  6792   0.559E-02    0.714E-02
DAV:   9    -0.218488450135E+02   -0.20647E-05   -0.90666E-06  4048   0.129E-02
   3 F= -.21848845E+02 E0= -.21848716E+02  d E =-.367201E-01
       N       E                     dE             d eps       ncg     rms          rms(c)
DAV:   1    -0.218771413680E+02   -0.28298E-01   -0.66029E-01  5632   0.855E+00    0.118E+00
DAV:   2    -0.218548284351E+02    0.22313E-01   -0.99826E-02  5040   0.277E+00    0.447E-01
DAV:   3    -0.218514526597E+02    0.33758E-02   -0.16658E-02  5888   0.111E+00    0.149E-01
DAV:   4    -0.218509555281E+02    0.49713E-03   -0.35286E-03  6696   0.523E-01    0.197E-01
DAV:   5    -0.218509733237E+02   -0.17796E-04   -0.13598E-04  5720   0.761E-02    0.172E-01
DAV:   6    -0.218510106994E+02   -0.37376E-04   -0.12757E-04  6464   0.875E-02    0.393E-02
DAV:   7    -0.218510119483E+02   -0.12489E-05   -0.31441E-05  4280   0.331E-02
   4 F= -.21851012E+02 E0= -.21850899E+02  d E =-.388870E-01
