 vasp.6.0.8 29Jun18 (build Jun 13 2019 12:54:44) complex

 executed on      IFC18_CrayMPICH date 2021.11.11  15:46:15
 running   64 mpi-ranks, with    1 threads/rank
 distrk:  each k-point on   16 cores,    4 groups
 distr:  one band on NCORES_PER_BAND=   4 cores,    4 groups


--------------------------------------------------------------------------------------------------------


 INCAR:
 POTCAR:    PAW_PBE Bi_d 06Sep2000
 POTCAR:    PAW_PBE Pt 04Feb2005
 POTCAR:    PAW_PBE Th 07Sep2000
 POTCAR:    PAW_PBE Bi_d 06Sep2000
   VRHFIN =Bi:
   LEXCH  = PE
   EATOM  =  1959.2045 eV,  143.9975 Ry

   TITEL  = PAW_PBE Bi_d 06Sep2000
   LULTRA =        F    use ultrasoft PP ?
   IUNSCR =        1    unscreen: 0-lin 1-nonlin 2-no
   RPACOR =    2.200    partial core radius
   POMASS =  208.980; ZVAL   =   15.000    mass and valenz
   RCORE  =    2.500    outmost cutoff radius
   RWIGS  =    3.090; RWIGS  =    1.635    wigner-seitz radius (au A)
   ENMAX  =  242.839; ENMIN  =  182.129 eV
   ICORE  =        3    local potential
   LCOR   =        T    correct aug charges
   LPAW   =        T    paw PP
   EAUG   =  442.899
   DEXC   =    0.000
   RMAX   =    2.551    core radius for proj-oper
   RAUG   =    1.300    factor for augmentation sphere
   RDEP   =    2.650    radius for radial grids
   RDEPT  =    2.039    core radius for aug-charge

   Atomic configuration
   16 entries
     n  l   j            E        occ.
     1  0  0.50    -90639.6581   2.0000
     2  0  0.50    -16282.4666   2.0000
     2  1  1.50    -13922.8286   6.0000
     3  0  0.50     -3930.4763   2.0000
     3  1  1.50     -3256.7013   6.0000
     3  2  2.50     -2581.6168  10.0000
     4  0  0.50      -902.2614   2.0000
     4  1  1.50      -681.5915   6.0000
     4  2  2.50      -429.8249  10.0000
     4  3  3.50      -152.6004  14.0000
     5  0  0.50      -157.7156   2.0000
     5  1  1.50       -95.8054   6.0000
     5  2  2.50       -27.0806  10.0000
     6  0  0.50       -14.4732   2.0000
     6  1  1.50        -4.5702   3.0000
     5  3  2.50        -2.7212   0.0000
   Description
     l       E           TYP  RCUT    TYP  RCUT
     2    -27.0805982     23  2.500
     2     -1.3605826     23  2.500
     0    -14.4732271     23  2.500
     0      6.8029130     23  2.500
     1     -4.5701651     23  2.500
     1     13.6058260     23  2.500
     3     -1.3605826      7  2.500
  local pseudopotential read in
  partial core-charges read in
  partial kinetic energy density read in
  atomic valenz-charges read in
  non local Contribution for L=           2  read in
    real space projection operators read in
  non local Contribution for L=           2  read in
    real space projection operators read in
  non local Contribution for L=           0  read in
    real space projection operators read in
  non local Contribution for L=           0  read in
    real space projection operators read in
  non local Contribution for L=           1  read in
    real space projection operators read in
  non local Contribution for L=           1  read in
    real space projection operators read in
    PAW grid and wavefunctions read in

   number of l-projection  operators is LMAX  =           6
   number of lm-projection operators is LMMAX =          18

 POTCAR:    PAW_PBE Pt 04Feb2005
   VRHFIN =Pt: s1d9
   LEXCH  = PE
   EATOM  =   729.1176 eV,   53.5886 Ry

   TITEL  = PAW_PBE Pt 04Feb2005
   LULTRA =        F    use ultrasoft PP ?
   IUNSCR =        1    unscreen: 0-lin 1-nonlin 2-no
   RPACOR =    2.330    partial core radius
   POMASS =  195.080; ZVAL   =   10.000    mass and valenz
   RCORE  =    2.600    outmost cutoff radius
   RWIGS  =    2.750; RWIGS  =    1.455    wigner-seitz radius (au A)
   ENMAX  =  230.283; ENMIN  =  172.712 eV
   ICORE  =        3    local potential
   LCOR   =        T    correct aug charges
   LPAW   =        T    paw PP
   EAUG   =  358.966
   DEXC   =    0.000
   RMAX   =    2.658    core radius for proj-oper
   RAUG   =    1.300    factor for augmentation sphere
   RDEP   =    2.761    radius for radial grids
   RDEPT  =    2.203    core radius for aug-charge

   Atomic configuration
   16 entries
     n  l   j            E        occ.
     1  0  0.50    -78401.1885   2.0000
     2  0  0.50    -13770.7750   2.0000
     2  1  1.50    -11931.0468   6.0000
     3  0  0.50     -3234.7234   2.0000
     3  1  1.50     -2699.2216   6.0000
     3  2  2.50     -2119.5714  10.0000
     4  0  0.50      -695.1528   2.0000
     4  1  1.50      -519.6034   6.0000
     4  2  2.50      -306.6786  10.0000
     4  3  3.50       -70.1041  14.0000
     5  0  0.50      -101.7747   2.0000
     5  1  1.50       -55.9873   6.0000
     5  2  2.50        -6.1423   9.0000
     6  0  0.50        -5.6573   1.0000
     6  1  1.50        -6.8029   0.0000
     5  3  2.50        -1.3606   0.0000
   Description
     l       E           TYP  RCUT    TYP  RCUT
     2     -6.1423404     23  2.500
     2     -7.5029230     23  2.500
     0     -5.6573207     23  2.500
     0      0.7416693     23  2.500
     1     -2.7211652     23  2.600
     1     20.4087390     23  2.600
     3     -1.3605826     23  2.500
  local pseudopotential read in
  partial core-charges read in
  partial kinetic energy density read in
  atomic valenz-charges read in
  non local Contribution for L=           2  read in
    real space projection operators read in
  non local Contribution for L=           2  read in
    real space projection operators read in
  non local Contribution for L=           0  read in
    real space projection operators read in
  non local Contribution for L=           0  read in
    real space projection operators read in
  non local Contribution for L=           1  read in
    real space projection operators read in
  non local Contribution for L=           1  read in
    real space projection operators read in
    PAW grid and wavefunctions read in

   number of l-projection  operators is LMAX  =           6
   number of lm-projection operators is LMMAX =          18

 POTCAR:    PAW_PBE Th 07Sep2000
   VRHFIN =Th:  [Xe,5d,4f]
   LEXCH  = PE
   EATOM  =   984.7553 eV,   72.3775 Ry

   TITEL  = PAW_PBE Th 07Sep2000
   LULTRA =        F    use ultrasoft PP ?
   IUNSCR =        1    unscreen: 0-lin 1-nonlin 2-no
   RPACOR =    2.200    partial core radius
   POMASS =  232.039; ZVAL   =   12.000    mass and valenz
   RCORE  =    2.800    outmost cutoff radius
   RWIGS  =    3.000; RWIGS  =    1.588    wigner-seitz radius (au A)
   ENMAX  =  247.306; ENMIN  =  185.480 eV
   RCLOC  =    2.211    cutoff for local pot
   LCOR   =        T    correct aug charges
   LPAW   =        T    paw PP
   EAUG   =  535.431
   DEXC   =    0.000
   RMAX   =    2.862    core radius for proj-oper
   RAUG   =    1.300    factor for augmentation sphere
   RDEP   =    2.926    radius for radial grids
   RDEPT  =    2.250    core radius for aug-charge

   Atomic configuration
   18 entries
     n  l   j            E        occ.
     1  0  0.50   -109990.1879   2.0000
     2  0  0.50    -20388.0147   2.0000
     2  1  1.50    -17049.6156   6.0000
     3  0  0.50     -5106.5436   2.0000
     3  1  1.50     -4175.1262   6.0000
     3  2  2.50     -3342.8437  10.0000
     4  0  0.50     -1280.8211   2.0000
     4  1  1.50      -976.4859   6.0000
     4  2  2.50      -661.8358  10.0000
     4  3  3.50      -324.9124  14.0000
     5  0  0.50      -278.7726   2.0000
     5  1  1.50      -186.2212   6.0000
     5  2  2.50       -86.9031  10.0000
     6  0  0.50       -43.3059   2.0000
     7  0  0.50        -4.0783   2.0000
     6  1  1.50       -21.4071   6.0000
     6  2  1.50        -2.3664   1.0000
     5  3  2.50        -1.2804   1.0000
   Description
     l       E           TYP  RCUT    TYP  RCUT
     0    -43.3059201     23  2.800
     0     -4.0782900     23  2.800
     1    -21.4071032     23  2.500
     1    -22.7676858     23  2.500
     2     -2.3664170     23  2.500
     2      3.0546543     23  2.500
     3     -1.2803910     23  2.800
     3      0.1360583     23  2.800
  local pseudopotential read in
  partial core-charges read in
  partial kinetic energy density read in
  atomic valenz-charges read in
  non local Contribution for L=           0  read in
    real space projection operators read in
  non local Contribution for L=           0  read in
    real space projection operators read in
  non local Contribution for L=           1  read in
    real space projection operators read in
  non local Contribution for L=           1  read in
    real space projection operators read in
  non local Contribution for L=           2  read in
    real space projection operators read in
  non local Contribution for L=           2  read in
    real space projection operators read in
  non local Contribution for L=           3  read in
    real space projection operators read in
  non local Contribution for L=           3  read in
    real space projection operators read in
    PAW grid and wavefunctions read in

   number of l-projection  operators is LMAX  =           8
   number of lm-projection operators is LMMAX =          32


 -----------------------------------------------------------------------------
|                                                                             |
|  ADVICE TO THIS USER RUNNING 'VASP/VAMP'   (HEAR YOUR MASTER'S VOICE ...):  |
|                                                                             |
|      You enforced a specific xc-type in the INCAR file,                     |
|      a different type was found on the POTCAR file                          |
|          I HOPE YOU KNOW, WHAT YOU ARE  DOING                               |
|                                                                             |
 -----------------------------------------------------------------------------

  PAW_PBE Bi_d 06Sep2000                :
 energy of atom  1       EATOM=-1959.2045
 kinetic energy error for atom=    0.0040 (will be added to EATOM!!)
  PAW_PBE Pt 04Feb2005                  :
 energy of atom  2       EATOM= -729.1176
 kinetic energy error for atom=    0.0032 (will be added to EATOM!!)
  PAW_PBE Th 07Sep2000                  :
 energy of atom  3       EATOM= -984.7553
 kinetic energy error for atom=    0.0010 (will be added to EATOM!!)


 POSCAR: Th1 Bi1 Pt1
  positions in direct lattice
  No initial velocities read in
 exchange correlation table for  LEXCH =       14
   RHO(1)=    0.500       N(1)  =     2000
   RHO(2)=  100.500       N(2)  =     4000



--------------------------------------------------------------------------------------------------------


 ion  position               nearest neighbor table
   1  0.250  0.250  0.250-   2 3.00   2 3.00   2 3.00   2 3.00   3 3.47   3 3.47   3 3.47   3 3.47
                             3 3.47   3 3.47
   2  0.000  0.000  0.000-   3 3.00   3 3.00   3 3.00   1 3.00   3 3.00   1 3.00   1 3.00   1 3.00

   3  0.750  0.750  0.750-   2 3.00   2 3.00   2 3.00   2 3.00   1 3.47   1 3.47   1 3.47   1 3.47
                             1 3.47   1 3.47

  LATTYP: Found a face centered cubic cell.
 ALAT       =     6.9389640000

  Lattice vectors:

 A1 = (   0.0000000000,   3.4694820000,   3.4694820000)
 A2 = (   3.4694820000,   0.0000000000,   3.4694820000)
 A3 = (   3.4694820000,   3.4694820000,   0.0000000000)


Analysis of symmetry for initial positions (statically):
=====================================================================
 Subroutine PRICEL returns:
 Original cell was already a primitive cell.


 Routine SETGRP: Setting up the symmetry group for a
 face centered cubic supercell.


 Subroutine GETGRP returns: Found 24 space group operations
 (whereof 24 operations were pure point group operations)
 out of a pool of 48 trial point group operations.


The static configuration has the point symmetry T_d .


Analysis of symmetry for dynamics (positions and initial velocities):
=====================================================================
 Subroutine PRICEL returns:
 Original cell was already a primitive cell.


 Routine SETGRP: Setting up the symmetry group for a
 face centered cubic supercell.


 Subroutine GETGRP returns: Found 24 space group operations
 (whereof 24 operations were pure point group operations)
 out of a pool of 48 trial point group operations.


The dynamic configuration has the point symmetry T_d .


 Subroutine INISYM returns: Found 24 space group operations
 (whereof 24 operations are pure point group operations),
 and found     1 'primitive' translations


----------------------------------------------------------------------------------------

                                     Primitive cell

  volume of cell :      83.5264

  direct lattice vectors                    reciprocal lattice vectors
     0.000000000  3.469482000  3.469482000    -0.144113732  0.144113732  0.144113732
     3.469482000  0.000000000  3.469482000     0.144113732 -0.144113732  0.144113732
     3.469482000  3.469482000  0.000000000     0.144113732  0.144113732 -0.144113732

  length of vectors
     4.906588499  4.906588499  4.906588499     0.249612306  0.249612306  0.249612306

  position of ions in fractional coordinates (direct lattice)
     0.250000000  0.250000000  0.250000000
     0.000000000  0.000000000  0.000000000
     0.750000000  0.750000000  0.750000000

  ion indices of the primitive-cell ions
   primitive index   ion index
                 1           1
                 2           2
                 3           3

----------------------------------------------------------------------------------------



 KPOINTS: KPOINTS

Automatic generation of k-mesh.
Space group operators:
 irot       det(A)        alpha          n_x          n_y          n_z        tau_x        tau_y        tau_z
    1     1.000000     0.000000     1.000000     0.000000     0.000000     0.000000     0.000000     0.000000
    2     1.000000   120.000000    -0.577350    -0.577350    -0.577350     0.000000     0.000000     0.000000
    3     1.000000   120.000000     0.577350     0.577350     0.577350     0.000000     0.000000     0.000000
    4    -1.000000    90.000000     0.000000     0.000000    -1.000000     0.000000     0.000000     0.000000
    5    -1.000000   180.000000    -0.000000     0.707107     0.707107     0.000000     0.000000     0.000000
    6    -1.000000    90.000000     0.000000     1.000000     0.000000     0.000000     0.000000     0.000000
    7     1.000000   180.000000    -0.000000     0.000000     1.000000     0.000000     0.000000     0.000000
    8     1.000000   120.000000    -0.577350     0.577350     0.577350     0.000000     0.000000     0.000000
    9     1.000000   120.000000    -0.577350     0.577350    -0.577350     0.000000     0.000000     0.000000
   10    -1.000000    90.000000     0.000000     0.000000     1.000000     0.000000     0.000000     0.000000
   11    -1.000000    90.000000    -1.000000    -0.000000    -0.000000     0.000000     0.000000     0.000000
   12    -1.000000   180.000000     0.707107     0.000000     0.707107     0.000000     0.000000     0.000000
   13     1.000000   120.000000     0.577350    -0.577350     0.577350     0.000000     0.000000     0.000000
   14     1.000000   120.000000    -0.577350    -0.577350     0.577350     0.000000     0.000000     0.000000
   15     1.000000   180.000000     1.000000     0.000000     0.000000     0.000000     0.000000     0.000000
   16    -1.000000    90.000000     0.000000    -1.000000     0.000000     0.000000     0.000000     0.000000
   17    -1.000000   180.000000     0.707107     0.707107     0.000000     0.000000     0.000000     0.000000
   18    -1.000000    90.000000     1.000000     0.000000    -0.000000     0.000000     0.000000     0.000000
   19     1.000000   120.000000     0.577350    -0.577350    -0.577350     0.000000     0.000000     0.000000
   20     1.000000   180.000000     0.000000    -1.000000     0.000000     0.000000     0.000000     0.000000
   21     1.000000   120.000000     0.577350     0.577350    -0.577350     0.000000     0.000000     0.000000
   22    -1.000000   180.000000     0.000000    -0.707107     0.707107     0.000000     0.000000     0.000000
   23    -1.000000   180.000000     0.707107    -0.707107    -0.000000     0.000000     0.000000     0.000000
   24    -1.000000   180.000000    -0.707107     0.000000     0.707107     0.000000     0.000000     0.000000

 Subroutine IBZKPT returns following result:
 ===========================================

 Found     84 irreducible k-points:

 Following reciprocal coordinates:
            Coordinates               Weight
  0.000000  0.000000  0.000000      1.000000
  0.076923 -0.000000  0.000000      8.000000
  0.153846 -0.000000  0.000000      8.000000
  0.230769 -0.000000  0.000000      8.000000
  0.307692 -0.000000  0.000000      8.000000
  0.384615  0.000000 -0.000000      8.000000
  0.461538  0.000000 -0.000000      8.000000
  0.076923  0.076923  0.000000      6.000000
  0.153846  0.076923  0.000000     24.000000
  0.230769  0.076923  0.000000     24.000000
  0.307692  0.076923  0.000000     24.000000
  0.384615  0.076923  0.000000     24.000000
  0.461538  0.076923 -0.000000     24.000000
 -0.461538  0.076923  0.000000     24.000000
 -0.384615  0.076923 -0.000000     24.000000
 -0.307692  0.076923  0.000000     24.000000
 -0.230769  0.076923  0.000000     24.000000
 -0.153846  0.076923 -0.000000     24.000000
 -0.076923  0.076923 -0.000000     12.000000
  0.153846  0.153846  0.000000      6.000000
  0.230769  0.153846  0.000000     24.000000
  0.307692  0.153846  0.000000     24.000000
  0.384615  0.153846  0.000000     24.000000
  0.461538  0.153846  0.000000     24.000000
 -0.461538  0.153846 -0.000000     24.000000
 -0.384615  0.153846  0.000000     24.000000
 -0.307692  0.153846  0.000000     24.000000
 -0.230769  0.153846  0.000000     24.000000
 -0.153846  0.153846 -0.000000     12.000000
  0.230769  0.230769  0.000000      6.000000
  0.307692  0.230769  0.000000     24.000000
  0.384615  0.230769  0.000000     24.000000
  0.461538  0.230769  0.000000     24.000000
 -0.461538  0.230769 -0.000000     24.000000
 -0.384615  0.230769  0.000000     24.000000
 -0.307692  0.230769  0.000000     24.000000
 -0.230769  0.230769 -0.000000     12.000000
  0.307692  0.307692  0.000000      6.000000
  0.384615  0.307692  0.000000     24.000000
  0.461538  0.307692  0.000000     24.000000
 -0.461538  0.307692  0.000000     24.000000
 -0.384615  0.307692  0.000000     24.000000
 -0.307692  0.307692 -0.000000     12.000000
  0.384615  0.384615  0.000000      6.000000
  0.461538  0.384615  0.000000     24.000000
 -0.461538  0.384615 -0.000000     24.000000
 -0.384615  0.384615  0.000000     12.000000
  0.461538  0.461538  0.000000      6.000000
 -0.461538  0.461538  0.000000     12.000000
  0.230769  0.153846  0.076923     24.000000
  0.307692  0.153846  0.076923     48.000000
  0.384615  0.153846  0.076923     48.000000
  0.461538  0.153846  0.076923     48.000000
 -0.461538  0.153846  0.076923     48.000000
  0.307692  0.230769  0.076923     24.000000
  0.384615  0.230769  0.076923     48.000000
  0.461538  0.230769  0.076923     48.000000
 -0.461538  0.230769  0.076923     48.000000
 -0.384615  0.230769  0.076923     48.000000
 -0.307692  0.230769  0.076923     48.000000
 -0.230769  0.230769  0.076923     48.000000
 -0.153846  0.230769  0.076923     24.000000
  0.384615  0.307692  0.076923     24.000000
  0.461538  0.307692  0.076923     48.000000
 -0.461538  0.307692  0.076923     48.000000
 -0.384615  0.307692  0.076923     48.000000
 -0.307692  0.307692  0.076923     48.000000
 -0.230769  0.307692  0.076923     24.000000
  0.461538  0.384615  0.076923     24.000000
 -0.461538  0.384615  0.076923     48.000000
 -0.384615  0.384615  0.076923     48.000000
 -0.307692  0.384615  0.076923     24.000000
 -0.461538  0.461538  0.076923     24.000000
 -0.384615  0.461538  0.076923     24.000000
  0.461538  0.307692  0.153846     24.000000
 -0.461538  0.307692  0.153846     48.000000
 -0.384615  0.307692  0.153846     48.000000
 -0.461538  0.384615  0.153846     24.000000
 -0.384615  0.384615  0.153846     48.000000
 -0.307692  0.384615  0.153846     48.000000
 -0.230769  0.384615  0.153846     24.000000
 -0.384615  0.461538  0.153846     24.000000
 -0.307692  0.461538  0.153846     24.000000
 -0.307692  0.461538  0.230769     24.000000

 Following cartesian coordinates:
            Coordinates               Weight
  0.000000  0.000000  0.000000      1.000000
 -0.011086  0.011086  0.011086      8.000000
 -0.022171  0.022171  0.022171      8.000000
 -0.033257  0.033257  0.033257      8.000000
 -0.044343  0.044343  0.044343      8.000000
 -0.055428  0.055428  0.055428      8.000000
 -0.066514  0.066514  0.066514      8.000000
  0.000000  0.000000  0.022171      6.000000
 -0.011086  0.011086  0.033257     24.000000
 -0.022171  0.022171  0.044343     24.000000
 -0.033257  0.033257  0.055428     24.000000
 -0.044343  0.044343  0.066514     24.000000
 -0.055428  0.055428  0.077600     24.000000
  0.077600 -0.077600 -0.055428     24.000000
  0.066514 -0.066514 -0.044343     24.000000
  0.055428 -0.055428 -0.033257     24.000000
  0.044343 -0.044343 -0.022171     24.000000
  0.033257 -0.033257 -0.011086     24.000000
  0.022171 -0.022171  0.000000     12.000000
  0.000000  0.000000  0.044343      6.000000
 -0.011086  0.011086  0.055428     24.000000
 -0.022171  0.022171  0.066514     24.000000
 -0.033257  0.033257  0.077600     24.000000
 -0.044343  0.044343  0.088685     24.000000
  0.088685 -0.088685 -0.044343     24.000000
  0.077600 -0.077600 -0.033257     24.000000
  0.066514 -0.066514 -0.022171     24.000000
  0.055428 -0.055428 -0.011086     24.000000
  0.044343 -0.044343  0.000000     12.000000
  0.000000  0.000000  0.066514      6.000000
 -0.011086  0.011086  0.077600     24.000000
 -0.022171  0.022171  0.088685     24.000000
 -0.033257  0.033257  0.099771     24.000000
  0.099771 -0.099771 -0.033257     24.000000
  0.088685 -0.088685 -0.022171     24.000000
  0.077600 -0.077600 -0.011086     24.000000
  0.066514 -0.066514  0.000000     12.000000
  0.000000  0.000000  0.088685      6.000000
 -0.011086  0.011086  0.099771     24.000000
 -0.022171  0.022171  0.110857     24.000000
  0.110857 -0.110857 -0.022171     24.000000
  0.099771 -0.099771 -0.011086     24.000000
  0.088685 -0.088685  0.000000     12.000000
  0.000000  0.000000  0.110857      6.000000
 -0.011086  0.011086  0.121942     24.000000
  0.121942 -0.121942 -0.011086     24.000000
  0.110857 -0.110857  0.000000     12.000000
  0.000000  0.000000  0.133028      6.000000
  0.133028 -0.133028  0.000000     12.000000
  0.000000  0.022171  0.044343     24.000000
 -0.011086  0.033257  0.055428     48.000000
 -0.022171  0.044343  0.066514     48.000000
 -0.033257  0.055428  0.077600     48.000000
  0.099771 -0.077600 -0.055428     48.000000
  0.000000  0.022171  0.066514     24.000000
 -0.011086  0.033257  0.077600     48.000000
 -0.022171  0.044343  0.088685     48.000000
  0.110857 -0.088685 -0.044343     48.000000
  0.099771 -0.077600 -0.033257     48.000000
  0.088685 -0.066514 -0.022171     48.000000
  0.077600 -0.055428 -0.011086     48.000000
  0.066514 -0.044343  0.000000     24.000000
  0.000000  0.022171  0.088685     24.000000
 -0.011086  0.033257  0.099771     48.000000
  0.121942 -0.099771 -0.033257     48.000000
  0.110857 -0.088685 -0.022171     48.000000
  0.099771 -0.077600 -0.011086     48.000000
  0.088685 -0.066514 -0.000000     24.000000
  0.000000  0.022171  0.110857     24.000000
  0.133028 -0.110857 -0.022171     48.000000
  0.121942 -0.099771 -0.011086     48.000000
  0.110857 -0.088685  0.000000     24.000000
  0.144114 -0.121942 -0.011086     24.000000
  0.133028 -0.110857 -0.000000     24.000000
  0.000000  0.044343  0.088685     24.000000
  0.133028 -0.088685 -0.044343     48.000000
  0.121942 -0.077600 -0.033257     48.000000
  0.144114 -0.099771 -0.033257     24.000000
  0.133028 -0.088685 -0.022171     48.000000
  0.121942 -0.077600 -0.011086     48.000000
  0.110857 -0.066514  0.000000     24.000000
  0.144114 -0.099771 -0.011086     24.000000
  0.133028 -0.088685  0.000000     24.000000
  0.144114 -0.077600 -0.011086     24.000000



--------------------------------------------------------------------------------------------------------




 Dimension of arrays:
   k-points           NKPTS =     84   k-points in BZ     NKDIM =     84   number of bands    NBANDS=     24
   number of dos      NEDOS =    301   number of ions     NIONS =      3
   non local maximal  LDIM  =      8   non local SUM 2l+1 LMDIM =     32
   total plane-waves  NPLWV =  46656
   max r-space proj   IRMAX =      1   max aug-charges    IRDMAX=  34027
   dimension x,y,z NGX =    36 NGY =   36 NGZ =   36
   dimension x,y,z NGXF=    72 NGYF=   72 NGZF=   72
   support grid    NGXF=    72 NGYF=   72 NGZF=   72
   ions per type =               1   1   1
   NGX,Y,Z   is equivalent  to a cutoff of  12.20, 12.20, 12.20 a.u.
   NGXF,Y,Z  is equivalent  to a cutoff of  24.40, 24.40, 24.40 a.u.

 SYSTEM =  unknown system
 POSCAR =  Th1 Bi1 Pt1

 Startparameter for this run:
   NWRITE =      2    write-flag & timer
   PREC   = acc       normal or accurate (medium, high low for compatibility)
   ISTART =      0    job   : 0-new  1-cont  2-samecut
   ICHARG =      2    charge: 1-file 2-atom 10-const
   ISPIN  =      1    spin polarized calculation?
   LNONCOLLINEAR =      F non collinear calculations
   LSORBIT =      F    spin-orbit coupling
   INIWAV =      1    electr: 0-lowe 1-rand  2-diag
   LASPH  =      F    aspherical Exc in radial PAW
   METAGGA=      F    non-selfconsistent MetaGGA calc.

 Electronic Relaxation 1
   ENCUT  =  520.0 eV  38.22 Ry    6.18 a.u.   9.12  9.12  9.12*2*pi/ulx,y,z
   ENINI  =  520.0     initial cutoff
   ENAUG  =  535.4 eV  augmentation charge cutoff
   NELM   =     60;   NELMIN=  5; NELMDL= -5     # of ELM steps
   EDIFF  = 0.1E-04   stopping-criterion for ELM
   LREAL  =      F    real-space projection
   NLSPLINE    = F    spline interpolate recip. space projectors
   LCOMPAT=      F    compatible to vasp.4.4
   GGA_COMPAT  = T    GGA compatible to vasp.4.4-vasp.4.6
   LMAXPAW     = -100 max onsite density
   LMAXMIX     =    2 max onsite mixed and CHGCAR
   VOSKOWN=      0    Vosko Wilk Nusair interpolation
   ROPT   =    0.00000   0.00000   0.00000
 Ionic relaxation
   EDIFFG = 0.1E-03   stopping-criterion for IOM
   NSW    =     60    number of steps for IOM
   NBLOCK =      1;   KBLOCK =     60    inner block; outer block
   IBRION =      2    ionic relax: 0-MD 1-quasi-New 2-CG
   NFREE  =      1    steps in history (QN), initial steepest desc. (CG)
   ISIF   =      7    stress and relaxation
   IWAVPR =     11    prediction:  0-non 1-charg 2-wave 3-comb
   ISYM   =      2    0-nonsym 1-usesym 2-fastsym
   LCORR  =      T    Harris-Foulkes like correction to forces

   POTIM  = 0.1000    time-step for ionic-motion
   TEIN   =    0.0    initial temperature
   TEBEG  =    0.0;   TEEND  =   0.0 temperature during run
   SMASS  =  -3.00    Nose mass-parameter (am)
   estimated Nose-frequenzy (Omega)   =  0.10E-29 period in steps = 0.63E+47 mass=  -0.550E-27a.u.
   SCALEE = 1.0000    scale energy and forces
   NPACO  =    256;   APACO  = 16.0  distance and # of slots for P.C.
   PSTRESS=    0.0 pullay stress

  Mass of Ions in am
   POMASS = 208.98195.08232.04
  Ionic Valenz
   ZVAL   =  15.00 10.00 12.00
  Atomic Wigner-Seitz radii
   RWIGS  =  -1.00 -1.00 -1.00
  virtual crystal weights
   VCA    =   1.00  1.00  1.00
   NELECT =      37.0000    total number of electrons
   NUPDOWN=      -1.0000    fix difference up-down

 DOS related values:
   EMIN   =  10.00;   EMAX   =-10.00  energy-range for DOS
   EFERMI =   0.00
   ISMEAR =     0;   SIGMA  =   0.01  broadening in eV -4-tet -1-fermi 0-gaus

 Electronic relaxation 2 (details)
   IALGO  =     38    algorithm
   LDIAG  =      T    sub-space diagonalisation (order eigenvalues)
   LSUBROT=      F    optimize rotation matrix (better conditioning)
   TURBO    =      0    0=normal 1=particle mesh
   IRESTART =      0    0=no restart 2=restart with 2 vectors
   NREBOOT  =      0    no. of reboots
   NMIN     =      0    reboot dimension
   EREF     =   0.00    reference energy to select bands
   IMIX   =      4    mixing-type and parameters
     AMIX     =   0.40;   BMIX     =  1.00
     AMIX_MAG =   1.60;   BMIX_MAG =  1.00
     AMIN     =   0.10
     WC   =   100.;   INIMIX=   1;  MIXPRE=   1;  MAXMIX= -45

 Intra band minimization:
   WEIMIN = 0.0010     energy-eigenvalue tresh-hold
   EBREAK =  0.10E-06  absolut break condition
   DEPER  =   0.30     relativ break condition

   TIME   =   0.40     timestep for ELM

  volume/ion in A,a.u.               =      27.84       187.89
  Fermi-wavevector in a.u.,A,eV,Ry     =   1.247960  2.358303 21.189780  1.557405
  Thomas-Fermi vector in A             =   2.382069

 Write flags
   LWAVE        =      F    write WAVECAR
   LDOWNSAMPLE  =      F    k-point downsampling of WAVECAR
   LCHARG       =      F    write CHGCAR
   LVTOT        =      F    write LOCPOT, total local potential
   LVHAR        =      F    write LOCPOT, Hartree potential only
   LELF         =      F    write electronic localiz. function (ELF)
   LORBIT       =      0    0 simple, 1 ext, 2 COOP (PROOUT), +10 PAW based schemes


 Dipole corrections
   LMONO  =      F    monopole corrections only (constant potential shift)
   LDIPOL =      F    correct potential (dipole corrections)
   IDIPOL =      0    1-x, 2-y, 3-z, 4-all directions
   EPSILON=  1.0000000 bulk dielectric constant

 Exchange correlation treatment:
   GGA     =    PS    GGA type
   LEXCH   =    14    internal setting for exchange type
   VOSKOWN=      0    Vosko Wilk Nusair interpolation
   LHFCALC =     F    Hartree Fock is set to
   LHFONE  =     F    Hartree Fock one center treatment
   AEXX    =    0.0000 exact exchange contribution

 Linear response parameters
   LEPSILON=     F    determine dielectric tensor
   LRPA    =     F    only Hartree local field effects (RPA)
   LNABLA  =     F    use nabla operator in PAW spheres
   LVEL    =     F    velocity operator in full k-point grid
   LINTERFAST=   F  fast interpolation
   KINTER  =     0    interpolate to denser k-point grid
   CSHIFT  =0.1000    complex shift for real part using Kramers Kronig
   OMEGAMAX=  -1.0    maximum frequency
   DEG_THRESHOLD= 0.2000000E-02 threshold for treating states as degnerate
   RTIME   =   -0.100 relaxation time in fs
  (WPLASMAI=    0.000 imaginary part of plasma frequency in eV, 0.658/RTIME)
   DFIELD  = 0.0000000 0.0000000 0.0000000 field for delta impulse in time

 Orbital magnetization related:
   ORBITALMAG=     F  switch on orbital magnetization
   LCHIMAG   =     F  perturbation theory with respect to B field
   DQ        =  0.001000  dq finite difference perturbation B field
   LLRAUG    =     F  two centre corrections for induced B field



--------------------------------------------------------------------------------------------------------


 conjugate gradient relaxation of ions
 charge density and potential will be updated during run
 non-spin polarized calculation
 Variant of blocked Davidson
 Davidson routine will perform the subspace rotation
 perform sub-space diagonalisation
    after iterative eigenvector-optimisation
 modified Broyden-mixing scheme, WC =      100.0
 initial mixing is a Kerker type mixing with AMIX =  0.4000 and BMIX =      1.0000
 Hartree-type preconditioning will be used
 using additional bands            5
 reciprocal scheme for non local part
 use partial core corrections
 calculate Harris-corrections to forces
   (improved forces if not selfconsistent)
 use gradient corrections
 use of overlap-Matrix (Vanderbilt PP)
 Gauss-broadening in eV      SIGMA  =   0.01


--------------------------------------------------------------------------------------------------------


  energy-cutoff  :      520.00
  volume of cell :       83.53
      direct lattice vectors                 reciprocal lattice vectors
     0.000000000  3.469482000  3.469482000    -0.144113732  0.144113732  0.144113732
     3.469482000  0.000000000  3.469482000     0.144113732 -0.144113732  0.144113732
     3.469482000  3.469482000  0.000000000     0.144113732  0.144113732 -0.144113732

  length of vectors
     4.906588499  4.906588499  4.906588499     0.249612306  0.249612306  0.249612306



 k-points in units of 2pi/SCALE and weight: KPOINTS
   0.00000000  0.00000000  0.00000000       0.000
  -0.01108567  0.01108567  0.01108567       0.004
  -0.02217134  0.02217134  0.02217134       0.004
  -0.03325702  0.03325702  0.03325702       0.004
  -0.04434269  0.04434269  0.04434269       0.004
  -0.05542836  0.05542836  0.05542836       0.004
  -0.06651403  0.06651403  0.06651403       0.004
   0.00000000  0.00000000  0.02217134       0.003
  -0.01108567  0.01108567  0.03325702       0.011
  -0.02217134  0.02217134  0.04434269       0.011
  -0.03325702  0.03325702  0.05542836       0.011
  -0.04434269  0.04434269  0.06651403       0.011
  -0.05542836  0.05542836  0.07759970       0.011
   0.07759970 -0.07759970 -0.05542836       0.011
   0.06651403 -0.06651403 -0.04434269       0.011
   0.05542836 -0.05542836 -0.03325702       0.011
   0.04434269 -0.04434269 -0.02217134       0.011
   0.03325702 -0.03325702 -0.01108567       0.011
   0.02217134 -0.02217134  0.00000000       0.005
   0.00000000  0.00000000  0.04434269       0.003
  -0.01108567  0.01108567  0.05542836       0.011
  -0.02217134  0.02217134  0.06651403       0.011
  -0.03325702  0.03325702  0.07759970       0.011
  -0.04434269  0.04434269  0.08868537       0.011
   0.08868537 -0.08868537 -0.04434269       0.011
   0.07759970 -0.07759970 -0.03325702       0.011
   0.06651403 -0.06651403 -0.02217134       0.011
   0.05542836 -0.05542836 -0.01108567       0.011
   0.04434269 -0.04434269  0.00000000       0.005
   0.00000000  0.00000000  0.06651403       0.003
  -0.01108567  0.01108567  0.07759970       0.011
  -0.02217134  0.02217134  0.08868537       0.011
  -0.03325702  0.03325702  0.09977105       0.011
   0.09977105 -0.09977105 -0.03325702       0.011
   0.08868537 -0.08868537 -0.02217134       0.011
   0.07759970 -0.07759970 -0.01108567       0.011
   0.06651403 -0.06651403  0.00000000       0.005
   0.00000000  0.00000000  0.08868537       0.003
  -0.01108567  0.01108567  0.09977105       0.011
  -0.02217134  0.02217134  0.11085672       0.011
   0.11085672 -0.11085672 -0.02217134       0.011
   0.09977105 -0.09977105 -0.01108567       0.011
   0.08868537 -0.08868537  0.00000000       0.005
   0.00000000  0.00000000  0.11085672       0.003
  -0.01108567  0.01108567  0.12194239       0.011
   0.12194239 -0.12194239 -0.01108567       0.011
   0.11085672 -0.11085672  0.00000000       0.005
   0.00000000  0.00000000  0.13302806       0.003
   0.13302806 -0.13302806  0.00000000       0.005
   0.00000000  0.02217134  0.04434269       0.011
  -0.01108567  0.03325702  0.05542836       0.022
  -0.02217134  0.04434269  0.06651403       0.022
  -0.03325702  0.05542836  0.07759970       0.022
   0.09977105 -0.07759970 -0.05542836       0.022
   0.00000000  0.02217134  0.06651403       0.011
  -0.01108567  0.03325702  0.07759970       0.022
  -0.02217134  0.04434269  0.08868537       0.022
   0.11085672 -0.08868537 -0.04434269       0.022
   0.09977105 -0.07759970 -0.03325702       0.022
   0.08868537 -0.06651403 -0.02217134       0.022
   0.07759970 -0.05542836 -0.01108567       0.022
   0.06651403 -0.04434269  0.00000000       0.011
   0.00000000  0.02217134  0.08868537       0.011
  -0.01108567  0.03325702  0.09977105       0.022
   0.12194239 -0.09977105 -0.03325702       0.022
   0.11085672 -0.08868537 -0.02217134       0.022
   0.09977105 -0.07759970 -0.01108567       0.022
   0.08868537 -0.06651403 -0.00000000       0.011
   0.00000000  0.02217134  0.11085672       0.011
   0.13302806 -0.11085672 -0.02217134       0.022
   0.12194239 -0.09977105 -0.01108567       0.022
   0.11085672 -0.08868537  0.00000000       0.011
   0.14411373 -0.12194239 -0.01108567       0.011
   0.13302806 -0.11085672 -0.00000000       0.011
   0.00000000  0.04434269  0.08868537       0.011
   0.13302806 -0.08868537 -0.04434269       0.022
   0.12194239 -0.07759970 -0.03325702       0.022
   0.14411373 -0.09977105 -0.03325702       0.011
   0.13302806 -0.08868537 -0.02217134       0.022
   0.12194239 -0.07759970 -0.01108567       0.022
   0.11085672 -0.06651403  0.00000000       0.011
   0.14411373 -0.09977105 -0.01108567       0.011
   0.13302806 -0.08868537  0.00000000       0.011
   0.14411373 -0.07759970 -0.01108567       0.011

 k-points in reciprocal lattice and weights: KPOINTS
   0.00000000  0.00000000  0.00000000       0.000
   0.07692308 -0.00000000  0.00000000       0.004
   0.15384615 -0.00000000  0.00000000       0.004
   0.23076923 -0.00000000  0.00000000       0.004
   0.30769231 -0.00000000  0.00000000       0.004
   0.38461538  0.00000000 -0.00000000       0.004
   0.46153846  0.00000000 -0.00000000       0.004
   0.07692308  0.07692308  0.00000000       0.003
   0.15384615  0.07692308  0.00000000       0.011
   0.23076923  0.07692308  0.00000000       0.011
   0.30769231  0.07692308  0.00000000       0.011
   0.38461538  0.07692308  0.00000000       0.011
   0.46153846  0.07692308 -0.00000000       0.011
  -0.46153846  0.07692308  0.00000000       0.011
  -0.38461538  0.07692308 -0.00000000       0.011
  -0.30769231  0.07692308  0.00000000       0.011
  -0.23076923  0.07692308  0.00000000       0.011
  -0.15384615  0.07692308 -0.00000000       0.011
  -0.07692308  0.07692308 -0.00000000       0.005
   0.15384615  0.15384615  0.00000000       0.003
   0.23076923  0.15384615  0.00000000       0.011
   0.30769231  0.15384615  0.00000000       0.011
   0.38461538  0.15384615  0.00000000       0.011
   0.46153846  0.15384615  0.00000000       0.011
  -0.46153846  0.15384615 -0.00000000       0.011
  -0.38461538  0.15384615  0.00000000       0.011
  -0.30769231  0.15384615  0.00000000       0.011
  -0.23076923  0.15384615  0.00000000       0.011
  -0.15384615  0.15384615 -0.00000000       0.005
   0.23076923  0.23076923  0.00000000       0.003
   0.30769231  0.23076923  0.00000000       0.011
   0.38461538  0.23076923  0.00000000       0.011
   0.46153846  0.23076923  0.00000000       0.011
  -0.46153846  0.23076923 -0.00000000       0.011
  -0.38461538  0.23076923  0.00000000       0.011
  -0.30769231  0.23076923  0.00000000       0.011
  -0.23076923  0.23076923 -0.00000000       0.005
   0.30769231  0.30769231  0.00000000       0.003
   0.38461538  0.30769231  0.00000000       0.011
   0.46153846  0.30769231  0.00000000       0.011
  -0.46153846  0.30769231  0.00000000       0.011
  -0.38461538  0.30769231  0.00000000       0.011
  -0.30769231  0.30769231 -0.00000000       0.005
   0.38461538  0.38461538  0.00000000       0.003
   0.46153846  0.38461538  0.00000000       0.011
  -0.46153846  0.38461538 -0.00000000       0.011
  -0.38461538  0.38461538  0.00000000       0.005
   0.46153846  0.46153846  0.00000000       0.003
  -0.46153846  0.46153846  0.00000000       0.005
   0.23076923  0.15384615  0.07692308       0.011
   0.30769231  0.15384615  0.07692308       0.022
   0.38461538  0.15384615  0.07692308       0.022
   0.46153846  0.15384615  0.07692308       0.022
  -0.46153846  0.15384615  0.07692308       0.022
   0.30769231  0.23076923  0.07692308       0.011
   0.38461538  0.23076923  0.07692308       0.022
   0.46153846  0.23076923  0.07692308       0.022
  -0.46153846  0.23076923  0.07692308       0.022
  -0.38461538  0.23076923  0.07692308       0.022
  -0.30769231  0.23076923  0.07692308       0.022
  -0.23076923  0.23076923  0.07692308       0.022
  -0.15384615  0.23076923  0.07692308       0.011
   0.38461538  0.30769231  0.07692308       0.011
   0.46153846  0.30769231  0.07692308       0.022
  -0.46153846  0.30769231  0.07692308       0.022
  -0.38461538  0.30769231  0.07692308       0.022
  -0.30769231  0.30769231  0.07692308       0.022
  -0.23076923  0.30769231  0.07692308       0.011
   0.46153846  0.38461538  0.07692308       0.011
  -0.46153846  0.38461538  0.07692308       0.022
  -0.38461538  0.38461538  0.07692308       0.022
  -0.30769231  0.38461538  0.07692308       0.011
  -0.46153846  0.46153846  0.07692308       0.011
  -0.38461538  0.46153846  0.07692308       0.011
   0.46153846  0.30769231  0.15384615       0.011
  -0.46153846  0.30769231  0.15384615       0.022
  -0.38461538  0.30769231  0.15384615       0.022
  -0.46153846  0.38461538  0.15384615       0.011
  -0.38461538  0.38461538  0.15384615       0.022
  -0.30769231  0.38461538  0.15384615       0.022
  -0.23076923  0.38461538  0.15384615       0.011
  -0.38461538  0.46153846  0.15384615       0.011
  -0.30769231  0.46153846  0.15384615       0.011
  -0.30769231  0.46153846  0.23076923       0.011

 position of ions in fractional coordinates (direct lattice)
   0.25000000  0.25000000  0.25000000
   0.00000000  0.00000000  0.00000000
   0.75000000  0.75000000  0.75000000

 position of ions in cartesian coordinates  (Angst):
   1.73474100  1.73474100  1.73474100
   0.00000000  0.00000000  0.00000000
   5.20422300  5.20422300  5.20422300



--------------------------------------------------------------------------------------------------------


 k-point  1 :   0.0000 0.0000 0.0000  plane waves:    2229
 k-point  2 :   0.0769-0.0000 0.0000  plane waves:    2226
 k-point  3 :   0.1538-0.0000 0.0000  plane waves:    2232
 k-point  4 :   0.2308-0.0000 0.0000  plane waves:    2235
 k-point  5 :   0.3077-0.0000 0.0000  plane waves:    2241
 k-point  6 :   0.3846 0.0000-0.0000  plane waves:    2241
 k-point  7 :   0.4615 0.0000-0.0000  plane waves:    2258
 k-point  8 :   0.0769 0.0769 0.0000  plane waves:    2221
 k-point  9 :   0.1538 0.0769 0.0000  plane waves:    2236
 k-point 10 :   0.2308 0.0769 0.0000  plane waves:    2244
 k-point 11 :   0.3077 0.0769 0.0000  plane waves:    2237
 k-point 12 :   0.3846 0.0769 0.0000  plane waves:    2249
 k-point 13 :   0.4615 0.0769-0.0000  plane waves:    2252
 k-point 14 :  -0.4615 0.0769 0.0000  plane waves:    2259
 k-point 15 :  -0.3846 0.0769-0.0000  plane waves:    2251
 k-point 16 :  -0.3077 0.0769 0.0000  plane waves:    2238
 k-point 17 :  -0.2308 0.0769 0.0000  plane waves:    2240
 k-point 18 :  -0.1538 0.0769-0.0000  plane waves:    2237
 k-point 19 :  -0.0769 0.0769-0.0000  plane waves:    2225
 k-point 20 :   0.1538 0.1538 0.0000  plane waves:    2225
 k-point 21 :   0.2308 0.1538 0.0000  plane waves:    2239
 k-point 22 :   0.3077 0.1538 0.0000  plane waves:    2241
 k-point 23 :   0.3846 0.1538 0.0000  plane waves:    2252
 k-point 24 :   0.4615 0.1538 0.0000  plane waves:    2251
 k-point 25 :  -0.4615 0.1538-0.0000  plane waves:    2256
 k-point 26 :  -0.3846 0.1538 0.0000  plane waves:    2249
 k-point 27 :  -0.3077 0.1538 0.0000  plane waves:    2250
 k-point 28 :  -0.2308 0.1538 0.0000  plane waves:    2243
 k-point 29 :  -0.1538 0.1538-0.0000  plane waves:    2243
 k-point 30 :   0.2308 0.2308 0.0000  plane waves:    2245
 k-point 31 :   0.3077 0.2308 0.0000  plane waves:    2253
 k-point 32 :   0.3846 0.2308 0.0000  plane waves:    2248
 k-point 33 :   0.4615 0.2308 0.0000  plane waves:    2250
 k-point 34 :  -0.4615 0.2308-0.0000  plane waves:    2255
 k-point 35 :  -0.3846 0.2308 0.0000  plane waves:    2253
 k-point 36 :  -0.3077 0.2308 0.0000  plane waves:    2250
 k-point 37 :  -0.2308 0.2308-0.0000  plane waves:    2247
 k-point 38 :   0.3077 0.3077 0.0000  plane waves:    2261
 k-point 39 :   0.3846 0.3077 0.0000  plane waves:    2248
 k-point 40 :   0.4615 0.3077 0.0000  plane waves:    2258
 k-point 41 :  -0.4615 0.3077 0.0000  plane waves:    2266
 k-point 42 :  -0.3846 0.3077 0.0000  plane waves:    2261
 k-point 43 :  -0.3077 0.3077-0.0000  plane waves:    2261
 k-point 44 :   0.3846 0.3846 0.0000  plane waves:    2257
 k-point 45 :   0.4615 0.3846 0.0000  plane waves:    2255
 k-point 46 :  -0.4615 0.3846-0.0000  plane waves:    2260
 k-point 47 :  -0.3846 0.3846 0.0000  plane waves:    2253
 k-point 48 :   0.4615 0.4615 0.0000  plane waves:    2256
 k-point 49 :  -0.4615 0.4615 0.0000  plane waves:    2250
 k-point 50 :   0.2308 0.1538 0.0769  plane waves:    2227
 k-point 51 :   0.3077 0.1538 0.0769  plane waves:    2248
 k-point 52 :   0.3846 0.1538 0.0769  plane waves:    2246
 k-point 53 :   0.4615 0.1538 0.0769  plane waves:    2252
 k-point 54 :  -0.4615 0.1538 0.0769  plane waves:    2257
 k-point 55 :   0.3077 0.2308 0.0769  plane waves:    2242
 k-point 56 :   0.3846 0.2308 0.0769  plane waves:    2247
 k-point 57 :   0.4615 0.2308 0.0769  plane waves:    2253
 k-point 58 :  -0.4615 0.2308 0.0769  plane waves:    2259
 k-point 59 :  -0.3846 0.2308 0.0769  plane waves:    2256
 k-point 60 :  -0.3077 0.2308 0.0769  plane waves:    2250
 k-point 61 :  -0.2308 0.2308 0.0769  plane waves:    2250
 k-point 62 :  -0.1538 0.2308 0.0769  plane waves:    2242
 k-point 63 :   0.3846 0.3077 0.0769  plane waves:    2243
 k-point 64 :   0.4615 0.3077 0.0769  plane waves:    2249
 k-point 65 :  -0.4615 0.3077 0.0769  plane waves:    2245
 k-point 66 :  -0.3846 0.3077 0.0769  plane waves:    2255
 k-point 67 :  -0.3077 0.3077 0.0769  plane waves:    2257
 k-point 68 :  -0.2308 0.3077 0.0769  plane waves:    2262
 k-point 69 :   0.4615 0.3846 0.0769  plane waves:    2242
 k-point 70 :  -0.4615 0.3846 0.0769  plane waves:    2246
 k-point 71 :  -0.3846 0.3846 0.0769  plane waves:    2251
 k-point 72 :  -0.3077 0.3846 0.0769  plane waves:    2250
 k-point 73 :  -0.4615 0.4615 0.0769  plane waves:    2250
 k-point 74 :  -0.3846 0.4615 0.0769  plane waves:    2250
 k-point 75 :   0.4615 0.3077 0.1538  plane waves:    2254
 k-point 76 :  -0.4615 0.3077 0.1538  plane waves:    2247
 k-point 77 :  -0.3846 0.3077 0.1538  plane waves:    2251
 k-point 78 :  -0.4615 0.3846 0.1538  plane waves:    2248
 k-point 79 :  -0.3846 0.3846 0.1538  plane waves:    2250
 k-point 80 :  -0.3077 0.3846 0.1538  plane waves:    2246
 k-point 81 :  -0.2308 0.3846 0.1538  plane waves:    2257
 k-point 82 :  -0.3846 0.4615 0.1538  plane waves:    2244
 k-point 83 :  -0.3077 0.4615 0.1538  plane waves:    2239
 k-point 84 :  -0.3077 0.4615 0.2308  plane waves:    2248

 maximum and minimum number of plane-waves per node :       576      545

 maximum number of plane-waves:      2266
 maximum index in each direction:
   IXMAX=    9   IYMAX=    9   IZMAX=    9
   IXMIN=   -9   IYMIN=   -9   IZMIN=   -9


 parallel 3D FFT for wavefunctions:
    minimum data exchange during FFTs selected (reduces bandwidth)
 parallel 3D FFT for charge:
    minimum data exchange during FFTs selected (reduces bandwidth)


 total amount of memory used by VASP MPI-rank0    75521. kBytes
=======================================================================

   base      :      30000. kBytes
   nonl-proj :      37186. kBytes
   fftplans  :       1219. kBytes
   grid      :       2165. kBytes
   one-center:         49. kBytes
   wavefun   :       4902. kBytes

     INWAV:  cpu time    0.0003: real time    0.0004
 Broyden mixing: mesh for mixing (old mesh)
   NGX = 19   NGY = 19   NGZ = 19
  (NGX  = 72   NGY  = 72   NGZ  = 72)
  gives a total of   6859 points

 initial charge density was supplied:
 charge density of overlapping atoms calculated
 number of electron      37.0000000 magnetization
 keeping initial charge density in first step


--------------------------------------------------------------------------------------------------------


 Maximum index for augmentation-charges         2650 (set IRDMAX)


--------------------------------------------------------------------------------------------------------


 First call to EWALD:  gamma=   0.405
 Maximum number of real-space cells 3x 3x 3
 Maximum number of reciprocal cells 3x 3x 3

    FEWALD:  cpu time    0.0058: real time    0.0061


--------------------------------------- Iteration      1(   1)  ---------------------------------------


    POTLOK:  cpu time    0.0383: real time    0.0897
    SETDIJ:  cpu time    0.0193: real time    0.0197
     EDDAV:  cpu time    1.3073: real time    1.3231
       DOS:  cpu time    0.0037: real time    0.0047
    --------------------------------------------
      LOOP:  cpu time    1.3690: real time    1.4378

 eigenvalue-minimisations  :  4032
 total energy-change (2. order) : 0.3980534E+03  (-0.1725927E+04)
 number of electron      37.0000000 magnetization
 augmentation part       37.0000000 magnetization

 Free energy of the ion-electron system (eV)
  ---------------------------------------------------
  alpha Z        PSCENC =       205.70211481
  Ewald energy   TEWEN  =     -3087.54457537
  -Hartree energ DENC   =      -774.00463708
  -exchange      EXHF   =         0.00000000
  -V(xc)+E(xc)   XCENC  =        67.89197753
  PAW double counting   =      3147.30828992    -3070.62761383
  entropy T*S    EENTRO =        -0.00003695
  eigenvalues    EBANDS =       234.65996915
  atomic energy  EATOM  =      3674.66789839
  Solvation  Ediel_sol  =         0.00000000
  ---------------------------------------------------
  free energy    TOTEN  =       398.05338657 eV

  energy without entropy =      398.05342352  energy(sigma->0) =      398.05340505


--------------------------------------------------------------------------------------------------------




--------------------------------------- Iteration      1(   2)  ---------------------------------------


     EDDAV:  cpu time    1.3399: real time    1.3558
       DOS:  cpu time    0.0029: real time    0.0031
    --------------------------------------------
      LOOP:  cpu time    1.3428: real time    1.3603

 eigenvalue-minimisations  :  4168
 total energy-change (2. order) :-0.3597931E+03  (-0.3527936E+03)
 number of electron      37.0000000 magnetization
 augmentation part       37.0000000 magnetization

 Free energy of the ion-electron system (eV)
  ---------------------------------------------------
  alpha Z        PSCENC =       205.70211481
  Ewald energy   TEWEN  =     -3087.54457537
  -Hartree energ DENC   =      -774.00463708
  -exchange      EXHF   =         0.00000000
  -V(xc)+E(xc)   XCENC  =        67.89197753
  PAW double counting   =      3147.30828992    -3070.62761383
  entropy T*S    EENTRO =        -0.00007306
  eigenvalues    EBANDS =      -125.13307348
  atomic energy  EATOM  =      3674.66789839
  Solvation  Ediel_sol  =         0.00000000
  ---------------------------------------------------
  free energy    TOTEN  =        38.26030783 eV

  energy without entropy =       38.26038089  energy(sigma->0) =       38.26034436


--------------------------------------------------------------------------------------------------------




--------------------------------------- Iteration      1(   3)  ---------------------------------------


     EDDAV:  cpu time    1.6405: real time    1.6566
       DOS:  cpu time    0.0029: real time    0.0031
    --------------------------------------------
      LOOP:  cpu time    1.6433: real time    1.6598

 eigenvalue-minimisations  :  5488
 total energy-change (2. order) :-0.5726574E+02  (-0.5656518E+02)
 number of electron      37.0000000 magnetization
 augmentation part       37.0000000 magnetization

 Free energy of the ion-electron system (eV)
  ---------------------------------------------------
  alpha Z        PSCENC =       205.70211481
  Ewald energy   TEWEN  =     -3087.54457537
  -Hartree energ DENC   =      -774.00463708
  -exchange      EXHF   =         0.00000000
  -V(xc)+E(xc)   XCENC  =        67.89197753
  PAW double counting   =      3147.30828992    -3070.62761383
  entropy T*S    EENTRO =        -0.00006420
  eigenvalues    EBANDS =      -182.39881735
  atomic energy  EATOM  =      3674.66789839
  Solvation  Ediel_sol  =         0.00000000
  ---------------------------------------------------
  free energy    TOTEN  =       -19.00542718 eV

  energy without entropy =      -19.00536298  energy(sigma->0) =      -19.00539508


--------------------------------------------------------------------------------------------------------




--------------------------------------- Iteration      1(   4)  ---------------------------------------


     EDDAV:  cpu time    2.0815: real time    2.0963
       DOS:  cpu time    0.0028: real time    0.0030
    --------------------------------------------
      LOOP:  cpu time    2.0843: real time    2.0987

 eigenvalue-minimisations  :  7496
 total energy-change (2. order) :-0.3852826E+01  (-0.3844052E+01)
 number of electron      37.0000000 magnetization
 augmentation part       37.0000000 magnetization

 Free energy of the ion-electron system (eV)
  ---------------------------------------------------
  alpha Z        PSCENC =       205.70211481
  Ewald energy   TEWEN  =     -3087.54457537
  -Hartree energ DENC   =      -774.00463708
  -exchange      EXHF   =         0.00000000
  -V(xc)+E(xc)   XCENC  =        67.89197753
  PAW double counting   =      3147.30828992    -3070.62761383
  entropy T*S    EENTRO =        -0.00016361
  eigenvalues    EBANDS =      -186.25154440
  atomic energy  EATOM  =      3674.66789839
  Solvation  Ediel_sol  =         0.00000000
  ---------------------------------------------------
  free energy    TOTEN  =       -22.85825364 eV

  energy without entropy =      -22.85809003  energy(sigma->0) =      -22.85817183


--------------------------------------------------------------------------------------------------------




--------------------------------------- Iteration      1(   5)  ---------------------------------------


     EDDAV:  cpu time    1.5907: real time    1.6052
       DOS:  cpu time    0.0029: real time    0.0032
    CHARGE:  cpu time    0.1101: real time    0.1120
    MIXING:  cpu time    0.0048: real time    0.0058
    --------------------------------------------
      LOOP:  cpu time    1.7086: real time    1.7260

 eigenvalue-minimisations  :  5384
 total energy-change (2. order) :-0.8880914E-01  (-0.8879034E-01)
 number of electron      36.9999999 magnetization
 augmentation part        5.9972410 magnetization

 Broyden mixing:
  rms(total) = 0.30898E+01    rms(broyden)= 0.30898E+01
  rms(prec ) = 0.34210E+01
  weight for this iteration     100.00

 Free energy of the ion-electron system (eV)
  ---------------------------------------------------
  alpha Z        PSCENC =       205.70211481
  Ewald energy   TEWEN  =     -3087.54457537
  -Hartree energ DENC   =      -774.00463708
  -exchange      EXHF   =         0.00000000
  -V(xc)+E(xc)   XCENC  =        67.89197753
  PAW double counting   =      3147.30828992    -3070.62761383
  entropy T*S    EENTRO =        -0.00015634
  eigenvalues    EBANDS =      -186.34036082
  atomic energy  EATOM  =      3674.66789839
  Solvation  Ediel_sol  =         0.00000000
  ---------------------------------------------------
  free energy    TOTEN  =       -22.94706278 eV

  energy without entropy =      -22.94690645  energy(sigma->0) =      -22.94698461


--------------------------------------------------------------------------------------------------------




--------------------------------------- Iteration      1(   6)  ---------------------------------------


    POTLOK:  cpu time    0.0355: real time    0.0523
    SETDIJ:  cpu time    0.0167: real time    0.0168
     EDDAV:  cpu time    1.5276: real time    1.5278
       DOS:  cpu time    0.0031: real time    0.0033
    CHARGE:  cpu time    0.1066: real time    0.1067
    MIXING:  cpu time    0.0034: real time    0.0041
    --------------------------------------------
      LOOP:  cpu time    1.6929: real time    1.7117

 eigenvalue-minimisations  :  5088
 total energy-change (2. order) : 0.9540865E+00  (-0.1837295E+00)
 number of electron      36.9999999 magnetization
 augmentation part        6.0537112 magnetization

 Broyden mixing:
  rms(total) = 0.19241E+01    rms(broyden)= 0.19241E+01
  rms(prec ) = 0.20404E+01
  weight for this iteration     100.00

 eigenvalues of (default mixing * dielectric matrix)
  average eigenvalue GAMMA=   2.5777
  2.5777

 Free energy of the ion-electron system (eV)
  ---------------------------------------------------
  alpha Z        PSCENC =       205.70211481
  Ewald energy   TEWEN  =     -3087.54457537
  -Hartree energ DENC   =      -758.67637764
  -exchange      EXHF   =         0.00000000
  -V(xc)+E(xc)   XCENC  =        67.42914048
  PAW double counting   =      3413.21868456    -3340.83271437
  entropy T*S    EENTRO =        -0.00022798
  eigenvalues    EBANDS =      -195.95691915
  atomic energy  EATOM  =      3674.66789839
  Solvation  Ediel_sol  =         0.00000000
  ---------------------------------------------------
  free energy    TOTEN  =       -21.99297626 eV

  energy without entropy =      -21.99274828  energy(sigma->0) =      -21.99286227


--------------------------------------------------------------------------------------------------------




--------------------------------------- Iteration      1(   7)  ---------------------------------------


    POTLOK:  cpu time    0.0343: real time    0.0496
    SETDIJ:  cpu time    0.0163: real time    0.0164
     EDDAV:  cpu time    1.7470: real time    1.7472
       DOS:  cpu time    0.0030: real time    0.0033
    CHARGE:  cpu time    0.1030: real time    0.1031
    MIXING:  cpu time    0.0033: real time    0.0034
    --------------------------------------------
      LOOP:  cpu time    1.9069: real time    1.9231

 eigenvalue-minimisations  :  6080
 total energy-change (2. order) : 0.1126609E+00  (-0.2517134E+00)
 number of electron      36.9999999 magnetization
 augmentation part        6.0057256 magnetization

 Broyden mixing:
  rms(total) = 0.63443E+00    rms(broyden)= 0.63443E+00
  rms(prec ) = 0.76563E+00
  weight for this iteration     100.00

 eigenvalues of (default mixing * dielectric matrix)
  average eigenvalue GAMMA=   2.1342
  1.0358  3.2326

 Free energy of the ion-electron system (eV)
  ---------------------------------------------------
  alpha Z        PSCENC =       205.70211481
  Ewald energy   TEWEN  =     -3087.54457537
  -Hartree energ DENC   =      -745.14312782
  -exchange      EXHF   =         0.00000000
  -V(xc)+E(xc)   XCENC  =        67.18985389
  PAW double counting   =      3765.75848823    -3698.04380663
  entropy T*S    EENTRO =        -0.00033414
  eigenvalues    EBANDS =      -204.46682667
  atomic energy  EATOM  =      3674.66789839
  Solvation  Ediel_sol  =         0.00000000
  ---------------------------------------------------
  free energy    TOTEN  =       -21.88031531 eV

  energy without entropy =      -21.87998118  energy(sigma->0) =      -21.88014824


--------------------------------------------------------------------------------------------------------




--------------------------------------- Iteration      1(   8)  ---------------------------------------


    POTLOK:  cpu time    0.0284: real time    0.0499
    SETDIJ:  cpu time    0.0159: real time    0.0160
     EDDAV:  cpu time    1.5150: real time    1.5152
       DOS:  cpu time    0.0031: real time    0.0033
    CHARGE:  cpu time    0.1031: real time    0.1032
    MIXING:  cpu time    0.0034: real time    0.0035
    --------------------------------------------
      LOOP:  cpu time    1.6687: real time    1.6913

 eigenvalue-minimisations  :  5048
 total energy-change (2. order) : 0.5083620E-01  (-0.3230114E-01)
 number of electron      36.9999999 magnetization
 augmentation part        5.9592042 magnetization

 Broyden mixing:
  rms(total) = 0.48240E+00    rms(broyden)= 0.48240E+00
  rms(prec ) = 0.52753E+00
  weight for this iteration     100.00

 eigenvalues of (default mixing * dielectric matrix)
  average eigenvalue GAMMA=   1.8966
  3.5862  1.2676  0.8360

 Free energy of the ion-electron system (eV)
  ---------------------------------------------------
  alpha Z        PSCENC =       205.70211481
  Ewald energy   TEWEN  =     -3087.54457537
  -Hartree energ DENC   =      -745.54865948
  -exchange      EXHF   =         0.00000000
  -V(xc)+E(xc)   XCENC  =        67.20283975
  PAW double counting   =      3786.66037494    -3718.96067240
  entropy T*S    EENTRO =        -0.00014195
  eigenvalues    EBANDS =      -204.00865780
  atomic energy  EATOM  =      3674.66789839
  Solvation  Ediel_sol  =         0.00000000
  ---------------------------------------------------
  free energy    TOTEN  =       -21.82947911 eV

  energy without entropy =      -21.82933716  energy(sigma->0) =      -21.82940814


--------------------------------------------------------------------------------------------------------




--------------------------------------- Iteration      1(   9)  ---------------------------------------


    POTLOK:  cpu time    0.0349: real time    0.0514
    SETDIJ:  cpu time    0.0161: real time    0.0162
     EDDAV:  cpu time    1.7254: real time    1.7257
       DOS:  cpu time    0.0028: real time    0.0030
    CHARGE:  cpu time    0.1025: real time    0.1027
    MIXING:  cpu time    0.0034: real time    0.0035
    --------------------------------------------
      LOOP:  cpu time    1.8851: real time    1.9024

 eigenvalue-minimisations  :  6040
 total energy-change (2. order) : 0.1204795E-01  (-0.2211870E-01)
 number of electron      36.9999999 magnetization
 augmentation part        5.9483826 magnetization

 Broyden mixing:
  rms(total) = 0.32324E+00    rms(broyden)= 0.32324E+00
  rms(prec ) = 0.33470E+00
  weight for this iteration     100.00

 eigenvalues of (default mixing * dielectric matrix)
  average eigenvalue GAMMA=   1.4067
  2.4774  1.2553  1.2553  0.6387

 Free energy of the ion-electron system (eV)
  ---------------------------------------------------
  alpha Z        PSCENC =       205.70211481
  Ewald energy   TEWEN  =     -3087.54457537
  -Hartree energ DENC   =      -747.92033472
  -exchange      EXHF   =         0.00000000
  -V(xc)+E(xc)   XCENC  =        67.23709566
  PAW double counting   =      3868.76867900    -3800.95092804
  entropy T*S    EENTRO =        -0.00018057
  eigenvalues    EBANDS =      -201.77720033
  atomic energy  EATOM  =      3674.66789839
  Solvation  Ediel_sol  =         0.00000000
  ---------------------------------------------------
  free energy    TOTEN  =       -21.81743116 eV

  energy without entropy =      -21.81725059  energy(sigma->0) =      -21.81734088


--------------------------------------------------------------------------------------------------------




--------------------------------------- Iteration      1(  10)  ---------------------------------------


    POTLOK:  cpu time    0.0281: real time    0.0505
    SETDIJ:  cpu time    0.0160: real time    0.0161
     EDDAV:  cpu time    1.4959: real time    1.4961
       DOS:  cpu time    0.0030: real time    0.0031
    CHARGE:  cpu time    0.1032: real time    0.1034
    MIXING:  cpu time    0.0037: real time    0.0038
    --------------------------------------------
      LOOP:  cpu time    1.6498: real time    1.6730

 eigenvalue-minimisations  :  4912
 total energy-change (2. order) : 0.5296218E-02  (-0.3342322E-02)
 number of electron      36.9999999 magnetization
 augmentation part        5.9562756 magnetization

 Broyden mixing:
  rms(total) = 0.64464E-01    rms(broyden)= 0.64464E-01
  rms(prec ) = 0.68567E-01
  weight for this iteration     100.00

 eigenvalues of (default mixing * dielectric matrix)
  average eigenvalue GAMMA=   1.4274
  2.4260  1.7969  1.3481  0.9379  0.6283

 Free energy of the ion-electron system (eV)
  ---------------------------------------------------
  alpha Z        PSCENC =       205.70211481
  Ewald energy   TEWEN  =     -3087.54457537
  -Hartree energ DENC   =      -748.13199202
  -exchange      EXHF   =         0.00000000
  -V(xc)+E(xc)   XCENC  =        67.22665662
  PAW double counting   =      3812.61532273    -3744.48813351
  entropy T*S    EENTRO =        -0.00015979
  eigenvalues    EBANDS =      -201.85926680
  atomic energy  EATOM  =      3674.66789839
  Solvation  Ediel_sol  =         0.00000000
  ---------------------------------------------------
  free energy    TOTEN  =       -21.81213494 eV

  energy without entropy =      -21.81197515  energy(sigma->0) =      -21.81205505


--------------------------------------------------------------------------------------------------------




--------------------------------------- Iteration      1(  11)  ---------------------------------------


    POTLOK:  cpu time    0.0344: real time    0.0495
    SETDIJ:  cpu time    0.0161: real time    0.0162
     EDDAV:  cpu time    1.6285: real time    1.6287
       DOS:  cpu time    0.0029: real time    0.0031
    CHARGE:  cpu time    0.1027: real time    0.1028
    MIXING:  cpu time    0.0037: real time    0.0039
    --------------------------------------------
      LOOP:  cpu time    1.7883: real time    1.8041

 eigenvalue-minimisations  :  5544
 total energy-change (2. order) :-0.1049542E-03  (-0.2428812E-03)
 number of electron      36.9999999 magnetization
 augmentation part        5.9586378 magnetization

 Broyden mixing:
  rms(total) = 0.27629E-01    rms(broyden)= 0.27629E-01
  rms(prec ) = 0.32018E-01
  weight for this iteration     100.00

 eigenvalues of (default mixing * dielectric matrix)
  average eigenvalue GAMMA=   1.3698
  2.5778  1.9705  0.6221  0.9703  0.9703  1.1082

 Free energy of the ion-electron system (eV)
  ---------------------------------------------------
  alpha Z        PSCENC =       205.70211481
  Ewald energy   TEWEN  =     -3087.54457537
  -Hartree energ DENC   =      -748.35581861
  -exchange      EXHF   =         0.00000000
  -V(xc)+E(xc)   XCENC  =        67.22165135
  PAW double counting   =      3819.44778039    -3751.26744663
  entropy T*S    EENTRO =        -0.00016214
  eigenvalues    EBANDS =      -201.68368210
  atomic energy  EATOM  =      3674.66789839
  Solvation  Ediel_sol  =         0.00000000
  ---------------------------------------------------
  free energy    TOTEN  =       -21.81223990 eV

  energy without entropy =      -21.81207776  energy(sigma->0) =      -21.81215883


--------------------------------------------------------------------------------------------------------




--------------------------------------- Iteration      1(  12)  ---------------------------------------


    POTLOK:  cpu time    0.0283: real time    0.0503
    SETDIJ:  cpu time    0.0160: real time    0.0161
     EDDAV:  cpu time    1.6656: real time    1.6658
       DOS:  cpu time    0.0031: real time    0.0033
    CHARGE:  cpu time    0.1031: real time    0.1032
    MIXING:  cpu time    0.0038: real time    0.0039
    --------------------------------------------
      LOOP:  cpu time    1.8199: real time    1.8425

 eigenvalue-minimisations  :  5640
 total energy-change (2. order) : 0.1155933E-03  (-0.6204039E-04)
 number of electron      36.9999999 magnetization
 augmentation part        5.9595905 magnetization

 Broyden mixing:
  rms(total) = 0.37595E-02    rms(broyden)= 0.37595E-02
  rms(prec ) = 0.52857E-02
  weight for this iteration     100.00

 eigenvalues of (default mixing * dielectric matrix)
  average eigenvalue GAMMA=   1.4001
  2.3666  2.3666  0.6227  1.2103  1.2103  1.0122  1.0122

 Free energy of the ion-electron system (eV)
  ---------------------------------------------------
  alpha Z        PSCENC =       205.70211481
  Ewald energy   TEWEN  =     -3087.54457537
  -Hartree energ DENC   =      -748.36259895
  -exchange      EXHF   =         0.00000000
  -V(xc)+E(xc)   XCENC  =        67.22094195
  PAW double counting   =      3821.23906854    -3753.02716604
  entropy T*S    EENTRO =        -0.00016448
  eigenvalues    EBANDS =      -201.70764315
  atomic energy  EATOM  =      3674.66789839
  Solvation  Ediel_sol  =         0.00000000
  ---------------------------------------------------
  free energy    TOTEN  =       -21.81212430 eV

  energy without entropy =      -21.81195982  energy(sigma->0) =      -21.81204206


--------------------------------------------------------------------------------------------------------




--------------------------------------- Iteration      1(  13)  ---------------------------------------


    POTLOK:  cpu time    0.0401: real time    0.0569
    SETDIJ:  cpu time    0.0161: real time    0.0162
     EDDAV:  cpu time    1.7951: real time    1.7954
       DOS:  cpu time    0.0032: real time    0.0033
    CHARGE:  cpu time    0.1025: real time    0.1027
    MIXING:  cpu time    0.0040: real time    0.0041
    --------------------------------------------
      LOOP:  cpu time    1.9610: real time    1.9789

 eigenvalue-minimisations  :  6272
 total energy-change (2. order) :-0.2415434E-05  (-0.1285433E-04)
 number of electron      36.9999999 magnetization
 augmentation part        5.9600270 magnetization

 Broyden mixing:
  rms(total) = 0.23028E-02    rms(broyden)= 0.23028E-02
  rms(prec ) = 0.31856E-02
  weight for this iteration     100.00

 eigenvalues of (default mixing * dielectric matrix)
  average eigenvalue GAMMA=   1.3992
  2.6222  1.8940  1.8037  1.2789  0.6237  0.9647  1.0032  1.0032

 Free energy of the ion-electron system (eV)
  ---------------------------------------------------
  alpha Z        PSCENC =       205.70211481
  Ewald energy   TEWEN  =     -3087.54457537
  -Hartree energ DENC   =      -748.37599559
  -exchange      EXHF   =         0.00000000
  -V(xc)+E(xc)   XCENC  =        67.21992737
  PAW double counting   =      3821.30417917    -3753.06242240
  entropy T*S    EENTRO =        -0.00016554
  eigenvalues    EBANDS =      -201.72308756
  atomic energy  EATOM  =      3674.66789839
  Solvation  Ediel_sol  =         0.00000000
  ---------------------------------------------------
  free energy    TOTEN  =       -21.81212672 eV

  energy without entropy =      -21.81196118  energy(sigma->0) =      -21.81204395


--------------------------------------------------------------------------------------------------------




--------------------------------------- Iteration      1(  14)  ---------------------------------------


    POTLOK:  cpu time    0.0333: real time    0.0501
    SETDIJ:  cpu time    0.0159: real time    0.0160
     EDDAV:  cpu time    1.1770: real time    1.1772
       DOS:  cpu time    0.0030: real time    0.0032
    --------------------------------------------
      LOOP:  cpu time    1.2290: real time    1.2443

 eigenvalue-minimisations  :  3448
 total energy-change (2. order) : 0.1774556E-05  (-0.1176908E-05)
 number of electron      36.9999999 magnetization
 augmentation part        5.9600270 magnetization

 Free energy of the ion-electron system (eV)
  ---------------------------------------------------
  alpha Z        PSCENC =       205.70211481
  Ewald energy   TEWEN  =     -3087.54457537
  -Hartree energ DENC   =      -748.36229740
  -exchange      EXHF   =         0.00000000
  -V(xc)+E(xc)   XCENC  =        67.21982733
  PAW double counting   =      3821.49173375    -3753.25320401
  entropy T*S    EENTRO =        -0.00016492
  eigenvalues    EBANDS =      -201.73345753
  atomic energy  EATOM  =      3674.66789839
  Solvation  Ediel_sol  =         0.00000000
  ---------------------------------------------------
  free energy    TOTEN  =       -21.81212494 eV

  energy without entropy =      -21.81196002  energy(sigma->0) =      -21.81204248


--------------------------------------------------------------------------------------------------------




 average (electrostatic) potential at core
  the test charge radii are     1.0856  1.2059  1.1985
  (the norm of the test charge is              1.0000)
       1-102.7593       2 -66.1567       3 -57.8147



 E-fermi :   8.0319     XC(G=0): -10.8418     alpha+bet :-13.4691


 k-point     1 :       0.0000    0.0000    0.0000
  band No.  band energies     occupation
      1     -32.1565      2.00000
      2     -14.8813      2.00000
      3     -14.8813      2.00000
      4     -14.8506      2.00000
      5     -14.8506      2.00000
      6     -14.8506      2.00000
      7     -10.0908      2.00000
      8     -10.0908      2.00000
      9     -10.0908      2.00000
     10      -4.0124      2.00000
     11       3.8766      2.00000
     12       3.8766      2.00000
     13       3.8766      2.00000
     14       4.1220      2.00000
     15       4.1220      2.00000
     16       6.0053      2.00000
     17       7.0021      2.00000
     18       7.0021      2.00000
     19       7.0021      2.00000
     20       8.2831      0.00000
     21       8.2831      0.00000
     22       8.2831      0.00000
     23       9.0581      0.00000
     24       9.9221      0.00000

 k-point     2 :       0.0769   -0.0000    0.0000
  band No.  band energies     occupation
      1     -32.1563      2.00000
      2     -14.8818      2.00000
      3     -14.8818      2.00000
      4     -14.8507      2.00000
      5     -14.8504      2.00000
      6     -14.8504      2.00000
      7     -10.1041      2.00000
      8     -10.0892      2.00000
      9     -10.0892      2.00000
     10      -3.9586      2.00000
     11       3.7403      2.00000
     12       3.7718      2.00000
     13       3.7718      2.00000
     14       4.2207      2.00000
     15       4.2207      2.00000
     16       5.7804      2.00000
     17       6.9216      2.00000
     18       6.9217      2.00000
     19       7.1305      2.00000
     20       8.3750      0.00000
     21       8.3750      0.00000
     22       8.3772      0.00000
     23       9.2606      0.00000
     24       9.9304      0.00000

 k-point     3 :       0.1538   -0.0000    0.0000
  band No.  band energies     occupation
      1     -32.1556      2.00000
      2     -14.8835      2.00000
      3     -14.8835      2.00000
      4     -14.8510      2.00000
      5     -14.8501      2.00000
      6     -14.8501      2.00000
      7     -10.1399      2.00000
      8     -10.0847      2.00000
      9     -10.0847      2.00000
     10      -3.8092      2.00000
     11       3.4024      2.00000
     12       3.6206      2.00000
     13       3.6206      2.00000
     14       4.3443      2.00000
     15       4.3443      2.00000
     16       5.3623      2.00000
     17       6.7537      2.00000
     18       6.7537      2.00000
     19       7.2615      2.00000
     20       8.5918      0.00000
     21       8.5918      0.00000
     22       8.7836      0.00000
     23       9.6187      0.00000
     24       9.9439      0.00000

 k-point     4 :       0.2308   -0.0000    0.0000
  band No.  band energies     occupation
      1     -32.1546      2.00000
      2     -14.8858      2.00000
      3     -14.8858      2.00000
      4     -14.8515      2.00000
      5     -14.8496      2.00000
      6     -14.8496      2.00000
      7     -10.1878      2.00000
      8     -10.0785      2.00000
      9     -10.0785      2.00000
     10      -3.5975      2.00000
     11       2.9940      2.00000
     12       3.5028      2.00000
     13       3.5028      2.00000
     14       4.3955      2.00000
     15       4.3955      2.00000
     16       4.9644      2.00000
     17       6.6046      2.00000
     18       6.6046      2.00000
     19       7.3494      2.00000
     20       8.8529      0.00000
     21       8.8529      0.00000
     22       9.3559      0.00000
     23       9.8933      0.00000
     24       9.9456      0.00000

 k-point     5 :       0.3077   -0.0000    0.0000
  band No.  band energies     occupation
      1     -32.1536      2.00000
      2     -14.8882      2.00000
      3     -14.8882      2.00000
      4     -14.8521      2.00000
      5     -14.8490      2.00000
      6     -14.8490      2.00000
      7     -10.2356      2.00000
      8     -10.0719      2.00000
      9     -10.0719      2.00000
     10      -3.3710      2.00000
     11       2.6175      2.00000
     12       3.4332      2.00000
     13       3.4332      2.00000
     14       4.3600      2.00000
     15       4.3600      2.00000
     16       4.6593      2.00000
     17       6.5212      2.00000
     18       6.5212      2.00000
     19       7.4677      2.00000
     20       9.1049      0.00000
     21       9.1049      0.00000
     22       9.8012      0.00000
     23       9.9113      0.00000
     24       9.9114      0.00000

 k-point     6 :       0.3846    0.0000   -0.0000
  band No.  band energies     occupation
      1     -32.1528      2.00000
      2     -14.8903      2.00000
      3     -14.8903      2.00000
      4     -14.8527      2.00000
      5     -14.8485      2.00000
      6     -14.8485      2.00000
      7     -10.2730      2.00000
      8     -10.0664      2.00000
      9     -10.0664      2.00000
     10      -3.1816      2.00000
     11       2.3367      2.00000
     12       3.4076      2.00000
     13       3.4076      2.00000
     14       4.2759      2.00000
     15       4.2759      2.00000
     16       4.4652      2.00000
     17       6.4933      2.00000
     18       6.4933      2.00000
     19       7.6261      2.00000
     20       9.3002      0.00000
     21       9.3002      0.00000
     22       9.8767      0.00000
     23       9.8768      0.00000
     24       9.9352      0.00000

 k-point     7 :       0.4615    0.0000   -0.0000
  band No.  band energies     occupation
      1     -32.1523      2.00000
      2     -14.8914      2.00000
      3     -14.8914      2.00000
      4     -14.8531      2.00000
      5     -14.8482      2.00000
      6     -14.8482      2.00000
      7     -10.2934      2.00000
      8     -10.0633      2.00000
      9     -10.0633      2.00000
     10      -3.0740      2.00000
     11       2.1881      2.00000
     12       3.4063      2.00000
     13       3.4063      2.00000
     14       4.2083      2.00000
     15       4.2083      2.00000
     16       4.3741      2.00000
     17       6.4898      2.00000
     18       6.4898      2.00000
     19       7.7657      2.00000
     20       9.4046      0.00000
     21       9.4046      0.00000
     22       9.8399      0.00000
     23       9.8541      0.00000
     24       9.8543      0.00000

 k-point     8 :       0.0769    0.0769    0.0000
  band No.  band energies     occupation
      1     -32.1562      2.00000
      2     -14.8829      2.00000
      3     -14.8811      2.00000
      4     -14.8508      2.00000
      5     -14.8503      2.00000
      6     -14.8503      2.00000
      7     -10.1009      2.00000
      8     -10.0925      2.00000
      9     -10.0925      2.00000
     10      -3.9421      2.00000
     11       3.5107      2.00000
     12       3.8904      2.00000
     13       3.8904      2.00000
     14       4.1383      2.00000
     15       4.2531      2.00000
     16       5.7665      2.00000
     17       6.8071      2.00000
     18       6.8071      2.00000
     19       7.3562      2.00000
     20       8.1105      0.00000
     21       8.5300      0.00000
     22       8.5300      0.00000
     23       9.2969      0.00000
     24       9.9186      0.00000

 k-point     9 :       0.1538    0.0769    0.0000
  band No.  band energies     occupation
      1     -32.1557      2.00000
      2     -14.8847      2.00000
      3     -14.8815      2.00000
      4     -14.8511      2.00000
      5     -14.8501      2.00000
      6     -14.8500      2.00000
      7     -10.1274      2.00000
      8     -10.0925      2.00000
      9     -10.0875      2.00000
     10      -3.8290      2.00000
     11       3.2323      2.00000
     12       3.7767      2.00000
     13       3.8135      2.00000
     14       4.2278      2.00000
     15       4.3436      2.00000
     16       5.4951      2.00000
     17       6.6269      2.00000
     18       6.6427      2.00000
     19       7.5870      2.00000
[...]
  168                map_backward                          0.001312                    8   7
  169                  map_gather                            0.000190                  8   8
  170                  m_alltoallv_z                         0.000690                  8   8
  171                  map_scatter                           0.000145                  8   8
  172          M_sumb_d                              0.006188                          8   4
  173          depsum                                0.002207                          4   4
  174            M_sumb_d                              0.000945                        8   5
  175          fft3d_mpi                             0.004592                          4   4
  176            fftbas_plan_mpi                       0.004298                        4   5
  177              dfftw_execute                         0.001426                     12   6
  178              map_backward                          0.002029                      8   6
  179                map_gather                            0.000450                    4   7
  180                m_alltoallv_z                         0.000874                    4   7
  181                map_scatter                           0.000521                    4   7
  182        forloc                                0.008967                            4   3
  183          M_sumb_d                              0.000254                          4   4
  184        fornl                                 0.190269                            4   3
  185          phase                                 0.004174                         84   4
  186          M_sumb_d                              0.049257                       2024   4
  187        fordep                                0.097546                            4   3
  188          setdij_                               0.097006                         24   4
  189            M_sumb_d                              0.004038                       24   5
  190          M_sumb_d                              0.000104                          4   4
  191        setdij_                               0.315599                           80   3
  192          M_sumb_d                              0.013147                         80   4
  193        set_dd_magatom                        0.000016                            4   3
  194        set_dd_paw                            0.053339                            4   3
  195          set_rsgf_all                          0.000016                          4   4
  196          M_sumb_d                              0.052488                         32   4
  197        strkin                                0.002782                            4   3
  198          M_sumb_d                              0.000882                          4   4
  199        strelo                                0.007568                            4   3
  200          M_sumb_d                              0.000579                          8   4
  201        strenl                                3.104211                            4   3
  202          spher                                 2.309815                         76   4
  203          phase                                 0.039679                        756   4
  204          proj1                                 0.680424                       4536   4
  205            crexp_mul_wave                        0.101375                    13608   5
  206            M_sumb_d                              0.174373                     4536   5
  207          M_sumb_d                              0.001101                          4   4
  208        M_sumb_d                              0.000917                           24   3
  209        fft3d_mpi                             0.050447                           44   3
  210          fftbas_plan_mpi                       0.046836                         44   4
  211            dfftw_execute                         0.016290                      132   5
  212            map_forward                           0.009557                       40   5
  213              map_gather                            0.001780                     20   6
  214              m_alltoallv_z                         0.004516                     20   6
  215              map_scatter                           0.002350                     20   6
  216            map_backward                          0.011682                       48   5
  217              map_gather                            0.002406                     24   6
  218              m_alltoallv_z                         0.005263                     24   6
  219              map_scatter                           0.002956                     24   6
  220        ggaall_grid                           0.004871                            4   3
  221        forhar                                0.018112                            8   3
  222          M_sumb_d                              0.000898                          8   4
  223        strehar                               0.007998                            4   3
  224          M_sumb_d                              0.000425                          4   4
  225        chggra                                0.020819                            4   3
  226          fft3d_mpi                             0.013675                         12   4
  227            fftbas_plan_mpi                       0.012764                       12   5
  228              dfftw_execute                         0.004618                     36   6
  229              map_backward                          0.001947                      8   6
  230                map_gather                            0.000374                    4   7
  231                m_alltoallv_z                         0.000846                    4   7
  232                map_scatter                           0.000544                    4   7
  233              map_forward                           0.003536                     16   6
  234                map_gather                            0.000630                    8   7
  235                m_alltoallv_z                         0.001676                    8   7
  236                map_scatter                           0.000889                    8   7
  237          M_sumb_d                              0.000545                         12   4
  238        brmix                                 0.015336                            4   3
  239          M_sumb_d                              0.001045                         24   4
  240          brpre                                 0.000191                          4   4
  241          setg0                                 0.004030                          4   4
  242          broyd                                 0.006101                          4   4
  243            M_sumb_d                              0.001534                       58   5
  244            brget                                 0.000998                      186   5
  245            brsav                                 0.000259                       50   5
  246          M_bcast_z                             0.000917                          4   4
  247          M_bcast_d                             0.000202                          4   4
  248        M_bcast_d                             0.000391                            8   3
  249      potlok                                0.081607                              4   2
  250        fft3d_mpi                             0.057017                           52   3
  251          fftbas_plan_mpi                       0.053228                         52   4
  252            dfftw_execute                         0.018112                      156   5
  253            map_forward                           0.012410                       56   5
  254              map_gather                            0.002178                     32   6
  255              m_alltoallv_z                         0.005845                     32   6
  256              map_scatter                           0.003070                     32   6
  257            map_backward                          0.011680                       48   5
  258              map_gather                            0.002398                     24   6
  259              m_alltoallv_z                         0.005018                     24   6
  260              map_scatter                           0.003175                     24   6
  261        ggaall_grid                           0.004860                            4   3
  262        M_sumb_d                              0.001088                           24   3
  263        M_bcast_d                             0.000362                            4   3
  264      potlok_metagga                        0.000016                              4   2
  265      set_dd_magatom                        0.000015                              4   2
  266      set_dd_paw                            0.001996                              4   2
  267        set_rsgf_all                          0.000016                            4   3
  268        M_sumb_d                              0.001157                           32   3
  269      densta                                0.002366                              1   2
  270        M_sumb_d                              0.000897                           40   3
  271      lprj_proall                           0.000008                              1   2

 Flat profile
 ============

             routine name                   CPU           calls
 ---------------------------------------------------------------
 eddav                                  12.226879          38
 total_time                             10.773826           1
 dfftw_execute                           8.952865      120936
 fftbas_plan_mpi                         7.697428       40314
 M_sumb_d                                6.195871      112539
 m_alltoallv_z                           3.960997       40384
 pdssyex_zheevx                          3.533757         798
 elmin                                   2.698847           4
 M_alltoall_d                            2.671774      133728
 spher                                   2.493471          80
 orth1                                   2.021294       27174
 proj1                                   1.983213       18312
 gemm                                    1.540793       54180
 vhamil                                  1.348983       18060
 map_forward                             1.258435       43856
 fftwav_mpi                              1.222355       21630
 vnlac0                                  1.202542       18060
 redis_pw                                1.078031       51156
 map_gather                              1.010835       40384
 set_charge                              1.003708          34
 redis_proj                              0.980719       64512
 map_scatter                             0.939200       40384
 hamiltmu                                0.932297        9030
 M_bcast_z                               0.731125       11631
 w1_copy                                 0.701046       54180
 map_backward                            0.631730       36768
 work_mul_crexp                          0.548769       54180
 setdij_                                 0.545116         143
 fftext_mpi                              0.535866       18060
 fft3d_mpi                               0.522341       40312
 crexp_mul_wave                          0.449301       54936
 overl                                   0.355546       31416
 kinhamil                                0.345523       18060
 eccp                                    0.326774        4788
 M_bcast_d                               0.291610        9127
 crpa_reader                             0.222805           1
 overl1                                  0.221257       18060
 potlok                                  0.177269          38
 apply_precond                           0.170993       13272
 pw_charge                               0.152647        3570
 setup_precond                           0.144948        4788
 w1_projall                              0.140467        6636
 fornl                                   0.136838           4
 lincom                                  0.121791         882
 force_and_stress                        0.091929           4
 phase                                   0.089717        1726
 soft_charge                             0.079607          34
 truncate_high_frequency_w1              0.077516       22848
 strenl                                  0.073192           4
 densta                                  0.057259          39
 ggaall_grid                             0.052255          42
 setg0                                   0.030134          38
 brmix                                   0.026726          34
 broyd                                   0.018135          34
 forhar                                  0.017215           8
 depsum                                  0.010842          34
 forloc                                  0.008713           4
 brgrid                                  0.008496           1
 set_dd_paw                              0.008471          42
 orthch                                  0.007770           4
 strehar                                 0.007573           4
 strelo                                  0.006989           4
 choleski                                0.006603          84
 chggra                                  0.006599           4
 proj                                    0.005468          84
 brget                                   0.004762         932
 brpre                                   0.002168          34
 brsav                                   0.002024         304
 strkin                                  0.001900           4
 fordep                                  0.000436           4
 set_rsgf_all                            0.000179          42
 vectorpot                               0.000156          35
 set_dd_magatom                          0.000148          42
 potlok_metagga                          0.000138          38
 set_kineden                             0.000112          30
 rotate_active_occupied_orbital          0.000027           4
 redis_pw_over_bands                     0.000013           4
 lprj_proall                             0.000008           1
 ---------------------------------------------------------------
  summed up times    85.9051568508148

 Accumulative profile
 ====================

             routine name                   CPU           calls
 ---------------------------------------------------------------
 total_time                             85.905157           1
 elmin                                  69.679086           4
 eddav                                  62.404304          38
 fft3d_mpi                              24.942688       40312
 fftbas_plan_mpi                        24.451489       40314
 hamiltmu                               18.783152        9030
 fftwav_mpi                             14.435031       21630
 kinhamil                               11.872075       18060
 fftext_mpi                             11.526552       18060
 dfftw_execute                           8.952865      120936
 M_sumb_d                                6.195871      112539
 vnlac0                                  4.408540       18060
 force_and_stress                        4.400436           4
 map_forward                             4.398793       43856
 m_alltoallv_z                           3.960997       40384
 pdssyex_zheevx                          3.533757         798
 set_charge                              3.531088          34
 proj1                                   3.427918       18312
 map_backward                            3.402404       36768
 strenl                                  3.104211           4
 w1_projall                              2.812075        6636
 M_alltoall_d                            2.671774      133728
 redis_pw                                2.541183       51156
 spher                                   2.493471          80
 soft_charge                             2.398738          34
 redis_proj                              2.189340       64512
 orth1                                   2.021294       27174
 gemm                                    1.540793       54180
 vhamil                                  1.348983       18060
 map_gather                              1.010835       40384
 map_scatter                             0.939200       40384
 potlok                                  0.796612          38
 M_bcast_z                               0.731125       11631
 w1_copy                                 0.701046       54180
 eccp                                    0.585942        4788
 setdij_                                 0.568926         143
 work_mul_crexp                          0.548769       54180
 set_dd_paw                              0.468220          42
 crexp_mul_wave                          0.449301       54936
 overl                                   0.355546       31416
 M_bcast_d                               0.291610        9127
 setup_precond                           0.255884        4788
 crpa_reader                             0.222805           1
 overl1                                  0.221257       18060
 fornl                                   0.190269           4
 apply_precond                           0.170993       13272
 pw_charge                               0.152647        3570
 lincom                                  0.121791         882
 brmix                                   0.110002          34
 orthch                                  0.102201           4
 fordep                                  0.097546           4
 phase                                   0.089717        1726
 densta                                  0.086647          39
 proj                                    0.081354          84
 truncate_high_frequency_w1              0.077516       22848
 ggaall_grid                             0.052255          42
 broyd                                   0.034755          34
 setg0                                   0.030134          38
 chggra                                  0.020819           4
 depsum                                  0.019904          34
 forhar                                  0.018112           8
 forloc                                  0.008967           4
 brgrid                                  0.008496           1
 strehar                                 0.007998           4
 strelo                                  0.007568           4
 choleski                                0.006603          84
 brget                                   0.004762         932
 strkin                                  0.002782           4
 brpre                                   0.002168          34
 brsav                                   0.002024         304
 set_rsgf_all                            0.000179          42
 vectorpot                               0.000156          35
 set_dd_magatom                          0.000148          42
 potlok_metagga                          0.000138          38
 set_kineden                             0.000112          30
 rotate_active_occupied_orbital          0.000027           4
 redis_pw_over_bands                     0.000013           4
 lprj_proall                             0.000008           1
 ---------------------------------------------------------------

Profiling took   3.096989  3.808614  0.005670  0.004501 seconds
Profiling took   2.960651 seconds
