<?xml version="1.0" encoding="ISO-8859-1"?>
<modeling>
 <generator>
  <i name="program" type="string">vasp </i>
  <i name="version" type="string">6.0.8  </i>
  <i name="subversion" type="string">29Jun18 (build Jun 13 2019 12:54:44) complex                          parallel </i>
  <i name="platform" type="string">IFC18_CrayMPICH </i>
  <i name="date" type="string">2021 11 11 </i>
  <i name="time" type="string">15:46:15 </i>
 </generator>
 <incar>
  <i type="int" name="KPAR">     4</i>
  <i type="int" name="NPAR">     4</i>
  <i type="int" name="ISTART">     0</i>
  <i type="string" name="PREC"> ACC</i>
  <i type="string" name="ALGO"> Normal</i>
  <i type="int" name="ISPIN">     1</i>
  <i type="int" name="NELMIN">     5</i>
  <i type="int" name="IBRION">     2</i>
  <i name="EDIFF">      0.00001000</i>
  <i type="int" name="NSW">    60</i>
  <i type="int" name="ISIF">     7</i>
  <i name="ENCUT">    520.00000000</i>
  <i name="POTIM">      0.10000000</i>
  <i type="logical" name="LREAL"> F  </i>
  <i type="int" name="ISMEAR">     0</i>
  <i name="SIGMA">      0.01000000</i>
  <i type="logical" name="LWAVE"> F  </i>
  <i type="logical" name="LCHARG"> F  </i>
  <i type="logical" name="LVTOT"> F  </i>
  <i type="string" name="ALGO"> Normal</i>
  <i type="string" name="GGA"> PS</i>
  <i name="EDIFF">      0.00001000</i>
  <i type="int" name="ISPIN">     1</i>
 </incar>
 <structure name="primitive_cell" >
  <crystal>
   <varray name="basis" >
    <v>       0.00000000       3.46948200       3.46948200 </v>
    <v>       3.46948200       0.00000000       3.46948200 </v>
    <v>       3.46948200       3.46948200       0.00000000 </v>
   </varray>
   <i name="volume">     83.52642847 </i>
   <varray name="rec_basis" >
    <v>      -0.14411373       0.14411373       0.14411373 </v>
    <v>       0.14411373      -0.14411373       0.14411373 </v>
    <v>       0.14411373       0.14411373      -0.14411373 </v>
   </varray>
  </crystal>
  <varray name="positions" >
   <v>       0.25000000       0.25000000       0.25000000 </v>
   <v>       0.00000000       0.00000000       0.00000000 </v>
   <v>       0.75000000       0.75000000       0.75000000 </v>
  </varray>
 </structure>
 <varray name="primitive_index" >
  <v type="int" >        1 </v>
  <v type="int" >        2 </v>
  <v type="int" >        3 </v>
 </varray>
 <kpoints>
  <generation param="Gamma">
   <v type="int" name="divisions">      13       13       13 </v>
   <v name="usershift">      0.00000000       0.00000000       0.00000000 </v>
   <v name="genvec1">      0.07692308      -0.00000000       0.00000000 </v>
   <v name="genvec2">     -0.00000000       0.07692308      -0.00000000 </v>
   <v name="genvec3">      0.00000000       0.00000000       0.07692308 </v>
   <v name="shift">      0.00000000       0.00000000       0.00000000 </v>
  </generation>
  <varray name="kpointlist" >
   <v>       0.00000000       0.00000000       0.00000000 </v>
   <v>       0.07692308      -0.00000000       0.00000000 </v>
   <v>       0.15384615      -0.00000000       0.00000000 </v>
   <v>       0.23076923      -0.00000000       0.00000000 </v>
   <v>       0.30769231      -0.00000000       0.00000000 </v>
   <v>       0.38461538       0.00000000      -0.00000000 </v>
   <v>       0.46153846       0.00000000      -0.00000000 </v>
   <v>       0.07692308       0.07692308       0.00000000 </v>
   <v>       0.15384615       0.07692308       0.00000000 </v>
   <v>       0.23076923       0.07692308       0.00000000 </v>
   <v>       0.30769231       0.07692308       0.00000000 </v>
   <v>       0.38461538       0.07692308       0.00000000 </v>
   <v>       0.46153846       0.07692308      -0.00000000 </v>
   <v>      -0.46153846       0.07692308       0.00000000 </v>
   <v>      -0.38461538       0.07692308      -0.00000000 </v>
   <v>      -0.30769231       0.07692308       0.00000000 </v>
   <v>      -0.23076923       0.07692308       0.00000000 </v>
   <v>      -0.15384615       0.07692308      -0.00000000 </v>
   <v>      -0.07692308       0.07692308      -0.00000000 </v>
   <v>       0.15384615       0.15384615       0.00000000 </v>
   <v>       0.23076923       0.15384615       0.00000000 </v>
   <v>       0.30769231       0.15384615       0.00000000 </v>
   <v>       0.38461538       0.15384615       0.00000000 </v>
   <v>       0.46153846       0.15384615       0.00000000 </v>
   <v>      -0.46153846       0.15384615      -0.00000000 </v>
   <v>      -0.38461538       0.15384615       0.00000000 </v>
   <v>      -0.30769231       0.15384615       0.00000000 </v>
   <v>      -0.23076923       0.15384615       0.00000000 </v>
   <v>      -0.15384615       0.15384615      -0.00000000 </v>
   <v>       0.23076923       0.23076923       0.00000000 </v>
   <v>       0.30769231       0.23076923       0.00000000 </v>
   <v>       0.38461538       0.23076923       0.00000000 </v>
   <v>       0.46153846       0.23076923       0.00000000 </v>
   <v>      -0.46153846       0.23076923      -0.00000000 </v>
   <v>      -0.38461538       0.23076923       0.00000000 </v>
   <v>      -0.30769231       0.23076923       0.00000000 </v>
   <v>      -0.23076923       0.23076923      -0.00000000 </v>
   <v>       0.30769231       0.30769231       0.00000000 </v>
   <v>       0.38461538       0.30769231       0.00000000 </v>
   <v>       0.46153846       0.30769231       0.00000000 </v>
   <v>      -0.46153846       0.30769231       0.00000000 </v>
   <v>      -0.38461538       0.30769231       0.00000000 </v>
   <v>      -0.30769231       0.30769231      -0.00000000 </v>
   <v>       0.38461538       0.38461538       0.00000000 </v>
   <v>       0.46153846       0.38461538       0.00000000 </v>
   <v>      -0.46153846       0.38461538      -0.00000000 </v>
   <v>      -0.38461538       0.38461538       0.00000000 </v>
   <v>       0.46153846       0.46153846       0.00000000 </v>
   <v>      -0.46153846       0.46153846       0.00000000 </v>
   <v>       0.23076923       0.15384615       0.07692308 </v>
   <v>       0.30769231       0.15384615       0.07692308 </v>
   <v>       0.38461538       0.15384615       0.07692308 </v>
   <v>       0.46153846       0.15384615       0.07692308 </v>
   <v>      -0.46153846       0.15384615       0.07692308 </v>
   <v>       0.30769231       0.23076923       0.07692308 </v>
   <v>       0.38461538       0.23076923       0.07692308 </v>
   <v>       0.46153846       0.23076923       0.07692308 </v>
   <v>      -0.46153846       0.23076923       0.07692308 </v>
   <v>      -0.38461538       0.23076923       0.07692308 </v>
   <v>      -0.30769231       0.23076923       0.07692308 </v>
   <v>      -0.23076923       0.23076923       0.07692308 </v>
   <v>      -0.15384615       0.23076923       0.07692308 </v>
   <v>       0.38461538       0.30769231       0.07692308 </v>
   <v>       0.46153846       0.30769231       0.07692308 </v>
   <v>      -0.46153846       0.30769231       0.07692308 </v>
   <v>      -0.38461538       0.30769231       0.07692308 </v>
   <v>      -0.30769231       0.30769231       0.07692308 </v>
   <v>      -0.23076923       0.30769231       0.07692308 </v>
   <v>       0.46153846       0.38461538       0.07692308 </v>
   <v>      -0.46153846       0.38461538       0.07692308 </v>
   <v>      -0.38461538       0.38461538       0.07692308 </v>
   <v>      -0.30769231       0.38461538       0.07692308 </v>
   <v>      -0.46153846       0.46153846       0.07692308 </v>
   <v>      -0.38461538       0.46153846       0.07692308 </v>
   <v>       0.46153846       0.30769231       0.15384615 </v>
   <v>      -0.46153846       0.30769231       0.15384615 </v>
   <v>      -0.38461538       0.30769231       0.15384615 </v>
   <v>      -0.46153846       0.38461538       0.15384615 </v>
   <v>      -0.38461538       0.38461538       0.15384615 </v>
   <v>      -0.30769231       0.38461538       0.15384615 </v>
   <v>      -0.23076923       0.38461538       0.15384615 </v>
   <v>      -0.38461538       0.46153846       0.15384615 </v>
   <v>      -0.30769231       0.46153846       0.15384615 </v>
   <v>      -0.30769231       0.46153846       0.23076923 </v>
  </varray>
  <varray name="weights" >
   <v>       0.00045517 </v>
   <v>       0.00364133 </v>
   <v>       0.00364133 </v>
   <v>       0.00364133 </v>
   <v>       0.00364133 </v>
   <v>       0.00364133 </v>
   <v>       0.00364133 </v>
   <v>       0.00273100 </v>
   <v>       0.01092399 </v>
   <v>       0.01092399 </v>
   <v>       0.01092399 </v>
   <v>       0.01092399 </v>
   <v>       0.01092399 </v>
   <v>       0.01092399 </v>
   <v>       0.01092399 </v>
   <v>       0.01092399 </v>
   <v>       0.01092399 </v>
   <v>       0.01092399 </v>
   <v>       0.00546199 </v>
   <v>       0.00273100 </v>
   <v>       0.01092399 </v>
   <v>       0.01092399 </v>
   <v>       0.01092399 </v>
   <v>       0.01092399 </v>
   <v>       0.01092399 </v>
   <v>       0.01092399 </v>
   <v>       0.01092399 </v>
   <v>       0.01092399 </v>
   <v>       0.00546199 </v>
   <v>       0.00273100 </v>
   <v>       0.01092399 </v>
   <v>       0.01092399 </v>
   <v>       0.01092399 </v>
   <v>       0.01092399 </v>
   <v>       0.01092399 </v>
   <v>       0.01092399 </v>
   <v>       0.00546199 </v>
   <v>       0.00273100 </v>
   <v>       0.01092399 </v>
   <v>       0.01092399 </v>
   <v>       0.01092399 </v>
   <v>       0.01092399 </v>
   <v>       0.00546199 </v>
   <v>       0.00273100 </v>
   <v>       0.01092399 </v>
   <v>       0.01092399 </v>
   <v>       0.00546199 </v>
   <v>       0.00273100 </v>
   <v>       0.00546199 </v>
   <v>       0.01092399 </v>
   <v>       0.02184797 </v>
   <v>       0.02184797 </v>
   <v>       0.02184797 </v>
   <v>       0.02184797 </v>
   <v>       0.01092399 </v>
   <v>       0.02184797 </v>
   <v>       0.02184797 </v>
   <v>       0.02184797 </v>
   <v>       0.02184797 </v>
   <v>       0.02184797 </v>
   <v>       0.02184797 </v>
   <v>       0.01092399 </v>
   <v>       0.01092399 </v>
   <v>       0.02184797 </v>
   <v>       0.02184797 </v>
   <v>       0.02184797 </v>
   <v>       0.02184797 </v>
   <v>       0.01092399 </v>
   <v>       0.01092399 </v>
   <v>       0.02184797 </v>
   <v>       0.02184797 </v>
   <v>       0.01092399 </v>
   <v>       0.01092399 </v>
   <v>       0.01092399 </v>
   <v>       0.01092399 </v>
   <v>       0.02184797 </v>
   <v>       0.02184797 </v>
   <v>       0.01092399 </v>
   <v>       0.02184797 </v>
   <v>       0.02184797 </v>
   <v>       0.01092399 </v>
   <v>       0.01092399 </v>
   <v>       0.01092399 </v>
   <v>       0.01092399 </v>
  </varray>
 </kpoints>
 <parameters>
  <separator name="general" >
   <i type="string" name="SYSTEM">unknown system</i>
   <i type="logical" name="LCOMPAT"> F  </i>
  </separator>
  <separator name="electronic" >
   <i type="string" name="PREC">acc</i>
   <i name="ENMAX">    520.00000000</i>
   <i name="ENAUG">    535.43100000</i>
   <i name="EDIFF">      0.00001000</i>
   <i type="int" name="IALGO">    38</i>
   <i type="int" name="IWAVPR">    11</i>
   <i type="int" name="NBANDS">    24</i>
   <i type="int" name="NBANDSLOW">    -1</i>
   <i type="int" name="NBANDSHIGH">    -1</i>
   <i name="NELECT">     37.00000000</i>
   <i type="int" name="TURBO">     0</i>
   <i type="int" name="IRESTART">     0</i>
   <i type="int" name="NREBOOT">     0</i>
   <i type="int" name="NMIN">     0</i>
   <i name="EREF">      0.00000000</i>
   <separator name="electronic smearing" >
    <i type="int" name="ISMEAR">     0</i>
    <i name="SIGMA">      0.01000000</i>
    <i name="KSPACING">      0.50000000</i>
    <i type="logical" name="KGAMMA"> T  </i>
    <i type="logical" name="KBLOWUP"> T  </i>
   </separator>
   <separator name="electronic projectors" >
    <i type="logical" name="LREAL"> F  </i>
    <v name="ROPT">      0.00000000      0.00000000      0.00000000</v>
    <i type="int" name="LMAXPAW">  -100</i>
    <i type="int" name="LMAXMIX">     2</i>
    <i type="logical" name="NLSPLINE"> F  </i>
   </separator>
   <separator name="electronic startup" >
    <i type="int" name="ISTART">     0</i>
    <i type="int" name="ICHARG">     2</i>
    <i type="int" name="INIWAV">     1</i>
   </separator>
   <separator name="electronic spin" >
    <i type="int" name="ISPIN">     1</i>
    <i type="logical" name="LNONCOLLINEAR"> F  </i>
    <v name="MAGMOM">      1.00000000      1.00000000      1.00000000</v>
    <i name="NUPDOWN">     -1.00000000</i>
    <i type="logical" name="LSORBIT"> F  </i>
    <v name="SAXIS">      0.00000000      0.00000000      1.00000000</v>
    <i type="logical" name="LSPIRAL"> F  </i>
    <v name="QSPIRAL">      0.00000000      0.00000000      0.00000000</v>
    <i type="logical" name="LZEROZ"> F  </i>
   </separator>
   <separator name="electronic exchange-correlation" >
    <i type="logical" name="LASPH"> F  </i>
    <i type="logical" name="LMETAGGA"> F  </i>
   </separator>
   <separator name="electronic convergence" >
    <i type="int" name="NELM">    60</i>
    <i type="int" name="NELMDL">    -5</i>
    <i type="int" name="NELMIN">     5</i>
    <i name="ENINI">    520.00000000</i>
    <separator name="electronic convergence detail" >
     <i type="logical" name="LDIAG"> T  </i>
     <i type="logical" name="LSUBROT"> F  </i>
     <i name="WEIMIN">      0.00100000</i>
     <i name="EBREAK">      0.00000010</i>
     <i name="DEPER">      0.30000000</i>
     <i type="int" name="NRMM">     4</i>
     <i name="TIME">      0.40000000</i>
    </separator>
   </separator>
   <separator name="electronic mixer" >
    <i name="AMIX">      0.40000000</i>
    <i name="BMIX">      1.00000000</i>
    <i name="AMIN">      0.10000000</i>
    <i name="AMIX_MAG">      1.60000000</i>
    <i name="BMIX_MAG">      1.00000000</i>
    <separator name="electronic mixer details" >
     <i type="int" name="IMIX">     4</i>
     <i type="logical" name="MIXFIRST"> F  </i>
     <i type="int" name="MAXMIX">   -45</i>
     <i name="WC">    100.00000000</i>
     <i type="int" name="INIMIX">     1</i>
     <i type="int" name="MIXPRE">     1</i>
     <i type="int" name="MREMOVE">     5</i>
    </separator>
   </separator>
   <separator name="electronic dipolcorrection" >
    <i type="logical" name="LDIPOL"> F  </i>
    <i type="logical" name="LMONO"> F  </i>
    <i type="int" name="IDIPOL">     0</i>
    <i name="EPSILON">      1.00000000</i>
    <v name="DIPOL">   -100.00000000   -100.00000000   -100.00000000</v>
    <i name="EFIELD">      0.00000000</i>
   </separator>
  </separator>
  <separator name="grids" >
   <i type="int" name="NGX">    36</i>
   <i type="int" name="NGY">    36</i>
   <i type="int" name="NGZ">    36</i>
   <i type="int" name="NGXF">    72</i>
   <i type="int" name="NGYF">    72</i>
   <i type="int" name="NGZF">    72</i>
   <i type="logical" name="ADDGRID"> F  </i>
  </separator>
  <separator name="ionic" >
   <i type="int" name="NSW">    60</i>
   <i type="int" name="IBRION">     2</i>
   <i type="int" name="MDALGO">     0</i>
   <i type="int" name="ISIF">     7</i>
   <i name="PSTRESS">      0.00000000</i>
   <i name="EDIFFG">      0.00010000</i>
   <i type="int" name="NFREE">     1</i>
   <i name="POTIM">      0.10000000</i>
   <i name="SMASS">     -3.00000000</i>
   <i name="SCALEE">      1.00000000</i>
  </separator>
  <separator name="ionic md" >
   <i name="TEBEG">      0.00010000</i>
   <i name="TEEND">      0.00010000</i>
   <i type="int" name="NBLOCK">     1</i>
   <i type="int" name="KBLOCK">    60</i>
   <i type="int" name="NPACO">   256</i>
   <i name="APACO">     16.00000000</i>
  </separator>
  <separator name="symmetry" >
   <i type="int" name="ISYM">     2</i>
   <i name="SYMPREC">      0.00001000</i>
  </separator>
  <separator name="dos" >
   <i type="int" name="LORBIT">     0</i>
   <v name="RWIGS">     -1.00000000     -1.00000000     -1.00000000</v>
   <i type="int" name="NEDOS">   301</i>
   <i name="EMIN">     10.00000000</i>
   <i name="EMAX">    -10.00000000</i>
   <i name="EFERMI">      0.00000000</i>
  </separator>
  <separator name="writing" >
   <i type="int" name="NWRITE">     2</i>
   <i type="logical" name="LWAVE"> F  </i>
   <i type="logical" name="LDOWNSAMPLE"> F  </i>
   <i type="logical" name="LCHARG"> F  </i>
   <i type="logical" name="LPARD"> F  </i>
   <i type="logical" name="LVTOT"> F  </i>
   <i type="logical" name="LVHAR"> F  </i>
   <i type="logical" name="LELF"> F  </i>
   <i type="logical" name="LOPTICS"> F  </i>
   <v name="STM">      0.00000000      0.00000000      0.00000000      0.00000000      0.00000000      0.00000000      0.00000000</v>
  </separator>
  <separator name="performance" >
   <i type="int" name="NPAR">     4</i>
   <i type="int" name="NSIM">     4</i>
   <i type="int" name="NBLK">    -1</i>
   <i type="logical" name="LPLANE"> T  </i>
   <i type="logical" name="LSCALAPACK"> T  </i>
   <i type="logical" name="LSCAAWARE"> F  </i>
   <i type="logical" name="LSCALU"> F  </i>
   <i type="logical" name="LASYNC"> F  </i>
   <i type="logical" name="LORBITALREAL"> F  </i>
  </separator>
  <separator name="miscellaneous" >
   <i type="int" name="IDIOT">     3</i>
   <i type="int" name="PHON_NSTRUCT">    -1</i>
   <i type="logical" name="LMUSIC"> F  </i>
   <v name="POMASS">    208.98000000    195.08000000    232.03900000</v>
   <v name="DARWINR">      0.00000000      0.00000000      0.00000000</v>
   <v name="DARWINV">      1.00000000      1.00000000      1.00000000</v>
   <i type="logical" name="LCORR"> T  </i>
  </separator>
  <i type="logical" name="GGA_COMPAT"> T  </i>
  <i type="logical" name="LBERRY"> F  </i>
  <i type="int" name="ICORELEVEL">     0</i>
  <i type="logical" name="LDAU"> F  </i>
  <i type="int" name="I_CONSTRAINED_M">     0</i>
  <separator name="electronic exchange-correlation" >
   <i type="string" name="GGA">PS</i>
   <i type="int" name="VOSKOWN">     0</i>
   <i type="logical" name="LHFCALC"> F  </i>
   <i type="string" name="PRECFOCK"></i>
   <i type="logical" name="LSYMGRAD"> F  </i>
   <i type="logical" name="LHFONE"> F  </i>
   <i type="logical" name="LRHFCALC"> F  </i>
   <i type="logical" name="LTHOMAS"> F  </i>
   <i type="logical" name="LMODELHF"> F  </i>
   <i type="logical" name="LFOCKACE"> F  </i>
   <i name="ENCUT4O">     -1.00000000</i>
   <i type="int" name="EXXOEP">     0</i>
   <i type="int" name="FOURORBIT">     0</i>
   <i name="AEXX">      0.00000000</i>
   <i name="HFALPHA">      0.00000000</i>
   <i name="MCALPHA">      0.00000000</i>
   <i name="ALDAX">      1.00000000</i>
   <i name="AGGAX">      1.00000000</i>
   <i name="ALDAC">      1.00000000</i>
   <i name="AGGAC">      1.00000000</i>
   <i type="int" name="NKREDX">     1</i>
   <i type="int" name="NKREDY">     1</i>
   <i type="int" name="NKREDZ">     1</i>
   <i type="logical" name="SHIFTRED"> F  </i>
   <i type="logical" name="ODDONLY"> F  </i>
   <i type="logical" name="EVENONLY"> F  </i>
   <i type="int" name="LMAXFOCK">     0</i>
   <i type="int" name="NMAXFOCKAE">     0</i>
   <i type="logical" name="LFOCKAEDFT"> F  </i>
   <i name="HFSCREEN">      0.00000000</i>
   <i name="HFSCREENC">      0.00000000</i>
   <i type="int" name="NBANDSGWLOW">     0</i>
  </separator>
  <separator name="vdW DFT" >
   <i type="logical" name="LUSE_VDW"> F  </i>
   <i name="Zab_VDW">     -0.84910000</i>
   <i name="PARAM1">      0.12340000</i>
   <i name="PARAM2">      1.00000000</i>
   <i name="PARAM3">      0.00000000</i>
  </separator>
  <separator name="model GW" >
   <i type="int" name="MODEL_GW">     0</i>
   <i name="MODEL_EPS0">     16.70528569</i>
   <i name="MODEL_ALPHA">      1.00000000</i>
  </separator>
  <separator name="linear response parameters" >
   <i type="logical" name="LEPSILON"> F  </i>
   <i type="logical" name="LRPA"> F  </i>
   <i type="logical" name="LNABLA"> F  </i>
   <i type="logical" name="LVEL"> F  </i>
   <i type="int" name="KINTER">     0</i>
   <i name="CSHIFT">      0.10000000</i>
   <i name="OMEGAMAX">     -1.00000000</i>
   <i name="DEG_THRESHOLD">      0.00200000</i>
   <i name="RTIME">     -0.10000000</i>
   <i name="WPLASMAI">      0.00000000</i>
   <v name="DFIELD">      0.00000000      0.00000000      0.00000000</v>
   <v name="WPLASMA">      0.00000000      0.00000000      0.00000000      0.00000000      0.00000000      0.00000000      0.00000000      0.00000000      0.00000000</v>
  </separator>
  <separator name="orbital magnetization" >
   <i type="logical" name="NUCIND"> F  </i>
   <v name="MAGPOS">      0.00000000      0.00000000      0.00000000</v>
   <i type="logical" name="LNICSALL"> T  </i>
   <i type="logical" name="ORBITALMAG"> F  </i>
   <i type="logical" name="LMAGBLOCH"> F  </i>
   <i type="logical" name="LCHIMAG"> F  </i>
   <i type="logical" name="LGAUGE"> T  </i>
   <i type="int" name="MAGATOM">     0</i>
   <v name="MAGDIPOL">      0.00000000      0.00000000      0.00000000</v>
   <v name="AVECCONST">      0.00000000      0.00000000      0.00000000</v>
  </separator>
  <separator name="response functions" >
   <i type="logical" name="LFINITE_TEMPERATURE"> F  </i>
   <i type="logical" name="LADDER"> F  </i>
   <i type="logical" name="LRPAFORCE"> F  </i>
   <i type="logical" name="LFXC"> F  </i>
   <i type="logical" name="LHARTREE"> T  </i>
   <i type="int" name="IBSE">     0</i>
   <v type="int" name="KPOINT">    -1     0     0     0</v>
   <i type="logical" name="LTCTC"> F  </i>
   <i type="logical" name="LTCTE"> F  </i>
   <i type="logical" name="LTETE"> F  </i>
   <i type="logical" name="LTRIPLET"> F  </i>
   <i type="logical" name="LFXCEPS"> F  </i>
   <i type="logical" name="LFXHEG"> F  </i>
   <i type="int" name="NATURALO">     2</i>
   <i type="logical" name="L2ORDER"> F  </i>
   <i type="logical" name="LDMP1"> F  </i>
   <i type="logical" name="LMP2LT"> F  </i>
   <i type="logical" name="LSMP2LT"> F  </i>
   <i type="logical" name="LUSEW"> F  </i>
   <i name="ENCUTGW">     -2.00000000</i>
   <i name="ENCUTGWSOFT">     -2.00000000</i>
   <i name="ENCUTLF">     -1.00000000</i>
   <i type="int" name="LMAXMP2">    -1</i>
   <i name="SCISSOR">      0.00000000</i>
   <i type="int" name="NOMEGA">     0</i>
   <i type="int" name="NOMEGAR">     0</i>
   <i type="int" name="NBANDSGW">    -1</i>
   <i type="int" name="NBANDSO">    -1</i>
   <i type="int" name="NBANDSV">    -1</i>
   <i type="int" name="NELM">     1</i>
   <i type="int" name="NELMHF">     1</i>
   <i type="int" name="DIM">     3</i>
   <i type="int" name="IESPILON">     4</i>
   <i type="int" name="ANTIRES">     0</i>
   <i name="OMEGAMAX">    -30.00000000</i>
   <i name="OMEGAMIN">    -30.00000000</i>
   <i name="OMEGATL">   -200.00000000</i>
   <i type="int" name="OMEGAGRID">   145</i>
   <i name="CSHIFT">     -0.10000000</i>
   <i type="logical" name="LSELFENERGY"> F  </i>
   <i type="logical" name="LSPECTRAL"> F  </i>
   <i type="logical" name="LSPECTRALGW"> F  </i>
   <i type="logical" name="LSINGLES"> F  </i>
   <i type="logical" name="LFERMIGW"> F  </i>
   <i type="logical" name="ODDONLYGW"> F  </i>
   <i type="logical" name="EVENONLYGW"> F  </i>
   <i type="int" name="NKREDLFX">     1</i>
   <i type="int" name="NKREDLFY">     1</i>
   <i type="int" name="NKREDLFZ">     1</i>
   <i type="int" name="MAXMEM">  2800</i>
   <i type="int" name="TELESCOPE">     0</i>
   <i type="int" name="NTAUPAR">     1</i>
   <i type="int" name="NOMEGAPAR">    -1</i>
   <i name="LAMBDA">      1.00000000</i>
  </separator>
  <separator name="External order field" >
   <i name="OFIELD_KAPPA">      0.00000000</i>
   <v name="OFIELD_K">      0.00000000      0.00000000      0.00000000</v>
   <i name="OFIELD_Q6_NEAR">      0.00000000</i>
   <i name="OFIELD_Q6_FAR">      0.00000000</i>
   <i name="OFIELD_A">      0.00000000</i>
  </separator>
 </parameters>
 <atominfo>
  <atoms>       3 </atoms>
  <types>       3 </types>
  <array name="atoms" >
   <dimension dim="1">ion</dimension>
   <field type="string">element</field>
   <field type="int">atomtype</field>
   <set>
    <rc><c>Bi</c><c>   1</c></rc>
    <rc><c>Pt</c><c>   2</c></rc>
    <rc><c>Th</c><c>   3</c></rc>
   </set>
  </array>
  <array name="atomtypes" >
   <dimension dim="1">type</dimension>
   <field type="int">atomspertype</field>
   <field type="string">element</field>
   <field>mass</field>
   <field>valence</field>
   <field type="string">pseudopotential</field>
   <set>
    <rc><c>   1</c><c>Bi</c><c>    208.98000000</c><c>     15.00000000</c><c>  PAW_PBE Bi_d 06Sep2000                </c></rc>
    <rc><c>   1</c><c>Pt</c><c>    195.08000000</c><c>     10.00000000</c><c>  PAW_PBE Pt 04Feb2005                  </c></rc>
    <rc><c>   1</c><c>Th</c><c>    232.03900000</c><c>     12.00000000</c><c>  PAW_PBE Th 07Sep2000                  </c></rc>
   </set>
  </array>
 </atominfo>
 <structure name="initialpos" >
  <crystal>
   <varray name="basis" >
    <v>       0.00000000       3.46948200       3.46948200 </v>
    <v>       3.46948200       0.00000000       3.46948200 </v>
    <v>       3.46948200       3.46948200       0.00000000 </v>
   </varray>
   <i name="volume">     83.52642847 </i>
   <varray name="rec_basis" >
    <v>      -0.14411373       0.14411373       0.14411373 </v>
    <v>       0.14411373      -0.14411373       0.14411373 </v>
    <v>       0.14411373       0.14411373      -0.14411373 </v>
   </varray>
  </crystal>
  <varray name="positions" >
   <v>       0.25000000       0.25000000       0.25000000 </v>
   <v>       0.00000000       0.00000000       0.00000000 </v>
   <v>       0.75000000       0.75000000       0.75000000 </v>
  </varray>
 </structure>
 <calculation>
  <scstep>
   <time name="dav">    1.31    1.32</time>
   <time name="total">    1.37    1.44</time>
   <energy>
    <i name="alphaZ">    205.70211481 </i>
    <i name="ewald">  -3087.54457537 </i>
    <i name="hartreedc">   -774.00463708 </i>
    <i name="XCdc">     67.89197753 </i>
    <i name="pawpsdc">   3147.30828992 </i>
    <i name="pawaedc">  -3070.62761383 </i>
    <i name="eentropy">     -0.00003695 </i>
    <i name="bandstr">    234.65996915 </i>
    <i name="atom">   3674.66789839 </i>
    <i name="e_fr_energy">    398.05338657 </i>
    <i name="e_wo_entrp">    398.05342352 </i>
    <i name="e_0_energy">    398.05340505 </i>
   </energy>
  </scstep>
  <scstep>
   <time name="dav">    1.34    1.36</time>
   <time name="total">    1.34    1.36</time>
   <energy>
    <i name="e_fr_energy">     38.26030783 </i>
    <i name="e_wo_entrp">     38.26038089 </i>
    <i name="e_0_energy">     38.26034436 </i>
   </energy>
  </scstep>
  <scstep>
   <time name="dav">    1.64    1.66</time>
   <time name="total">    1.64    1.66</time>
   <energy>
    <i name="e_fr_energy">    -19.00542718 </i>
    <i name="e_wo_entrp">    -19.00536298 </i>
    <i name="e_0_energy">    -19.00539508 </i>
   </energy>
  </scstep>
  <scstep>
   <time name="dav">    2.08    2.10</time>
   <time name="total">    2.08    2.10</time>
   <energy>
    <i name="e_fr_energy">    -22.85825364 </i>
    <i name="e_wo_entrp">    -22.85809003 </i>
    <i name="e_0_energy">    -22.85817183 </i>
   </energy>
  </scstep>
  <scstep>
   <time name="dav">    1.59    1.61</time>
   <time name="total">    1.71    1.73</time>
   <energy>
    <i name="e_fr_energy">    -22.94706278 </i>
    <i name="e_wo_entrp">    -22.94690645 </i>
    <i name="e_0_energy">    -22.94698461 </i>
   </energy>
  </scstep>
  <scstep>
   <time name="dav">    1.53    1.53</time>
   <time name="total">    1.69    1.71</time>
   <energy>
    <i name="e_fr_energy">    -21.99297626 </i>
    <i name="e_wo_entrp">    -21.99274828 </i>
    <i name="e_0_energy">    -21.99286227 </i>
   </energy>
  </scstep>
  <scstep>
   <time name="dav">    1.75    1.75</time>
   <time name="total">    1.91    1.92</time>
   <energy>
    <i name="e_fr_energy">    -21.88031531 </i>
    <i name="e_wo_entrp">    -21.87998118 </i>
    <i name="e_0_energy">    -21.88014824 </i>
   </energy>
  </scstep>
  <scstep>
   <time name="dav">    1.51    1.52</time>
   <time name="total">    1.67    1.69</time>
   <energy>
    <i name="e_fr_energy">    -21.82947911 </i>
    <i name="e_wo_entrp">    -21.82933716 </i>
    <i name="e_0_energy">    -21.82940814 </i>
   </energy>
  </scstep>
  <scstep>
   <time name="dav">    1.73    1.73</time>
   <time name="total">    1.89    1.90</time>
   <energy>
    <i name="e_fr_energy">    -21.81743116 </i>
    <i name="e_wo_entrp">    -21.81725059 </i>
    <i name="e_0_energy">    -21.81734088 </i>
   </energy>
  </scstep>
  <scstep>
   <time name="dav">    1.50    1.50</time>
   <time name="total">    1.65    1.67</time>
   <energy>
    <i name="e_fr_energy">    -21.81213494 </i>
    <i name="e_wo_entrp">    -21.81197515 </i>
    <i name="e_0_energy">    -21.81205505 </i>
   </energy>
  </scstep>
  <scstep>
   <time name="dav">    1.63    1.63</time>
   <time name="total">    1.79    1.80</time>
   <energy>
    <i name="e_fr_energy">    -21.81223990 </i>
    <i name="e_wo_entrp">    -21.81207776 </i>
    <i name="e_0_energy">    -21.81215883 </i>
   </energy>
  </scstep>
  <scstep>
   <time name="dav">    1.67    1.67</time>
   <time name="total">    1.82    1.84</time>
   <energy>
    <i name="e_fr_energy">    -21.81212430 </i>
    <i name="e_wo_entrp">    -21.81195982 </i>
    <i name="e_0_energy">    -21.81204206 </i>
   </energy>
  </scstep>
  <scstep>
   <time name="dav">    1.80    1.80</time>
   <time name="total">    1.96    1.98</time>
   <energy>
    <i name="e_fr_energy">    -21.81212672 </i>
    <i name="e_wo_entrp">    -21.81196118 </i>
    <i name="e_0_energy">    -21.81204395 </i>
   </energy>
  </scstep>
  <scstep>
   <time name="dav">    1.18    1.18</time>
   <time name="total">    1.23    1.24</time>
   <energy>
    <i name="alphaZ">    205.70211481 </i>
    <i name="ewald">  -3087.54457537 </i>
    <i name="hartreedc">   -748.36229740 </i>
    <i name="XCdc">     67.21982733 </i>
    <i name="pawpsdc">   3821.49173375 </i>
    <i name="pawaedc">  -3753.25320401 </i>
    <i name="eentropy">     -0.00016492 </i>
    <i name="bandstr">   -201.73345753 </i>
    <i name="atom">   3674.66789839 </i>
    <i name="e_fr_energy">    -21.81212494 </i>
    <i name="e_wo_entrp">    -21.81196002 </i>
    <i name="e_0_energy">    -21.81204248 </i>
   </energy>
  </scstep>
  <structure>
   <crystal>
    <varray name="basis" >
     <v>       0.00000000       3.46948200       3.46948200 </v>
     <v>       3.46948200       0.00000000       3.46948200 </v>
     <v>       3.46948200       3.46948200       0.00000000 </v>
    </varray>
    <i name="volume">     83.52642847 </i>
    <varray name="rec_basis" >
     <v>      -0.14411373       0.14411373       0.14411373 </v>
     <v>       0.14411373      -0.14411373       0.14411373 </v>
     <v>       0.14411373       0.14411373      -0.14411373 </v>
    </varray>
   </crystal>
   <varray name="positions" >
    <v>       0.25000000       0.25000000       0.25000000 </v>
    <v>       0.00000000       0.00000000       0.00000000 </v>
    <v>       0.75000000       0.75000000       0.75000000 </v>
   </varray>
  </structure>
  <varray name="forces" >
   <v>      -0.00000000       0.00000000       0.00000000 </v>
   <v>       0.00000000      -0.00000000      -0.00000000 </v>
   <v>      -0.00000000       0.00000000       0.00000000 </v>
  </varray>
  <varray name="stress" >
   <v>     -37.93653128       0.00000000      -0.00000000 </v>
   <v>       0.00000000     -37.93653128       0.00000000 </v>
   <v>      -0.00000000      -0.00000000     -37.93653128 </v>
  </varray>
  <energy>
   <i name="e_fr_energy">    -21.81212494 </i>
   <i name="e_wo_entrp">    -21.81204248 </i>
   <i name="e_0_energy">     -0.00016492 </i>
  </energy>
  <time name="totalsc">   25.20   25.71</time>
 </calculation>
 <calculation>
  <scstep>
   <time name="dav">    1.64    1.64</time>
   <time name="total">    1.79    1.82</time>
   <energy>
    <i name="alphaZ">    209.67786734 </i>
    <i name="ewald">  -3107.30951062 </i>
    <i name="hartreedc">   -753.15622496 </i>
    <i name="XCdc">     67.91333361 </i>
    <i name="pawpsdc">   3821.19512192 </i>
    <i name="pawaedc">  -3752.95654227 </i>
    <i name="eentropy">     -0.00016579 </i>
    <i name="bandstr">   -182.01460481 </i>
    <i name="atom">   3674.66789839 </i>
    <i name="e_fr_energy">    -21.98282720 </i>
    <i name="e_wo_entrp">    -21.98266141 </i>
    <i name="e_0_energy">    -21.98274430 </i>
   </energy>
  </scstep>
  <scstep>
   <time name="dav">    1.47    1.47</time>
   <time name="total">    1.63    1.65</time>
   <energy>
    <i name="e_fr_energy">    -21.86287011 </i>
    <i name="e_wo_entrp">    -21.86258217 </i>
    <i name="e_0_energy">    -21.86272614 </i>
   </energy>
  </scstep>
  <scstep>
   <time name="dav">    1.66    1.67</time>
   <time name="total">    1.82    1.84</time>
   <energy>
    <i name="e_fr_energy">    -21.84356787 </i>
    <i name="e_wo_entrp">    -21.84338432 </i>
    <i name="e_0_energy">    -21.84347610 </i>
   </energy>
  </scstep>
  <scstep>
   <time name="dav">    1.91    1.91</time>
   <time name="total">    2.08    2.10</time>
   <energy>
    <i name="e_fr_energy">    -21.84055245 </i>
    <i name="e_wo_entrp">    -21.84039441 </i>
    <i name="e_0_energy">    -21.84047343 </i>
   </energy>
  </scstep>
  <scstep>
   <time name="dav">    1.68    1.68</time>
   <time name="total">    1.85    1.86</time>
   <energy>
    <i name="e_fr_energy">    -21.84065025 </i>
    <i name="e_wo_entrp">    -21.84049039 </i>
    <i name="e_0_energy">    -21.84057032 </i>
   </energy>
  </scstep>
  <scstep>
   <time name="dav">    1.89    1.89</time>
   <time name="total">    2.05    2.07</time>
   <energy>
    <i name="e_fr_energy">    -21.84091914 </i>
    <i name="e_wo_entrp">    -21.84075911 </i>
    <i name="e_0_energy">    -21.84083913 </i>
   </energy>
  </scstep>
  <scstep>
   <time name="dav">    1.66    1.66</time>
   <time name="total">    1.91    1.94</time>
   <energy>
    <i name="e_fr_energy">    -21.84091645 </i>
    <i name="e_wo_entrp">    -21.84075201 </i>
    <i name="e_0_energy">    -21.84083423 </i>
   </energy>
  </scstep>
  <scstep>
   <time name="dav">    1.53    1.53</time>
   <time name="total">    1.58    1.62</time>
   <energy>
    <i name="alphaZ">    209.67786734 </i>
    <i name="ewald">  -3107.30951062 </i>
    <i name="hartreedc">   -739.66998985 </i>
    <i name="XCdc">     67.42375536 </i>
    <i name="pawpsdc">   3864.82768770 </i>
    <i name="pawaedc">  -3796.84827200 </i>
    <i name="eentropy">     -0.00016349 </i>
    <i name="bandstr">   -194.61019201 </i>
    <i name="atom">   3674.66789839 </i>
    <i name="e_fr_energy">    -21.84091918 </i>
    <i name="e_wo_entrp">    -21.84075569 </i>
    <i name="e_0_energy">    -21.84083744 </i>
   </energy>
  </scstep>
  <structure>
   <crystal>
    <varray name="basis" >
     <v>       0.00000000       3.44741336       3.44741336 </v>
     <v>       3.44741336       0.00000000       3.44741336 </v>
     <v>       3.44741336       3.44741336       0.00000000 </v>
    </varray>
    <i name="volume">     81.94266375 </i>
    <varray name="rec_basis" >
     <v>      -0.14503628       0.14503628       0.14503628 </v>
     <v>       0.14503628      -0.14503628       0.14503628 </v>
     <v>       0.14503628       0.14503628      -0.14503628 </v>
    </varray>
   </crystal>
   <varray name="positions" >
    <v>       0.25000000       0.25000000       0.25000000 </v>
    <v>       0.00000000       0.00000000       0.00000000 </v>
    <v>       0.75000000       0.75000000       0.75000000 </v>
   </varray>
  </structure>
  <varray name="forces" >
   <v>       0.00000000      -0.00000000      -0.00000000 </v>
   <v>      -0.00000000       0.00000000       0.00000000 </v>
   <v>      -0.00000000      -0.00000000      -0.00000000 </v>
  </varray>
  <varray name="stress" >
   <v>     -20.84254428      -0.00000000       0.00000000 </v>
   <v>       0.00000000     -20.84254428       0.00000000 </v>
   <v>      -0.00000000      -0.00000000     -20.84254428 </v>
  </varray>
  <energy>
   <i name="e_fr_energy">    -21.84091918 </i>
   <i name="e_wo_entrp">    -21.84083744 </i>
   <i name="e_0_energy">     -0.00016349 </i>
  </energy>
  <time name="totalsc">   16.15   16.53</time>
 </calculation>
 <calculation>
  <scstep>
   <time name="dav">    1.62    1.62</time>
   <time name="total">    1.78    1.79</time>
   <energy>
    <i name="alphaZ">    215.75988679 </i>
    <i name="ewald">  -3137.06766214 </i>
    <i name="hartreedc">   -746.75268127 </i>
    <i name="XCdc">     68.46302867 </i>
    <i name="pawpsdc">   3864.29000763 </i>
    <i name="pawaedc">  -3796.31013385 </i>
    <i name="eentropy">     -0.00006959 </i>
    <i name="bandstr">   -165.21341074 </i>
    <i name="atom">   3674.66789839 </i>
    <i name="e_fr_energy">    -22.16313612 </i>
    <i name="e_wo_entrp">    -22.16306653 </i>
    <i name="e_0_energy">    -22.16310132 </i>
   </energy>
  </scstep>
  <scstep>
   <time name="dav">    1.47    1.47</time>
   <time name="total">    1.63    1.64</time>
   <energy>
    <i name="e_fr_energy">    -21.89872770 </i>
    <i name="e_wo_entrp">    -21.89858096 </i>
    <i name="e_0_energy">    -21.89865433 </i>
   </energy>
  </scstep>
  <scstep>
   <time name="dav">    1.68    1.68</time>
   <time name="total">    1.85    1.86</time>
   <energy>
    <i name="e_fr_energy">    -21.85500368 </i>
    <i name="e_wo_entrp">    -21.85473148 </i>
    <i name="e_0_energy">    -21.85486758 </i>
   </energy>
  </scstep>
  <scstep>
   <time name="dav">    1.95    1.95</time>
   <time name="total">    2.11    2.13</time>
   <energy>
    <i name="e_fr_energy">    -21.84802489 </i>
    <i name="e_wo_entrp">    -21.84778610 </i>
    <i name="e_0_energy">    -21.84790550 </i>
   </energy>
  </scstep>
  <scstep>
   <time name="dav">    1.62    1.62</time>
   <time name="total">    1.78    1.80</time>
   <energy>
    <i name="e_fr_energy">    -21.84824989 </i>
    <i name="e_wo_entrp">    -21.84800425 </i>
    <i name="e_0_energy">    -21.84812707 </i>
   </energy>
  </scstep>
  <scstep>
   <time name="dav">    1.99    1.99</time>
   <time name="total">    2.15    2.17</time>
   <energy>
    <i name="e_fr_energy">    -21.84884274 </i>
    <i name="e_wo_entrp">    -21.84859810 </i>
    <i name="e_0_energy">    -21.84872042 </i>
   </energy>
  </scstep>
  <scstep>
   <time name="dav">    1.60    1.60</time>
   <time name="total">    1.77    1.80</time>
   <energy>
    <i name="e_fr_energy">    -21.84883082 </i>
    <i name="e_wo_entrp">    -21.84856994 </i>
    <i name="e_0_energy">    -21.84870038 </i>
   </energy>
  </scstep>
  <scstep>
   <time name="dav">    1.91    1.92</time>
   <time name="total">    2.07    2.09</time>
   <energy>
    <i name="e_fr_energy">    -21.84884295 </i>
    <i name="e_wo_entrp">    -21.84858435 </i>
    <i name="e_0_energy">    -21.84871365 </i>
   </energy>
  </scstep>
  <scstep>
   <time name="dav">    1.30    1.30</time>
   <time name="total">    1.35    1.37</time>
   <energy>
    <i name="alphaZ">    215.75988679 </i>
    <i name="ewald">  -3137.06766214 </i>
    <i name="hartreedc">   -726.70798243 </i>
    <i name="XCdc">     67.73393931 </i>
    <i name="pawpsdc">   3933.18767746 </i>
    <i name="pawaedc">  -3865.59428919 </i>
    <i name="eentropy">     -0.00025852 </i>
    <i name="bandstr">   -183.82805469 </i>
    <i name="atom">   3674.66789839 </i>
    <i name="e_fr_energy">    -21.84884501 </i>
    <i name="e_wo_entrp">    -21.84858650 </i>
    <i name="e_0_energy">    -21.84871576 </i>
   </energy>
  </scstep>
  <structure>
   <crystal>
    <varray name="basis" >
     <v>       0.00000000       3.41471128       3.41471128 </v>
     <v>       3.41471128       0.00000000       3.41471128 </v>
     <v>       3.41471128       3.41471128       0.00000000 </v>
    </varray>
    <i name="volume">     79.63279567 </i>
    <varray name="rec_basis" >
     <v>      -0.14642526       0.14642526       0.14642526 </v>
     <v>       0.14642526      -0.14642526       0.14642526 </v>
     <v>       0.14642526       0.14642526      -0.14642526 </v>
    </varray>
   </crystal>
   <varray name="positions" >
    <v>       0.25000000       0.25000000       0.25000000 </v>
    <v>       0.00000000       0.00000000       0.00000000 </v>
    <v>       0.75000000       0.75000000       0.75000000 </v>
   </varray>
  </structure>
  <varray name="forces" >
   <v>       0.00000000       0.00000000       0.00000000 </v>
   <v>      -0.00000000      -0.00000000      -0.00000000 </v>
   <v>       0.00000000       0.00000000       0.00000000 </v>
  </varray>
  <varray name="stress" >
   <v>       8.73511714       0.00000000      -0.00000000 </v>
   <v>      -0.00000000       8.73511714      -0.00000000 </v>
   <v>       0.00000000      -0.00000000       8.73511714 </v>
  </varray>
  <energy>
   <i name="e_fr_energy">    -21.84884501 </i>
   <i name="e_wo_entrp">    -21.84871576 </i>
   <i name="e_0_energy">     -0.00025852 </i>
  </energy>
  <time name="totalsc">   17.94   18.34</time>
 </calculation>
 <calculation>
  <scstep>
   <time name="dav">    1.65    1.65</time>
   <time name="total">    1.80    1.81</time>
   <energy>
    <i name="alphaZ">    213.97575139 </i>
    <i name="ewald">  -3128.39683206 </i>
    <i name="hartreedc">   -724.67517358 </i>
    <i name="XCdc">     67.43235121 </i>
    <i name="pawpsdc">   3932.76672020 </i>
    <i name="pawaedc">  -3865.15852638 </i>
    <i name="eentropy">     -0.00016050 </i>
    <i name="bandstr">   -192.48917004 </i>
    <i name="atom">   3674.66789839 </i>
    <i name="e_fr_energy">    -21.87714137 </i>
    <i name="e_wo_entrp">    -21.87698087 </i>
    <i name="e_0_energy">    -21.87706112 </i>
   </energy>
  </scstep>
  <scstep>
   <time name="dav">    1.50    1.50</time>
   <time name="total">    1.66    1.68</time>
   <energy>
    <i name="e_fr_energy">    -21.85482844 </i>
    <i name="e_wo_entrp">    -21.85468311 </i>
    <i name="e_0_energy">    -21.85475577 </i>
   </energy>
  </scstep>
  <scstep>
   <time name="dav">    1.71    1.71</time>
   <time name="total">    1.86    1.89</time>
   <energy>
    <i name="e_fr_energy">    -21.85145266 </i>
    <i name="e_wo_entrp">    -21.85122740 </i>
    <i name="e_0_energy">    -21.85134003 </i>
   </energy>
  </scstep>
  <scstep>
   <time name="dav">    1.89    1.89</time>
   <time name="total">    2.04    2.07</time>
   <energy>
    <i name="e_fr_energy">    -21.85095553 </i>
    <i name="e_wo_entrp">    -21.85072401 </i>
    <i name="e_0_energy">    -21.85083977 </i>
   </energy>
  </scstep>
  <scstep>
   <time name="dav">    1.67    1.67</time>
   <time name="total">    1.82    1.84</time>
   <energy>
    <i name="e_fr_energy">    -21.85097332 </i>
    <i name="e_wo_entrp">    -21.85074248 </i>
    <i name="e_0_energy">    -21.85085790 </i>
   </energy>
  </scstep>
  <scstep>
   <time name="dav">    1.83    1.83</time>
   <time name="total">    1.99    2.01</time>
   <energy>
    <i name="e_fr_energy">    -21.85101070 </i>
    <i name="e_wo_entrp">    -21.85078133 </i>
    <i name="e_0_energy">    -21.85089601 </i>
   </energy>
  </scstep>
  <scstep>
   <time name="dav">    1.37    1.37</time>
   <time name="total">    1.42    1.44</time>
   <energy>
    <i name="alphaZ">    213.97575139 </i>
    <i name="ewald">  -3128.39683206 </i>
    <i name="hartreedc">   -730.44314829 </i>
    <i name="XCdc">     67.64042268 </i>
    <i name="pawpsdc">   3912.35427477 </i>
    <i name="pawaedc">  -3844.61845857 </i>
    <i name="eentropy">     -0.00022674 </i>
    <i name="bandstr">   -187.03069351 </i>
    <i name="atom">   3674.66789839 </i>
    <i name="e_fr_energy">    -21.85101195 </i>
    <i name="e_wo_entrp">    -21.85078521 </i>
    <i name="e_0_energy">    -21.85089858 </i>
   </energy>
  </scstep>
  <structure>
   <crystal>
    <varray name="basis" >
     <v>       0.00000000       3.42417567       3.42417567 </v>
     <v>       3.42417567       0.00000000       3.42417567 </v>
     <v>       3.42417567       3.42417567       0.00000000 </v>
    </varray>
    <i name="volume">     80.29677600 </i>
    <varray name="rec_basis" >
     <v>      -0.14602055       0.14602055       0.14602055 </v>
     <v>       0.14602055      -0.14602055       0.14602055 </v>
     <v>       0.14602055       0.14602055      -0.14602055 </v>
    </varray>
   </crystal>
   <varray name="positions" >
    <v>       0.25000000       0.25000000       0.25000000 </v>
    <v>       0.00000000       0.00000000       0.00000000 </v>
    <v>       0.75000000       0.75000000       0.75000000 </v>
   </varray>
  </structure>
  <varray name="forces" >
   <v>      -0.00000000      -0.00000000      -0.00000000 </v>
   <v>       0.00000000       0.00000000       0.00000000 </v>
   <v>      -0.00000000      -0.00000000      -0.00000000 </v>
  </varray>
  <varray name="stress" >
   <v>       0.90892617      -0.00000000       0.00000000 </v>
   <v>      -0.00000000       0.90892617       0.00000000 </v>
   <v>       0.00000000       0.00000000       0.90892617 </v>
  </varray>
  <energy>
   <i name="e_fr_energy">    -21.85101195 </i>
   <i name="e_wo_entrp">    -21.85089858 </i>
   <i name="e_0_energy">     -0.00022674 </i>
  </energy>
  <time name="totalsc">   13.87   14.29</time>
  <eigenvalues>
   <array>
    <dimension dim="1">band</dimension>
    <dimension dim="2">kpoint</dimension>
    <dimension dim="3">spin</dimension>
    <field>eigene</field>
    <field>occ</field>
    <set>
     <set comment="spin 1">
      <set comment="kpoint 1">
       <r>  -31.5702    1.0000 </r>
       <r>  -14.4792    1.0000 </r>
       <r>  -14.4792    1.0000 </r>
       <r>  -14.4459    1.0000 </r>
       <r>  -14.4459    1.0000 </r>
       <r>  -14.4459    1.0000 </r>
       <r>   -9.5592    1.0000 </r>
       <r>   -9.5592    1.0000 </r>
       <r>   -9.5592    1.0000 </r>
       <r>   -3.7518    1.0000 </r>
       <r>    4.1848    1.0000 </r>
       <r>    4.1848    1.0000 </r>
       <r>    4.1848    1.0000 </r>
       <r>    4.3978    1.0000 </r>
       <r>    4.3978    1.0000 </r>
       <r>    6.6110    1.0000 </r>
       <r>    7.4046    1.0000 </r>
       <r>    7.4046    1.0000 </r>
       <r>    7.4046    1.0000 </r>
       <r>    8.7377    0.0000 </r>
       <r>    8.7377    0.0000 </r>
       <r>    8.7377    0.0000 </r>
       <r>    9.5582    0.0000 </r>
       <r>   10.5015    0.0000 </r>
      </set>
      <set comment="kpoint 2">
       <r>  -31.5698    1.0000 </r>
       <r>  -14.4799    1.0000 </r>
       <r>  -14.4799    1.0000 </r>
       <r>  -14.4460    1.0000 </r>
       <r>  -14.4458    1.0000 </r>
       <r>  -14.4458    1.0000 </r>
       <r>   -9.5757    1.0000 </r>
       <r>   -9.5571    1.0000 </r>
       <r>   -9.5571    1.0000 </r>
       <r>   -3.6908    1.0000 </r>
       <r>    4.0509    1.0000 </r>
       <r>    4.0597    1.0000 </r>
       <r>    4.0597    1.0000 </r>
       <r>    4.5156    1.0000 </r>
       <r>    4.5156    1.0000 </r>
       <r>    6.2932    1.0000 </r>
       <r>    7.3225    1.0000 </r>
       <r>    7.3225    1.0000 </r>
       <r>    7.6046    1.0000 </r>
       <r>    8.8336    0.0000 </r>
       <r>    8.8336    0.0000 </r>
       <r>    8.8422    0.0000 </r>
       <r>    9.7792    0.0000 </r>
       <r>   10.5091    0.0000 </r>
      </set>
      <set comment="kpoint 3">
       <r>  -31.5690    1.0000 </r>
       <r>  -14.4819    1.0000 </r>
       <r>  -14.4819    1.0000 </r>
       <r>  -14.4465    1.0000 </r>
       <r>  -14.4453    1.0000 </r>
       <r>  -14.4453    1.0000 </r>
       <r>   -9.6198    1.0000 </r>
       <r>   -9.5513    1.0000 </r>
       <r>   -9.5513    1.0000 </r>
       <r>   -3.5219    1.0000 </r>
       <r>    3.7130    1.0000 </r>
       <r>    3.8921    1.0000 </r>
       <r>    3.8921    1.0000 </r>
       <r>    4.6511    1.0000 </r>
       <r>    4.6511    1.0000 </r>
       <r>    5.7877    1.0000 </r>
       <r>    7.1530    1.0000 </r>
       <r>    7.1530    1.0000 </r>
       <r>    7.7579    1.0000 </r>
       <r>    9.0603    0.0000 </r>
       <r>    9.0603    0.0000 </r>
       <r>    9.2990    0.0000 </r>
       <r>   10.1761    0.0000 </r>
       <r>   10.5117    0.0000 </r>
      </set>
      <set comment="kpoint 4">
       <r>  -31.5677    1.0000 </r>
       <r>  -14.4848    1.0000 </r>
       <r>  -14.4848    1.0000 </r>
       <r>  -14.4472    1.0000 </r>
       <r>  -14.4447    1.0000 </r>
       <r>  -14.4447    1.0000 </r>
       <r>   -9.6782    1.0000 </r>
       <r>   -9.5431    1.0000 </r>
       <r>   -9.5431    1.0000 </r>
       <r>   -3.2835    1.0000 </r>
       <r>    3.2968    1.0000 </r>
       <r>    3.7636    1.0000 </r>
       <r>    3.7636    1.0000 </r>
       <r>    4.7032    1.0000 </r>
       <r>    4.7032    1.0000 </r>
       <r>    5.3416    1.0000 </r>
       <r>    7.0067    1.0000 </r>
       <r>    7.0067    1.0000 </r>
       <r>    7.8379    1.0000 </r>
       <r>    9.3345    0.0000 </r>
       <r>    9.3345    0.0000 </r>
       <r>    9.9203    0.0000 </r>
       <r>   10.4877    0.0000 </r>
       <r>   10.5170    0.0000 </r>
      </set>
      <set comment="kpoint 5">
       <r>  -31.5664    1.0000 </r>
       <r>  -14.4878    1.0000 </r>
       <r>  -14.4878    1.0000 </r>
       <r>  -14.4480    1.0000 </r>
       <r>  -14.4441    1.0000 </r>
       <r>  -14.4441    1.0000 </r>
       <r>   -9.7358    1.0000 </r>
       <r>   -9.5345    1.0000 </r>
       <r>   -9.5345    1.0000 </r>
       <r>   -3.0296    1.0000 </r>
       <r>    2.9088    1.0000 </r>
       <r>    3.6881    1.0000 </r>
       <r>    3.6881    1.0000 </r>
       <r>    4.6600    1.0000 </r>
       <r>    4.6600    1.0000 </r>
       <r>    5.0110    1.0000 </r>
       <r>    6.9307    1.0000 </r>
       <r>    6.9307    1.0000 </r>
       <r>    7.9520    1.0000 </r>
       <r>    9.6020    0.0000 </r>
       <r>    9.6020    0.0000 </r>
       <r>   10.3835    0.0000 </r>
       <r>   10.4835    0.0000 </r>
       <r>   10.4835    0.0000 </r>
      </set>
      <set comment="kpoint 6">
       <r>  -31.5654    1.0000 </r>
       <r>  -14.4903    1.0000 </r>
       <r>  -14.4903    1.0000 </r>
       <r>  -14.4488    1.0000 </r>
       <r>  -14.4435    1.0000 </r>
       <r>  -14.4435    1.0000 </r>
       <r>   -9.7805    1.0000 </r>
       <r>   -9.5274    1.0000 </r>
       <r>   -9.5274    1.0000 </r>
       <r>   -2.8182    1.0000 </r>
       <r>    2.6186    1.0000 </r>
       <r>    3.6608    1.0000 </r>
       <r>    3.6608    1.0000 </r>
       <r>    4.5651    1.0000 </r>
       <r>    4.5652    1.0000 </r>
       <r>    4.8039    1.0000 </r>
       <r>    6.9108    1.0000 </r>
       <r>    6.9108    1.0000 </r>
       <r>    8.1139    1.0000 </r>
       <r>    9.8130    0.0000 </r>
       <r>    9.8130    0.0000 </r>
       <r>   10.4496    0.0000 </r>
       <r>   10.4496    0.0000 </r>
       <r>   10.5147    0.0000 </r>
      </set>
      <set comment="kpoint 7">
       <r>  -31.5647    1.0000 </r>
       <r>  -14.4917    1.0000 </r>
       <r>  -14.4917    1.0000 </r>
       <r>  -14.4492    1.0000 </r>
       <r>  -14.4432    1.0000 </r>
       <r>  -14.4432    1.0000 </r>
       <r>   -9.8045    1.0000 </r>
       <r>   -9.5234    1.0000 </r>
       <r>   -9.5234    1.0000 </r>
       <r>   -2.6986    1.0000 </r>
       <r>    2.4651    1.0000 </r>
       <r>    3.6601    1.0000 </r>
       <r>    3.6601    1.0000 </r>
       <r>    4.4897    1.0000 </r>
       <r>    4.4897    1.0000 </r>
       <r>    4.7076    1.0000 </r>
       <r>    6.9120    1.0000 </r>
       <r>    6.9120    1.0000 </r>
       <r>    8.2612    1.0000 </r>
       <r>    9.9276    0.0000 </r>
       <r>    9.9276    0.0000 </r>
       <r>   10.3933    0.0000 </r>
       <r>   10.4272    0.0000 </r>
       <r>   10.4272    0.0000 </r>
      </set>
      <set comment="kpoint 8">
       <r>  -31.5697    1.0000 </r>
       <r>  -14.4812    1.0000 </r>
       <r>  -14.4790    1.0000 </r>
       <r>  -14.4462    1.0000 </r>
       <r>  -14.4456    1.0000 </r>
       <r>  -14.4456    1.0000 </r>
       <r>   -9.5718    1.0000 </r>
       <r>   -9.5611    1.0000 </r>
       <r>   -9.5611    1.0000 </r>
       <r>   -3.6722    1.0000 </r>
       <r>    3.7935    1.0000 </r>
       <r>    4.1983    1.0000 </r>
       <r>    4.1983    1.0000 </r>
       <r>    4.4145    1.0000 </r>
       <r>    4.5540    1.0000 </r>
       <r>    6.2755    1.0000 </r>
       <r>    7.2033    1.0000 </r>
       <r>    7.2033    1.0000 </r>
       <r>    7.8443    1.0000 </r>
       <r>    8.5590    0.0000 </r>
       <r>    8.9968    0.0000 </r>
       <r>    8.9968    0.0000 </r>
       <r>    9.8190    0.0000 </r>
       <r>   10.4853    0.0000 </r>
      </set>
      <set comment="kpoint 9">
       <r>  -31.5691    1.0000 </r>
       <r>  -14.4835    1.0000 </r>
       <r>  -14.4795    1.0000 </r>
       <r>  -14.4466    1.0000 </r>
       <r>  -14.4453    1.0000 </r>
       <r>  -14.4453    1.0000 </r>
       <r>   -9.6045    1.0000 </r>
       <r>   -9.5607    1.0000 </r>
       <r>   -9.5547    1.0000 </r>
       <r>   -3.5443    1.0000 </r>
       <r>    3.5095    1.0000 </r>
       <r>    4.0751    1.0000 </r>
       <r>    4.1040    1.0000 </r>
       <r>    4.5191    1.0000 </r>
       <r>    4.6546    1.0000 </r>
       <r>    5.9409    1.0000 </r>
       <r>    7.0250    1.0000 </r>
       <r>    7.0362    1.0000 </r>
       <r>    8.0970    1.0000 </r>
       <r>    8.5861    0.0000 </r>
       <r>    9.2343    0.0000 </r>
       <r>    9.3216    0.0000 </r>
       <r>   10.1121    0.0000 </r>
       <r>   10.4714    0.0000 </r>
      </set>
      <set comment="kpoint 10">
       <r>  -31.5679    1.0000 </r>
       <r>  -14.4862    1.0000 </r>
       <r>  -14.4814    1.0000 </r>
       <r>  -14.4471    1.0000 </r>
       <r>  -14.4449    1.0000 </r>
       <r>  -14.4447    1.0000 </r>
       <r>   -9.6575    1.0000 </r>
       <r>   -9.5561    1.0000 </r>
       <r>   -9.5453    1.0000 </r>
       <r>   -3.3375    1.0000 </r>
       <r>    3.2195    1.0000 </r>
       <r>    3.8466    1.0000 </r>
       <r>    3.9756    1.0000 </r>
       <r>    4.6010    1.0000 </r>
       <r>    4.7446    1.0000 </r>
       <r>    5.5237    1.0000 </r>
       <r>    6.8567    1.0000 </r>
       <r>    6.9112    1.0000 </r>
       <r>    8.1371    1.0000 </r>
       <r>    8.9371    0.0000 </r>
       <r>    9.4775    0.0000 </r>
       <r>    9.7967    0.0000 </r>
       <r>   10.4177    0.0000 </r>
       <r>   10.4602    0.0000 </r>
      </set>
      <set comment="kpoint 11">
       <r>  -31.5667    1.0000 </r>
       <r>  -14.4887    1.0000 </r>
       <r>  -14.4842    1.0000 </r>
       <r>  -14.4478    1.0000 </r>
       <r>  -14.4444    1.0000 </r>
       <r>  -14.4440    1.0000 </r>
       <r>   -9.7144    1.0000 </r>
       <r>   -9.5482    1.0000 </r>
       <r>   -9.5372    1.0000 </r>
       <r>   -3.1002    1.0000 </r>
       <r>    2.9357    1.0000 </r>
       <r>    3.6741    1.0000 </r>
       <r>    3.8764    1.0000 </r>
       <r>    4.5891    1.0000 </r>
       <r>    4.7528    1.0000 </r>
       <r>    5.1586    1.0000 </r>
       <r>    6.7652    1.0000 </r>
       <r>    6.8610    1.0000 </r>
       <r>    8.1318    1.0000 </r>
       <r>    9.3539    0.0000 </r>
       <r>    9.6978    0.0000 </r>
       <r>   10.2430    0.0000 </r>
       <r>   10.4473    0.0000 </r>
       <r>   10.5113    0.0000 </r>
      </set>
      <set comment="kpoint 12">
       <r>  -31.5655    1.0000 </r>
       <r>  -14.4905    1.0000 </r>
       <r>  -14.4873    1.0000 </r>
       <r>  -14.4484    1.0000 </r>
       <r>  -14.4439    1.0000 </r>
       <r>  -14.4434    1.0000 </r>
       <r>   -9.7622    1.0000 </r>
       <r>   -9.5390    1.0000 </r>
       <r>   -9.5322    1.0000 </r>
       <r>   -2.8871    1.0000 </r>
       <r>    2.6978    1.0000 </r>
       <r>    3.6004    1.0000 </r>
       <r>    3.8015    1.0000 </r>
       <r>    4.5255    1.0000 </r>
       <r>    4.6849    1.0000 </r>
       <r>    4.8971    1.0000 </r>
       <r>    6.7430    1.0000 </r>
       <r>    6.8615    1.0000 </r>
       <r>    8.1973    1.0000 </r>
       <r>    9.6753    0.0000 </r>
       <r>    9.8692    0.0000 </r>
       <r>   10.3934    0.0000 </r>
       <r>   10.4304    0.0000 </r>
       <r>   10.5519    0.0000 </r>
      </set>
      <set comment="kpoint 13">
       <r>  -31.5648    1.0000 </r>
       <r>  -14.4911    1.0000 </r>
       <r>  -14.4900    1.0000 </r>
       <r>  -14.4489    1.0000 </r>
       <r>  -14.4435    1.0000 </r>
       <r>  -14.4430    1.0000 </r>
       <r>   -9.7922    1.0000 </r>
       <r>   -9.5314    1.0000 </r>
       <r>   -9.5305    1.0000 </r>
       <r>   -2.7461    1.0000 </r>
       <r>    2.5478    1.0000 </r>
       <r>    3.6122    1.0000 </r>
       <r>    3.7277    1.0000 </r>
       <r>    4.4891    1.0000 </r>
       <r>    4.5860    1.0000 </r>
       <r>    4.7497    1.0000 </r>
       <r>    6.7511    1.0000 </r>
       <r>    6.8732    1.0000 </r>
       <r>    8.3164    1.0000 </r>
       <r>    9.8355    0.0000 </r>
       <r>    9.9642    0.0000 </r>
       <r>   10.3721    0.0000 </r>
       <r>   10.4123    0.0000 </r>
       <r>   10.5230    0.0000 </r>
      </set>
      <set comment="kpoint 14">
       <r>  -31.5646    1.0000 </r>
       <r>  -14.4916    1.0000 </r>
       <r>  -14.4905    1.0000 </r>
       <r>  -14.4490    1.0000 </r>
       <r>  -14.4433    1.0000 </r>
       <r>  -14.4430    1.0000 </r>
       <r>   -9.7998    1.0000 </r>
       <r>   -9.5349    1.0000 </r>
       <r>   -9.5246    1.0000 </r>
       <r>   -2.7076    1.0000 </r>
       <r>    2.5079    1.0000 </r>
       <r>    3.6445    1.0000 </r>
       <r>    3.6783    1.0000 </r>
       <r>    4.5062    1.0000 </r>
       <r>    4.5289    1.0000 </r>
       <r>    4.7160    1.0000 </r>
       <r>    6.7508    1.0000 </r>
       <r>    6.8774    1.0000 </r>
       <r>    8.3747    1.0000 </r>
       <r>    9.8668    0.0000 </r>
       <r>    9.9591    0.0000 </r>
       <r>   10.3745    0.0000 </r>
       <r>   10.4057    0.0000 </r>
       <r>   10.4810    0.0000 </r>
      </set>
      <set comment="kpoint 15">
       <r>  -31.5650    1.0000 </r>
       <r>  -14.4917    1.0000 </r>
       <r>  -14.4886    1.0000 </r>
       <r>  -14.4487    1.0000 </r>
       <r>  -14.4434    1.0000 </r>
       <r>  -14.4433    1.0000 </r>
       <r>   -9.7842    1.0000 </r>
       <r>   -9.5417    1.0000 </r>
       <r>   -9.5226    1.0000 </r>
       <r>   -2.7797    1.0000 </r>
       <r>    2.5859    1.0000 </r>
       <r>    3.5749    1.0000 </r>
       <r>    3.7656    1.0000 </r>
       <r>    4.4882    1.0000 </r>
       <r>    4.6303    1.0000 </r>
       <r>    4.7887    1.0000 </r>
       <r>    6.7203    1.0000 </r>
       <r>    6.8815    1.0000 </r>
       <r>    8.2985    1.0000 </r>
       <r>    9.8366    0.0000 </r>
       <r>    9.8884    0.0000 </r>
       <r>   10.3893    0.0000 </r>
       <r>   10.4189    0.0000 </r>
       <r>   10.5467    0.0000 </r>
      </set>
      <set comment="kpoint 16">
       <r>  -31.5659    1.0000 </r>
       <r>  -14.4905    1.0000 </r>
       <r>  -14.4861    1.0000 </r>
       <r>  -14.4481    1.0000 </r>
       <r>  -14.4439    1.0000 </r>
       <r>  -14.4438    1.0000 </r>
       <r>   -9.7476    1.0000 </r>
       <r>   -9.5502    1.0000 </r>
       <r>   -9.5251    1.0000 </r>
       <r>   -2.9477    1.0000 </r>
       <r>    2.7798    1.0000 </r>
       <r>    3.5498    1.0000 </r>
       <r>    3.8606    1.0000 </r>
       <r>    4.5302    1.0000 </r>
       <r>    4.7412    1.0000 </r>
       <r>    4.9702    1.0000 </r>
       <r>    6.6655    1.0000 </r>
       <r>    6.9126    1.0000 </r>
       <r>    8.1965    1.0000 </r>
       <r>    9.6074    0.0000 </r>
       <r>    9.7862    0.0000 </r>
       <r>   10.3773    0.0000 </r>
       <r>   10.4425    0.0000 </r>
       <r>   10.5467    0.0000 </r>
      </set>
      <set comment="kpoint 17">
       <r>  -31.5671    1.0000 </r>
       <r>  -14.4881    1.0000 </r>
       <r>  -14.4834    1.0000 </r>
       <r>  -14.4474    1.0000 </r>
       <r>  -14.4446    1.0000 </r>
       <r>  -14.4444    1.0000 </r>
       <r>   -9.6962    1.0000 </r>
       <r>   -9.5583    1.0000 </r>
       <r>   -9.5315    1.0000 </r>
       <r>   -3.1748    1.0000 </r>
       <r>    3.0718    1.0000 </r>
       <r>    3.5881    1.0000 </r>
       <r>    3.9759    1.0000 </r>
       <r>    4.5716    1.0000 </r>
       <r>    4.8026    1.0000 </r>
       <r>    5.2656    1.0000 </r>
       <r>    6.6316    1.0000 </r>
       <r>    7.0026    1.0000 </r>
       <r>    8.1468    1.0000 </r>
       <r>    9.3179    0.0000 </r>
       <r>    9.5203    0.0000 </r>
       <r>   10.1334    0.0000 </r>
       <r>   10.4661    0.0000 </r>
       <r>   10.5206    0.0000 </r>
      </set>
      <set comment="kpoint 18">
       <r>  -31.5684    1.0000 </r>
       <r>  -14.4851    1.0000 </r>
       <r>  -14.4811    1.0000 </r>
       <r>  -14.4468    1.0000 </r>
       <r>  -14.4452    1.0000 </r>
       <r>  -14.4449    1.0000 </r>
       <r>   -9.6406    1.0000 </r>
       <r>   -9.5636    1.0000 </r>
       <r>   -9.5403    1.0000 </r>
       <r>   -3.4090    1.0000 </r>
       <r>    3.4207    1.0000 </r>
       <r>    3.6945    1.0000 </r>
       <r>    4.1182    1.0000 </r>
       <r>    4.5422    1.0000 </r>
       <r>    4.7770    1.0000 </r>
       <r>    5.6493    1.0000 </r>
       <r>    6.7018    1.0000 </r>
       <r>    7.1532    1.0000 </r>
       <r>    8.1204    1.0000 </r>
       <r>    9.0363    0.0000 </r>
       <r>    9.1026    0.0000 </r>
       <r>    9.7215    0.0000 </r>
       <r>   10.3301    0.0000 </r>
       <r>   10.4839    0.0000 </r>
      </set>
      <set comment="kpoint 19">
       <r>  -31.5693    1.0000 </r>
       <r>  -14.4821    1.0000 </r>
       <r>  -14.4799    1.0000 </r>
       <r>  -14.4463    1.0000 </r>
       <r>  -14.4456    1.0000 </r>
       <r>  -14.4454    1.0000 </r>
       <r>   -9.5960    1.0000 </r>
       <r>   -9.5633    1.0000 </r>
       <r>   -9.5496    1.0000 </r>
       <r>   -3.5956    1.0000 </r>
       <r>    3.7668    1.0000 </r>
       <r>    3.8603    1.0000 </r>
       <r>    4.2100    1.0000 </r>
       <r>    4.4724    1.0000 </r>
       <r>    4.6687    1.0000 </r>
       <r>    6.0293    1.0000 </r>
       <r>    6.9641    1.0000 </r>
       <r>    7.2978    1.0000 </r>
       <r>    7.9306    1.0000 </r>
       <r>    8.8030    0.0000 </r>
       <r>    8.8453    0.0000 </r>
       <r>    9.2916    0.0000 </r>
       <r>   10.0158    0.0000 </r>
       <r>   10.4955    0.0000 </r>
      </set>
      <set comment="kpoint 20">
       <r>  -31.5686    1.0000 </r>
       <r>  -14.4854    1.0000 </r>
       <r>  -14.4783    1.0000 </r>
       <r>  -14.4471    1.0000 </r>
       <r>  -14.4449    1.0000 </r>
       <r>  -14.4449    1.0000 </r>
       <r>   -9.6052    1.0000 </r>
       <r>   -9.5665    1.0000 </r>
       <r>   -9.5665    1.0000 </r>
       <r>   -3.4714    1.0000 </r>
       <r>    3.2196    1.0000 </r>
       <r>    4.2244    1.0000 </r>
       <r>    4.2244    1.0000 </r>
       <r>    4.4615    1.0000 </r>
       <r>    4.5809    1.0000 </r>
       <r>    5.9240    1.0000 </r>
       <r>    6.8870    1.0000 </r>
       <r>    6.8870    1.0000 </r>
       <r>    8.1544    1.0000 </r>
       <r>    8.5994    0.0000 </r>
       <r>    9.4571    0.0000 </r>
       <r>    9.4571    0.0000 </r>
       <r>   10.2167    0.0000 </r>
       <r>   10.4302    0.0000 </r>
      </set>
      <set comment="kpoint 21">
       <r>  -31.5677    1.0000 </r>
       <r>  -14.4872    1.0000 </r>
       <r>  -14.4786    1.0000 </r>
       <r>  -14.4477    1.0000 </r>
       <r>  -14.4444    1.0000 </r>
       <r>  -14.4443    1.0000 </r>
       <r>   -9.6421    1.0000 </r>
       <r>   -9.5673    1.0000 </r>
       <r>   -9.5617    1.0000 </r>
       <r>   -3.3238    1.0000 </r>
       <r>    2.9837    1.0000 </r>
       <r>    4.0862    1.0000 </r>
       <r>    4.1632    1.0000 </r>
       <r>    4.5272    1.0000 </r>
       <r>    4.6357    1.0000 </r>
       <r>    5.7064    1.0000 </r>
       <r>    6.6927    1.0000 </r>
       <r>    6.7844    1.0000 </r>
       <r>    8.3027    1.0000 </r>
       <r>    8.7393    0.0000 </r>
       <r>    9.6609    0.0000 </r>
       <r>    9.7636    0.0000 </r>
       <r>   10.3963    0.0000 </r>
       <r>   10.4169    0.0000 </r>
      </set>
      <set comment="kpoint 22">
       <r>  -31.5666    1.0000 </r>
       <r>  -14.4886    1.0000 </r>
       <r>  -14.4805    1.0000 </r>
       <r>  -14.4481    1.0000 </r>
       <r>  -14.4441    1.0000 </r>
       <r>  -14.4436    1.0000 </r>
       <r>   -9.6917    1.0000 </r>
       <r>   -9.5631    1.0000 </r>
       <r>   -9.5546    1.0000 </r>
       <r>   -3.1399    1.0000 </r>
       <r>    2.8246    1.0000 </r>
       <r>    3.8532    1.0000 </r>
       <r>    4.0655    1.0000 </r>
       <r>    4.5486    1.0000 </r>
       <r>    4.7117    1.0000 </r>
       <r>    5.3988    1.0000 </r>
       <r>    6.5118    1.0000 </r>
       <r>    6.7573    1.0000 </r>
       <r>    8.3763    1.0000 </r>
       <r>    9.1095    0.0000 </r>
       <r>    9.8292    0.0000 </r>
       <r>   10.1156    0.0000 </r>
       <r>   10.3794    0.0000 </r>
       <r>   10.5313    0.0000 </r>
      </set>
      <set comment="kpoint 23">
       <r>  -31.5654    1.0000 </r>
       <r>  -14.4891    1.0000 </r>
       <r>  -14.4834    1.0000 </r>
       <r>  -14.4485    1.0000 </r>
       <r>  -14.4439    1.0000 </r>
       <r>  -14.4430    1.0000 </r>
       <r>   -9.7365    1.0000 </r>
       <r>   -9.5547    1.0000 </r>
       <r>   -9.5521    1.0000 </r>
       <r>   -2.9642    1.0000 </r>
       <r>    2.7406    1.0000 </r>
       <r>    3.6785    1.0000 </r>
       <r>    3.9592    1.0000 </r>
       <r>    4.5255    1.0000 </r>
       <r>    4.7230    1.0000 </r>
       <r>    5.1002    1.0000 </r>
       <r>    6.4318    1.0000 </r>
       <r>    6.7755    1.0000 </r>
       <r>    8.3675    1.0000 </r>
       <r>    9.5463    0.0000 </r>
       <r>    9.9587    0.0000 </r>
       <r>   10.3181    0.0000 </r>
       <r>   10.3787    0.0000 </r>
       <r>   10.5663    0.0000 </r>
      </set>
      <set comment="kpoint 24">
       <r>  -31.5646    1.0000 </r>
       <r>  -14.4888    1.0000 </r>
       <r>  -14.4866    1.0000 </r>
       <r>  -14.4486    1.0000 </r>
       <r>  -14.4438    1.0000 </r>
       <r>  -14.4426    1.0000 </r>
       <r>   -9.7672    1.0000 </r>
       <r>   -9.5552    1.0000 </r>
       <r>   -9.5441    1.0000 </r>
       <r>   -2.8339    1.0000 </r>
       <r>    2.7050    1.0000 </r>
       <r>    3.6112    1.0000 </r>
       <r>    3.8284    1.0000 </r>
       <r>    4.5298    1.0000 </r>
       <r>    4.6739    1.0000 </r>
       <r>    4.8859    1.0000 </r>
       <r>    6.4153    1.0000 </r>
       <r>    6.7927    1.0000 </r>
       <r>    8.4267    1.0000 </r>
       <r>    9.7448    0.0000 </r>
       <r>   10.0386    0.0000 </r>
       <r>   10.3443    0.0000 </r>
       <r>   10.3779    0.0000 </r>
       <r>   10.5818    0.0000 </r>
      </set>
      <set comment="kpoint 25">
       <r>  -31.5643    1.0000 </r>
       <r>  -14.4895    1.0000 </r>
       <r>  -14.4876    1.0000 </r>
       <r>  -14.4485    1.0000 </r>
       <r>  -14.4439    1.0000 </r>
       <r>  -14.4426    1.0000 </r>
       <r>   -9.7791    1.0000 </r>
       <r>   -9.5629    1.0000 </r>
       <r>   -9.5337    1.0000 </r>
       <r>   -2.7718    1.0000 </r>
       <r>    2.6872    1.0000 </r>
       <r>    3.6529    1.0000 </r>
       <r>    3.6832    1.0000 </r>
       <r>    4.5908    1.0000 </r>
       <r>    4.5959    1.0000 </r>
       <r>    4.8025    1.0000 </r>
       <r>    6.4043    1.0000 </r>
       <r>    6.7919    1.0000 </r>
       <r>    8.5273    0.0000 </r>
       <r>    9.7138    0.0000 </r>
       <r>   10.0446    0.0000 </r>
       <r>   10.3735    0.0000 </r>
       <r>   10.3922    0.0000 </r>
       <r>   10.5448    0.0000 </r>
      </set>
      <set comment="kpoint 26">
       <r>  -31.5644    1.0000 </r>
       <r>  -14.4913    1.0000 </r>
       <r>  -14.4859    1.0000 </r>
       <r>  -14.4482    1.0000 </r>
       <r>  -14.4439    1.0000 </r>
       <r>  -14.4429    1.0000 </r>
       <r>   -9.7713    1.0000 </r>
       <r>   -9.5726    1.0000 </r>
       <r>   -9.5258    1.0000 </r>
       <r>   -2.7881    1.0000 </r>
       <r>    2.6866    1.0000 </r>
       <r>    3.5580    1.0000 </r>
       <r>    3.7721    1.0000 </r>
       <r>    4.5173    1.0000 </r>
       <r>    4.7050    1.0000 </r>
       <r>    4.8563    1.0000 </r>
       <r>    6.3544    1.0000 </r>
       <r>    6.7884    1.0000 </r>
       <r>    8.5613    0.0000 </r>
       <r>    9.7529    0.0000 </r>
       <r>    9.9413    0.0000 </r>
       <r>   10.3811    0.0000 </r>
       <r>   10.4058    0.0000 </r>
       <r>   10.5575    0.0000 </r>
      </set>
      <set comment="kpoint 27">
       <r>  -31.5651    1.0000 </r>
       <r>  -14.4917    1.0000 </r>
       <r>  -14.4840    1.0000 </r>
       <r>  -14.4478    1.0000 </r>
       <r>  -14.4441    1.0000 </r>
       <r>  -14.4435    1.0000 </r>
       <r>   -9.7460    1.0000 </r>
       <r>   -9.5810    1.0000 </r>
       <r>   -9.5223    1.0000 </r>
       <r>   -2.8835    1.0000 </r>
       <r>    2.7355    1.0000 </r>
       <r>    3.4838    1.0000 </r>
       <r>    3.9321    1.0000 </r>
       <r>    4.4836    1.0000 </r>
       <r>    4.8140    1.0000 </r>
       <r>    5.0260    1.0000 </r>
       <r>    6.2584    1.0000 </r>
       <r>    6.8154    1.0000 </r>
       <r>    8.5444    0.0000 </r>
       <r>    9.7275    0.0000 </r>
       <r>    9.7947    0.0000 </r>
       <r>   10.3797    0.0000 </r>
       <r>   10.4013    0.0000 </r>
       <r>   10.5920    0.0000 </r>
      </set>
      <set comment="kpoint 28">
       <r>  -31.5662    1.0000 </r>
       <r>  -14.4905    1.0000 </r>
       <r>  -14.4823    1.0000 </r>
       <r>  -14.4474    1.0000 </r>
       <r>  -14.4443    1.0000 </r>
       <r>  -14.4441    1.0000 </r>
       <r>   -9.7092    1.0000 </r>
       <r>   -9.5842    1.0000 </r>
       <r>   -9.5240    1.0000 </r>
       <r>   -3.0436    1.0000 </r>
       <r>    2.8723    1.0000 </r>
       <r>    3.4792    1.0000 </r>
       <r>    4.1001    1.0000 </r>
       <r>    4.4722    1.0000 </r>
       <r>    4.8752    1.0000 </r>
       <r>    5.2808    1.0000 </r>
       <r>    6.1754    1.0000 </r>
       <r>    6.9019    1.0000 </r>
       <r>    8.5431    0.0000 </r>
       <r>    9.4517    0.0000 </r>
       <r>    9.6187    0.0000 </r>
       <r>   10.2909    0.0000 </r>
       <r>   10.4262    0.0000 </r>
       <r>   10.5923    0.0000 </r>
      </set>
      <set comment="kpoint 29">
       <r>  -31.5674    1.0000 </r>
       <r>  -14.4882    1.0000 </r>
       <r>  -14.4813    1.0000 </r>
       <r>  -14.4471    1.0000 </r>
       <r>  -14.4447    1.0000 </r>
       <r>  -14.4445    1.0000 </r>
       <r>   -9.6706    1.0000 </r>
       <r>   -9.5784    1.0000 </r>
       <r>   -9.5305    1.0000 </r>
       <r>   -3.2345    1.0000 </r>
       <r>    3.1096    1.0000 </r>
       <r>    3.5509    1.0000 </r>
       <r>    4.2181    1.0000 </r>
       <r>    4.4575    1.0000 </r>
       <r>    4.8608    1.0000 </r>
       <r>    5.5186    1.0000 </r>
       <r>    6.2799    1.0000 </r>
       <r>    7.0388    1.0000 </r>
       <r>    8.4790    0.9871 </r>
       <r>    9.1910    0.0000 </r>
       <r>    9.2641    0.0000 </r>
       <r>   10.0728    0.0000 </r>
       <r>   10.4536    0.0000 </r>
       <r>   10.5064    0.0000 </r>
      </set>
      <set comment="kpoint 30">
       <r>  -31.5670    1.0000 </r>
       <r>  -14.4877    1.0000 </r>
       <r>  -14.4773    1.0000 </r>
       <r>  -14.4485    1.0000 </r>
       <r>  -14.4438    1.0000 </r>
       <r>  -14.4438    1.0000 </r>
       <r>   -9.6488    1.0000 </r>
       <r>   -9.5744    1.0000 </r>
       <r>   -9.5744    1.0000 </r>
       <r>   -3.2513    1.0000 </r>
       <r>    2.8106    1.0000 </r>
       <r>    4.2286    1.0000 </r>
       <r>    4.2286    1.0000 </r>
       <r>    4.4621    1.0000 </r>
       <r>    4.5302    1.0000 </r>
       <r>    5.6978    1.0000 </r>
       <r>    6.7004    1.0000 </r>
       <r>    6.7004    1.0000 </r>
       <r>    8.0700    1.0000 </r>
       <r>    9.0053    0.0000 </r>
       <r>    9.8205    0.0000 </r>
       <r>    9.8205    0.0000 </r>
       <r>   10.3308    0.0000 </r>
       <r>   10.4981    0.0000 </r>
      </set>
      <set comment="kpoint 31">
       <r>  -31.5661    1.0000 </r>
       <r>  -14.4874    1.0000 </r>
       <r>  -14.4776    1.0000 </r>
       <r>  -14.4490    1.0000 </r>
       <r>  -14.4432    1.0000 </r>
       <r>  -14.4431    1.0000 </r>
       <r>   -9.6807    1.0000 </r>
       <r>   -9.5757    1.0000 </r>
       <r>   -9.5743    1.0000 </r>
       <r>   -3.1446    1.0000 </r>
       <r>    2.7453    1.0000 </r>
       <r>    4.0510    1.0000 </r>
       <r>    4.1794    1.0000 </r>
       <r>    4.5215    1.0000 </r>
       <r>    4.5627    1.0000 </r>
       <r>    5.5426    1.0000 </r>
       <r>    6.5374    1.0000 </r>
       <r>    6.6903    1.0000 </r>
       <r>    8.2216    1.0000 </r>
       <r>    9.1756    0.0000 </r>
       <r>    9.9430    0.0000 </r>
       <r>   10.0239    0.0000 </r>
       <r>   10.2910    0.0000 </r>
       <r>   10.5436    0.0000 </r>
      </set>
      <set comment="kpoint 32">
       <r>  -31.5651    1.0000 </r>
       <r>  -14.4865    1.0000 </r>
       <r>  -14.4795    1.0000 </r>
       <r>  -14.4493    1.0000 </r>
       <r>  -14.4431    1.0000 </r>
       <r>  -14.4425    1.0000 </r>
       <r>   -9.7156    1.0000 </r>
       <r>   -9.5756    1.0000 </r>
       <r>   -9.5709    1.0000 </r>
       <r>   -3.0327    1.0000 </r>
       <r>    2.7875    1.0000 </r>
       <r>    3.8250    1.0000 </r>
       <r>    4.0785    1.0000 </r>
       <r>    4.5719    1.0000 </r>
       <r>    4.6189    1.0000 </r>
       <r>    5.3138    1.0000 </r>
       <r>    6.3127    1.0000 </r>
       <r>    6.7203    1.0000 </r>
       <r>    8.3793    1.0000 </r>
       <r>    9.4864    0.0000 </r>
       <r>   10.0374    0.0000 </r>
       <r>   10.2356    0.0000 </r>
       <r>   10.3003    0.0000 </r>
       <r>   10.5654    0.0000 </r>
      </set>
      <set comment="kpoint 33">
       <r>  -31.5643    1.0000 </r>
       <r>  -14.4851    1.0000 </r>
       <r>  -14.4826    1.0000 </r>
       <r>  -14.4490    1.0000 </r>
       <r>  -14.4433    1.0000 </r>
       <r>  -14.4421    1.0000 </r>
       <r>   -9.7402    1.0000 </r>
       <r>   -9.5840    1.0000 </r>
       <r>   -9.5611    1.0000 </r>
       <r>   -2.9375    1.0000 </r>
       <r>    2.8921    1.0000 </r>
       <r>    3.6769    1.0000 </r>
       <r>    3.9331    1.0000 </r>
       <r>    4.5996    1.0000 </r>
       <r>    4.6583    1.0000 </r>
       <r>    5.0869    1.0000 </r>
       <r>    6.1596    1.0000 </r>
       <r>    6.7347    1.0000 </r>
       <r>    8.4555    1.0000 </r>
       <r>    9.7155    0.0000 </r>
       <r>   10.1063    0.0000 </r>
       <r>   10.3074    0.0000 </r>
       <r>   10.3336    0.0000 </r>
       <r>   10.5938    0.0000 </r>
      </set>
      <set comment="kpoint 34">
       <r>  -31.5639    1.0000 </r>
       <r>  -14.4860    1.0000 </r>
       <r>  -14.4837    1.0000 </r>
       <r>  -14.4484    1.0000 </r>
       <r>  -14.4439    1.0000 </r>
       <r>  -14.4420    1.0000 </r>
       <r>   -9.7496    1.0000 </r>
       <r>   -9.5982    1.0000 </r>
       <r>   -9.5486    1.0000 </r>
       <r>   -2.8715    1.0000 </r>
       <r>    2.9649    1.0000 </r>
       <r>    3.6378    1.0000 </r>
       <r>    3.7638    1.0000 </r>
       <r>    4.6217    1.0000 </r>
       <r>    4.6702    1.0000 </r>
       <r>    4.9698    1.0000 </r>
       <r>    6.0658    1.0000 </r>
       <r>    6.7168    1.0000 </r>
       <r>    8.5749    0.0000 </r>
       <r>    9.6592    0.0000 </r>
       <r>   10.1353    0.0000 </r>
       <r>   10.3496    0.0000 </r>
       <r>   10.3605    0.0000 </r>
       <r>   10.5711    0.0000 </r>
      </set>
      <set comment="kpoint 35">
       <r>  -31.5639    1.0000 </r>
       <r>  -14.4891    1.0000 </r>
       <r>  -14.4825    1.0000 </r>
       <r>  -14.4476    1.0000 </r>
       <r>  -14.4446    1.0000 </r>
       <r>  -14.4423    1.0000 </r>
       <r>   -9.7448    1.0000 </r>
       <r>   -9.6126    1.0000 </r>
       <r>   -9.5362    1.0000 </r>
       <r>   -2.8423    1.0000 </r>
       <r>    2.9310    1.0000 </r>
       <r>    3.6072    1.0000 </r>
       <r>    3.7072    1.0000 </r>
       <r>    4.5573    1.0000 </r>
       <r>    4.7679    1.0000 </r>
       <r>    5.0055    1.0000 </r>
       <r>    5.9859    1.0000 </r>
       <r>    6.6924    1.0000 </r>
       <r>    8.7187    0.0000 </r>
       <r>    9.5931    0.0000 </r>
       <r>   10.0809    0.0000 </r>
       <r>   10.3528    0.0000 </r>
       <r>   10.3995    0.0000 </r>
       <r>   10.5554    0.0000 </r>
      </set>
      <set comment="kpoint 36">
       <r>  -31.5644    1.0000 </r>
       <r>  -14.4911    1.0000 </r>
       <r>  -14.4819    1.0000 </r>
       <r>  -14.4470    1.0000 </r>
       <r>  -14.4449    1.0000 </r>
       <r>  -14.4429    1.0000 </r>
       <r>   -9.7318    1.0000 </r>
       <r>   -9.6189    1.0000 </r>
       <r>   -9.5266    1.0000 </r>
       <r>   -2.8592    1.0000 </r>
       <r>    2.8386    1.0000 </r>
       <r>    3.4949    1.0000 </r>
       <r>    3.8455    1.0000 </r>
       <r>    4.5131    1.0000 </r>
       <r>    4.8561    1.0000 </r>
       <r>    5.1520    1.0000 </r>
       <r>    5.8989    1.0000 </r>
       <r>    6.7037    1.0000 </r>
       <r>    8.7895    0.0000 </r>
       <r>    9.6429    0.0000 </r>
       <r>    9.9136    0.0000 </r>
       <r>   10.3688    0.0000 </r>
       <r>   10.4205    0.0000 </r>
       <r>   10.5651    0.0000 </r>
      </set>
      <set comment="kpoint 37">
       <r>  -31.5652    1.0000 </r>
       <r>  -14.4916    1.0000 </r>
       <r>  -14.4818    1.0000 </r>
       <r>  -14.4472    1.0000 </r>
       <r>  -14.4446    1.0000 </r>
       <r>  -14.4435    1.0000 </r>
       <r>   -9.7193    1.0000 </r>
       <r>   -9.6087    1.0000 </r>
       <r>   -9.5222    1.0000 </r>
       <r>   -2.9289    1.0000 </r>
       <r>    2.7954    1.0000 </r>
       <r>    3.4484    1.0000 </r>
       <r>    4.0072    1.0000 </r>
       <r>    4.4809    1.0000 </r>
       <r>    4.8972    1.0000 </r>
       <r>    5.2888    1.0000 </r>
       <r>    5.9015    1.0000 </r>
       <r>    6.7791    1.0000 </r>
       <r>    8.7534    0.0000 </r>
       <r>    9.6598    0.0000 </r>
       <r>    9.6781    0.0000 </r>
       <r>   10.3911    0.0000 </r>
       <r>   10.3944    0.0000 </r>
       <r>   10.5970    0.0000 </r>
      </set>
      <set comment="kpoint 38">
       <r>  -31.5654    1.0000 </r>
       <r>  -14.4855    1.0000 </r>
       <r>  -14.4762    1.0000 </r>
       <r>  -14.4499    1.0000 </r>
       <r>  -14.4424    1.0000 </r>
       <r>  -14.4424    1.0000 </r>
       <r>   -9.6918    1.0000 </r>
       <r>   -9.5831    1.0000 </r>
       <r>   -9.5831    1.0000 </r>
       <r>   -3.1218    1.0000 </r>
       <r>    2.7706    1.0000 </r>
       <r>    4.1900    1.0000 </r>
       <r>    4.1900    1.0000 </r>
       <r>    4.2822    1.0000 </r>
       <r>    4.6065    1.0000 </r>
       <r>    5.4797    1.0000 </r>
       <r>    6.6966    1.0000 </r>
       <r>    6.6966    1.0000 </r>
       <r>    8.0684    1.0000 </r>
       <r>    9.3388    0.0000 </r>
[...]
       <r>    8.9190    0.0000 </r>
       <r>    9.3784    0.0000 </r>
       <r>   10.1546    0.0000 </r>
       <r>   10.2608    0.0000 </r>
       <r>   10.3806    0.0000 </r>
       <r>   10.5344    0.0000 </r>
      </set>
      <set comment="kpoint 81">
       <r>  -31.5636    1.0000 </r>
       <r>  -14.4870    1.0000 </r>
       <r>  -14.4783    1.0000 </r>
       <r>  -14.4474    1.0000 </r>
       <r>  -14.4453    1.0000 </r>
       <r>  -14.4413    1.0000 </r>
       <r>   -9.7100    1.0000 </r>
       <r>   -9.6419    1.0000 </r>
       <r>   -9.5591    1.0000 </r>
       <r>   -2.9264    1.0000 </r>
       <r>    3.2064    1.0000 </r>
       <r>    3.5194    1.0000 </r>
       <r>    3.9334    1.0000 </r>
       <r>    4.5845    1.0000 </r>
       <r>    4.7762    1.0000 </r>
       <r>    5.1503    1.0000 </r>
       <r>    5.5207    1.0000 </r>
       <r>    6.8357    1.0000 </r>
       <r>    8.9372    0.0000 </r>
       <r>    9.3706    0.0000 </r>
       <r>   10.1352    0.0000 </r>
       <r>   10.2650    0.0000 </r>
       <r>   10.3923    0.0000 </r>
       <r>   10.5300    0.0000 </r>
      </set>
      <set comment="kpoint 82">
       <r>  -31.5633    1.0000 </r>
       <r>  -14.4820    1.0000 </r>
       <r>  -14.4752    1.0000 </r>
       <r>  -14.4497    1.0000 </r>
       <r>  -14.4432    1.0000 </r>
       <r>  -14.4405    1.0000 </r>
       <r>   -9.7176    1.0000 </r>
       <r>   -9.6226    1.0000 </r>
       <r>   -9.5896    1.0000 </r>
       <r>   -3.0291    1.0000 </r>
       <r>    3.5208    1.0000 </r>
       <r>    3.6222    1.0000 </r>
       <r>    4.0616    1.0000 </r>
       <r>    4.5196    1.0000 </r>
       <r>    4.7719    1.0000 </r>
       <r>    4.8608    1.0000 </r>
       <r>    5.7374    1.0000 </r>
       <r>    6.9867    1.0000 </r>
       <r>    8.6244    0.0000 </r>
       <r>    9.6996    0.0000 </r>
       <r>   10.0668    0.0000 </r>
       <r>   10.1808    0.0000 </r>
       <r>   10.3114    0.0000 </r>
       <r>   10.5423    0.0000 </r>
      </set>
      <set comment="kpoint 83">
       <r>  -31.5632    1.0000 </r>
       <r>  -14.4841    1.0000 </r>
       <r>  -14.4752    1.0000 </r>
       <r>  -14.4486    1.0000 </r>
       <r>  -14.4444    1.0000 </r>
       <r>  -14.4405    1.0000 </r>
       <r>   -9.7031    1.0000 </r>
       <r>   -9.6416    1.0000 </r>
       <r>   -9.5850    1.0000 </r>
       <r>   -2.9958    1.0000 </r>
       <r>    3.5052    1.0000 </r>
       <r>    3.6024    1.0000 </r>
       <r>    4.0207    1.0000 </r>
       <r>    4.5596    1.0000 </r>
       <r>    4.8005    1.0000 </r>
       <r>    4.9364    1.0000 </r>
       <r>    5.4424    1.0000 </r>
       <r>    6.9754    1.0000 </r>
       <r>    8.7984    0.0000 </r>
       <r>    9.5455    0.0000 </r>
       <r>   10.1156    0.0000 </r>
       <r>   10.1841    0.0000 </r>
       <r>   10.3519    0.0000 </r>
       <r>   10.5467    0.0000 </r>
      </set>
      <set comment="kpoint 84">
       <r>  -31.5632    1.0000 </r>
       <r>  -14.4852    1.0000 </r>
       <r>  -14.4752    1.0000 </r>
       <r>  -14.4477    1.0000 </r>
       <r>  -14.4455    1.0000 </r>
       <r>  -14.4405    1.0000 </r>
       <r>   -9.6959    1.0000 </r>
       <r>   -9.6461    1.0000 </r>
       <r>   -9.5861    1.0000 </r>
       <r>   -2.9784    1.0000 </r>
       <r>    3.4695    1.0000 </r>
       <r>    3.5742    1.0000 </r>
       <r>    4.0363    1.0000 </r>
       <r>    4.5812    1.0000 </r>
       <r>    4.8282    1.0000 </r>
       <r>    5.0225    1.0000 </r>
       <r>    5.2347    1.0000 </r>
       <r>    6.9978    1.0000 </r>
       <r>    9.0206    0.0000 </r>
       <r>    9.3369    0.0000 </r>
       <r>   10.0969    0.0000 </r>
       <r>   10.1813    0.0000 </r>
       <r>   10.3846    0.0000 </r>
       <r>   10.5269    0.0000 </r>
      </set>
     </set>
    </set>
   </array>
  </eigenvalues>
  <separator name="orbital magnetization" >
   <v name="MAGDIPOLOUT">      0.00000000      0.00000000      0.00000000</v>
  </separator>
  <dos>
   <i name="efermi">      8.49471134 </i>
   <total>
    <array>
     <dimension dim="1">gridpoints</dimension>
     <dimension dim="2">spin</dimension>
     <field>energy</field>
     <field>total</field>
     <field>integrated</field>
     <set>
      <set comment="spin 1">
       <r>   -33.6788     0.0000     0.0000 </r>
       <r>   -33.5242     0.0000     0.0000 </r>
       <r>   -33.3695     0.0000     0.0000 </r>
       <r>   -33.2149     0.0000     0.0000 </r>
       <r>   -33.0603     0.0000     0.0000 </r>
       <r>   -32.9056     0.0000     0.0000 </r>
       <r>   -32.7510     0.0000     0.0000 </r>
       <r>   -32.5964     0.0000     0.0000 </r>
       <r>   -32.4417     0.0000     0.0000 </r>
       <r>   -32.2871     0.0000     0.0000 </r>
       <r>   -32.1325     0.0000     0.0000 </r>
       <r>   -31.9778     0.0000     0.0000 </r>
       <r>   -31.8232     0.0000     0.0000 </r>
       <r>   -31.6686     0.0000     0.0000 </r>
       <r>   -31.5139    12.9338     2.0000 </r>
       <r>   -31.3593     0.0000     2.0000 </r>
       <r>   -31.2047     0.0000     2.0000 </r>
       <r>   -31.0500     0.0000     2.0000 </r>
       <r>   -30.8954     0.0000     2.0000 </r>
       <r>   -30.7408     0.0000     2.0000 </r>
       <r>   -30.5861     0.0000     2.0000 </r>
       <r>   -30.4315     0.0000     2.0000 </r>
       <r>   -30.2769     0.0000     2.0000 </r>
       <r>   -30.1222     0.0000     2.0000 </r>
       <r>   -29.9676     0.0000     2.0000 </r>
       <r>   -29.8130     0.0000     2.0000 </r>
       <r>   -29.6583     0.0000     2.0000 </r>
       <r>   -29.5037     0.0000     2.0000 </r>
       <r>   -29.3491     0.0000     2.0000 </r>
       <r>   -29.1944     0.0000     2.0000 </r>
       <r>   -29.0398     0.0000     2.0000 </r>
       <r>   -28.8852     0.0000     2.0000 </r>
       <r>   -28.7305     0.0000     2.0000 </r>
       <r>   -28.5759     0.0000     2.0000 </r>
       <r>   -28.4213     0.0000     2.0000 </r>
       <r>   -28.2666     0.0000     2.0000 </r>
       <r>   -28.1120     0.0000     2.0000 </r>
       <r>   -27.9574     0.0000     2.0000 </r>
       <r>   -27.8027     0.0000     2.0000 </r>
       <r>   -27.6481     0.0000     2.0000 </r>
       <r>   -27.4935     0.0000     2.0000 </r>
       <r>   -27.3388     0.0000     2.0000 </r>
       <r>   -27.1842     0.0000     2.0000 </r>
       <r>   -27.0296     0.0000     2.0000 </r>
       <r>   -26.8749     0.0000     2.0000 </r>
       <r>   -26.7203     0.0000     2.0000 </r>
       <r>   -26.5657     0.0000     2.0000 </r>
       <r>   -26.4110     0.0000     2.0000 </r>
       <r>   -26.2564     0.0000     2.0000 </r>
       <r>   -26.1018     0.0000     2.0000 </r>
       <r>   -25.9471     0.0000     2.0000 </r>
       <r>   -25.7925     0.0000     2.0000 </r>
       <r>   -25.6379     0.0000     2.0000 </r>
       <r>   -25.4832     0.0000     2.0000 </r>
       <r>   -25.3286     0.0000     2.0000 </r>
       <r>   -25.1740     0.0000     2.0000 </r>
       <r>   -25.0193     0.0000     2.0000 </r>
       <r>   -24.8647     0.0000     2.0000 </r>
       <r>   -24.7101     0.0000     2.0000 </r>
       <r>   -24.5554     0.0000     2.0000 </r>
       <r>   -24.4008     0.0000     2.0000 </r>
       <r>   -24.2462     0.0000     2.0000 </r>
       <r>   -24.0915     0.0000     2.0000 </r>
       <r>   -23.9369     0.0000     2.0000 </r>
       <r>   -23.7823     0.0000     2.0000 </r>
       <r>   -23.6276     0.0000     2.0000 </r>
       <r>   -23.4730     0.0000     2.0000 </r>
       <r>   -23.3184     0.0000     2.0000 </r>
       <r>   -23.1637     0.0000     2.0000 </r>
       <r>   -23.0091     0.0000     2.0000 </r>
       <r>   -22.8545     0.0000     2.0000 </r>
       <r>   -22.6998     0.0000     2.0000 </r>
       <r>   -22.5452     0.0000     2.0000 </r>
       <r>   -22.3906     0.0000     2.0000 </r>
       <r>   -22.2359     0.0000     2.0000 </r>
       <r>   -22.0813     0.0000     2.0000 </r>
       <r>   -21.9267     0.0000     2.0000 </r>
       <r>   -21.7720     0.0000     2.0000 </r>
       <r>   -21.6174     0.0000     2.0000 </r>
       <r>   -21.4628     0.0000     2.0000 </r>
       <r>   -21.3081     0.0000     2.0000 </r>
       <r>   -21.1535     0.0000     2.0000 </r>
       <r>   -20.9989     0.0000     2.0000 </r>
       <r>   -20.8442     0.0000     2.0000 </r>
       <r>   -20.6896     0.0000     2.0000 </r>
       <r>   -20.5350     0.0000     2.0000 </r>
       <r>   -20.3803     0.0000     2.0000 </r>
       <r>   -20.2257     0.0000     2.0000 </r>
       <r>   -20.0711     0.0000     2.0000 </r>
       <r>   -19.9164     0.0000     2.0000 </r>
       <r>   -19.7618     0.0000     2.0000 </r>
       <r>   -19.6072     0.0000     2.0000 </r>
       <r>   -19.4525     0.0000     2.0000 </r>
       <r>   -19.2979     0.0000     2.0000 </r>
       <r>   -19.1433     0.0000     2.0000 </r>
       <r>   -18.9886     0.0000     2.0000 </r>
       <r>   -18.8340     0.0000     2.0000 </r>
       <r>   -18.6794     0.0000     2.0000 </r>
       <r>   -18.5247     0.0000     2.0000 </r>
       <r>   -18.3701     0.0000     2.0000 </r>
       <r>   -18.2155     0.0000     2.0000 </r>
       <r>   -18.0608     0.0000     2.0000 </r>
       <r>   -17.9062     0.0000     2.0000 </r>
       <r>   -17.7516     0.0000     2.0000 </r>
       <r>   -17.5969     0.0000     2.0000 </r>
       <r>   -17.4423     0.0000     2.0000 </r>
       <r>   -17.2877     0.0000     2.0000 </r>
       <r>   -17.1330     0.0000     2.0000 </r>
       <r>   -16.9784     0.0000     2.0000 </r>
       <r>   -16.8238     0.0000     2.0000 </r>
       <r>   -16.6691     0.0000     2.0000 </r>
       <r>   -16.5145     0.0000     2.0000 </r>
       <r>   -16.3599     0.0000     2.0000 </r>
       <r>   -16.2052     0.0000     2.0000 </r>
       <r>   -16.0506     0.0000     2.0000 </r>
       <r>   -15.8960     0.0000     2.0000 </r>
       <r>   -15.7413     0.0000     2.0000 </r>
       <r>   -15.5867     0.0000     2.0000 </r>
       <r>   -15.4321     0.0000     2.0000 </r>
       <r>   -15.2774     0.0000     2.0000 </r>
       <r>   -15.1228     0.0000     2.0000 </r>
       <r>   -14.9682     0.0000     2.0000 </r>
       <r>   -14.8135     0.0000     2.0000 </r>
       <r>   -14.6589     0.0000     2.0000 </r>
       <r>   -14.5043     0.1813     2.0280 </r>
       <r>   -14.3496     0.0000    12.0000 </r>
       <r>   -14.1950     0.0000    12.0000 </r>
       <r>   -14.0404     0.0000    12.0000 </r>
       <r>   -13.8857     0.0000    12.0000 </r>
       <r>   -13.7311     0.0000    12.0000 </r>
       <r>   -13.5765     0.0000    12.0000 </r>
       <r>   -13.4218     0.0000    12.0000 </r>
       <r>   -13.2672     0.0000    12.0000 </r>
       <r>   -13.1126     0.0000    12.0000 </r>
       <r>   -12.9579     0.0000    12.0000 </r>
       <r>   -12.8033     0.0000    12.0000 </r>
       <r>   -12.6487     0.0000    12.0000 </r>
       <r>   -12.4940     0.0000    12.0000 </r>
       <r>   -12.3394     0.0000    12.0000 </r>
       <r>   -12.1848     0.0000    12.0000 </r>
       <r>   -12.0301     0.0000    12.0000 </r>
       <r>   -11.8755     0.0000    12.0000 </r>
       <r>   -11.7209     0.0000    12.0000 </r>
       <r>   -11.5662     0.0000    12.0000 </r>
       <r>   -11.4116     0.0000    12.0000 </r>
       <r>   -11.2570     0.0000    12.0000 </r>
       <r>   -11.1023     0.0000    12.0000 </r>
       <r>   -10.9477     0.0000    12.0000 </r>
       <r>   -10.7931     0.0000    12.0000 </r>
       <r>   -10.6384     0.0000    12.0000 </r>
       <r>   -10.4838     0.0000    12.0000 </r>
       <r>   -10.3292     0.0000    12.0000 </r>
       <r>   -10.1745     0.0000    12.0000 </r>
       <r>   -10.0199     0.0000    12.0000 </r>
       <r>    -9.8653     0.0000    12.0000 </r>
       <r>    -9.7106     8.8815    13.4243 </r>
       <r>    -9.5560    15.3040    16.5477 </r>
       <r>    -9.4014     0.0000    18.0000 </r>
       <r>    -9.2467     0.0000    18.0000 </r>
       <r>    -9.0921     0.0000    18.0000 </r>
       <r>    -8.9375     0.0000    18.0000 </r>
       <r>    -8.7828     0.0000    18.0000 </r>
       <r>    -8.6282     0.0000    18.0000 </r>
       <r>    -8.4736     0.0000    18.0000 </r>
       <r>    -8.3189     0.0000    18.0000 </r>
       <r>    -8.1643     0.0000    18.0000 </r>
       <r>    -8.0097     0.0000    18.0000 </r>
       <r>    -7.8550     0.0000    18.0000 </r>
       <r>    -7.7004     0.0000    18.0000 </r>
       <r>    -7.5458     0.0000    18.0000 </r>
       <r>    -7.3911     0.0000    18.0000 </r>
       <r>    -7.2365     0.0000    18.0000 </r>
       <r>    -7.0819     0.0000    18.0000 </r>
       <r>    -6.9272     0.0000    18.0000 </r>
       <r>    -6.7726     0.0000    18.0000 </r>
       <r>    -6.6180     0.0000    18.0000 </r>
       <r>    -6.4633     0.0000    18.0000 </r>
       <r>    -6.3087     0.0000    18.0000 </r>
       <r>    -6.1541     0.0000    18.0000 </r>
       <r>    -5.9994     0.0000    18.0000 </r>
       <r>    -5.8448     0.0000    18.0000 </r>
       <r>    -5.6902     0.0000    18.0000 </r>
       <r>    -5.5355     0.0000    18.0000 </r>
       <r>    -5.3809     0.0000    18.0000 </r>
       <r>    -5.2263     0.0000    18.0000 </r>
       <r>    -5.0716     0.0000    18.0000 </r>
       <r>    -4.9170     0.0000    18.0000 </r>
       <r>    -4.7624     0.0000    18.0000 </r>
       <r>    -4.6077     0.0000    18.0000 </r>
       <r>    -4.4531     0.0000    18.0000 </r>
       <r>    -4.2985     0.0000    18.0000 </r>
       <r>    -4.1438     0.0000    18.0000 </r>
       <r>    -3.9892     0.0000    18.0000 </r>
       <r>    -3.8346     0.0000    18.0000 </r>
       <r>    -3.6799     0.0549    18.0085 </r>
       <r>    -3.5253     0.2264    18.0487 </r>
       <r>    -3.3707     0.2826    18.1029 </r>
       <r>    -3.2160     0.1935    18.1765 </r>
       <r>    -3.0614     1.4476    18.5033 </r>
       <r>    -2.9068     3.1654    19.3825 </r>
       <r>    -2.7521     1.0294    19.9480 </r>
       <r>    -2.5975     0.0000    20.0000 </r>
       <r>    -2.4429     0.0000    20.0000 </r>
       <r>    -2.2882     0.0000    20.0000 </r>
       <r>    -2.1336     0.0000    20.0000 </r>
       <r>    -1.9790     0.0000    20.0000 </r>
       <r>    -1.8243     0.0000    20.0000 </r>
       <r>    -1.6697     0.0000    20.0000 </r>
       <r>    -1.5151     0.0000    20.0000 </r>
       <r>    -1.3604     0.0000    20.0000 </r>
       <r>    -1.2058     0.0000    20.0000 </r>
       <r>    -1.0512     0.0000    20.0000 </r>
       <r>    -0.8965     0.0000    20.0000 </r>
       <r>    -0.7419     0.0000    20.0000 </r>
       <r>    -0.5873     0.0000    20.0000 </r>
       <r>    -0.4326     0.0000    20.0000 </r>
       <r>    -0.2780     0.0000    20.0000 </r>
       <r>    -0.1234     0.0000    20.0000 </r>
       <r>     0.0313     0.0000    20.0000 </r>
       <r>     0.1859     0.0000    20.0000 </r>
       <r>     0.3405     0.0000    20.0000 </r>
       <r>     0.4952     0.0000    20.0000 </r>
       <r>     0.6498     0.0000    20.0000 </r>
       <r>     0.8044     0.0000    20.0000 </r>
       <r>     0.9591     0.0000    20.0000 </r>
       <r>     1.1137     0.0000    20.0000 </r>
       <r>     1.2683     0.0000    20.0000 </r>
       <r>     1.4230     0.0000    20.0000 </r>
       <r>     1.5776     0.0000    20.0000 </r>
       <r>     1.7322     0.0000    20.0000 </r>
       <r>     1.8869     0.0000    20.0000 </r>
       <r>     2.0415     0.0000    20.0000 </r>
       <r>     2.1961     0.0000    20.0000 </r>
       <r>     2.3508     0.0000    20.0000 </r>
       <r>     2.5054     0.0983    20.0152 </r>
       <r>     2.6600     0.4710    20.1238 </r>
       <r>     2.8147     2.3540    20.6189 </r>
       <r>     2.9693     1.2221    21.0556 </r>
       <r>     3.1239     1.4347    21.3579 </r>
       <r>     3.2786     0.7067    21.5349 </r>
       <r>     3.4332     0.5609    21.7435 </r>
       <r>     3.5878     4.5463    22.6766 </r>
       <r>     3.7425     3.0260    23.7214 </r>
       <r>     3.8971     3.3943    24.5522 </r>
       <r>     4.0517     2.7520    25.3304 </r>
       <r>     4.2064     1.2409    25.9270 </r>
       <r>     4.3610     0.3179    26.0710 </r>
       <r>     4.5156     3.6667    26.6890 </r>
       <r>     4.6703     4.7093    28.4833 </r>
       <r>     4.8249     4.9073    30.0342 </r>
       <r>     4.9795     1.8763    30.6051 </r>
       <r>     5.1342     1.8653    31.1897 </r>
       <r>     5.2888     1.1480    31.5758 </r>
       <r>     5.4434     1.0451    31.8184 </r>
       <r>     5.5981     0.9534    32.0282 </r>
       <r>     5.7527     0.7893    32.1885 </r>
       <r>     5.9073     0.3236    32.4679 </r>
       <r>     6.0620     0.7316    32.6894 </r>
       <r>     6.2166     0.8605    33.0479 </r>
       <r>     6.3712     0.5814    33.2397 </r>
       <r>     6.5259     0.8518    33.5728 </r>
       <r>     6.6805     0.7622    33.7337 </r>
       <r>     6.8351     5.4110    35.0980 </r>
       <r>     6.9898     1.5279    35.7866 </r>
       <r>     7.1444     0.0259    35.9294 </r>
       <r>     7.2990     0.0404    35.9789 </r>
       <r>     7.4537     0.0177    36.0009 </r>
       <r>     7.6083     0.0330    36.0060 </r>
       <r>     7.7629     0.0358    36.0137 </r>
       <r>     7.9176     0.0847    36.0286 </r>
       <r>     8.0722     0.0469    36.0537 </r>
       <r>     8.2268     0.5589    36.2658 </r>
       <r>     8.3815     1.4151    36.5584 </r>
       <r>     8.5361     1.5782    37.1080 </r>
       <r>     8.6907     1.5367    37.6150 </r>
       <r>     8.8454     1.4654    38.0108 </r>
       <r>     9.0000     0.4889    38.1548 </r>
       <r>     9.1546     0.2828    38.3068 </r>
       <r>     9.3093     0.7667    38.4581 </r>
       <r>     9.4639     0.8960    38.8113 </r>
       <r>     9.6185     2.6107    39.5025 </r>
       <r>     9.7732     2.6055    40.2327 </r>
       <r>     9.9278     1.4942    40.7490 </r>
       <r>    10.0824     2.6796    41.4130 </r>
       <r>    10.2371     3.9590    42.8507 </r>
       <r>    10.3917    10.0834    45.2688 </r>
       <r>    10.5463     4.5960    46.8400 </r>
       <r>    10.7010     0.0000    48.0000 </r>
       <r>    10.8556     0.0000    48.0000 </r>
       <r>    11.0102     0.0000    48.0000 </r>
       <r>    11.1649     0.0000    48.0000 </r>
       <r>    11.3195     0.0000    48.0000 </r>
       <r>    11.4741     0.0000    48.0000 </r>
       <r>    11.6288     0.0000    48.0000 </r>
       <r>    11.7834     0.0000    48.0000 </r>
       <r>    11.9380     0.0000    48.0000 </r>
       <r>    12.0927     0.0000    48.0000 </r>
       <r>    12.2473     0.0000    48.0000 </r>
       <r>    12.4019     0.0000    48.0000 </r>
       <r>    12.5566     0.0000    48.0000 </r>
       <r>    12.7112     0.0000    48.0000 </r>
      </set>
     </set>
    </array>
   </total>
  </dos>
 </calculation>
 <structure name="finalpos" >
  <crystal>
   <varray name="basis" >
    <v>       0.00000000       3.42417567       3.42417567 </v>
    <v>       3.42417567       0.00000000       3.42417567 </v>
    <v>       3.42417567       3.42417567       0.00000000 </v>
   </varray>
   <i name="volume">     80.29677600 </i>
   <varray name="rec_basis" >
    <v>      -0.14602055       0.14602055       0.14602055 </v>
    <v>       0.14602055      -0.14602055       0.14602055 </v>
    <v>       0.14602055       0.14602055      -0.14602055 </v>
   </varray>
  </crystal>
  <varray name="positions" >
   <v>       0.25000000       0.25000000       0.25000000 </v>
   <v>       0.00000000       0.00000000       0.00000000 </v>
   <v>       0.75000000       0.75000000       0.75000000 </v>
  </varray>
 </structure>
</modeling>
