 running  128 mpi-ranks, with    1 threads/rank, on    1 nodes
 distrk:  each k-point on   32 cores,    4 groups
 distr:  one band on   16 cores,    2 groups
 vasp.6.4.3 19Mar24 (build Jun  3 2025 16:21:13) complex                         
 POSCAR found type information on POSCAR Ti
 POSCAR found :  1 types and       1 ions
 Reading from existing POTCAR
 scaLAPACK will be used
 Reading from existing POTCAR
 LDA part: xc-table for (Slater+PW92), standard interpolation
 -----------------------------------------------------------------------------
|                                                                             |
|           W    W    AA    RRRRR   N    N  II  N    N   GGGG   !!!           |
|           W    W   A  A   R    R  NN   N  II  NN   N  G    G  !!!           |
|           W    W  A    A  R    R  N N  N  II  N N  N  G       !!!           |
|           W WW W  AAAAAA  RRRRR   N  N N  II  N  N N  G  GGG   !            |
|           WW  WW  A    A  R   R   N   NN  II  N   NN  G    G                |
|           W    W  A    A  R    R  N    N  II  N    N   GGGG   !!!           |
|                                                                             |
|     The requested file  could not be found or opened for reading            |
|     k-point information. Automatic k-point generation is used as a          |
|     fallback, which may lead to unwanted results.                           |
|                                                                             |
 -----------------------------------------------------------------------------

 INCAR ok, starting setup
 POSCAR ok, starting setup
 FFT: planning ... GRIDC
 FFT: planning ... GRID_SOFT
 FFT: planning ... GRID
 WAVECAR not read
 entering main loop
       N       E                     dE             d eps       ncg     rms          rms(c)
DAV:   1     0.113935595205E+03    0.11394E+03   -0.42321E+03 14560   0.453E+02
DAV:   2    -0.196446710444E+01   -0.11590E+03   -0.10721E+03 14920   0.162E+02
DAV:   3    -0.863431160287E+01   -0.66698E+01   -0.65873E+01 17128   0.384E+01
DAV:   4    -0.867967647297E+01   -0.45365E-01   -0.45357E-01 15688   0.325E+00
DAV:   5    -0.867976933357E+01   -0.92861E-04   -0.92859E-04 17072   0.144E-01    0.858E+00
DAV:   6    -0.771200422694E+01    0.96777E+00   -0.65240E-01 18616   0.807E+00    0.225E+00
DAV:   7    -0.770817095754E+01    0.38333E-02   -0.40262E-02 15616   0.110E+00    0.132E+00
DAV:   8    -0.771955227252E+01   -0.11381E-01   -0.39394E-02 14408   0.101E+00    0.138E-01
DAV:   9    -0.771931249835E+01    0.23977E-03   -0.99222E-04 16520   0.241E-01    0.773E-02
DAV:  10    -0.771937389914E+01   -0.61401E-04   -0.28741E-04 15328   0.687E-02    0.676E-03
DAV:  11    -0.771937056262E+01    0.33365E-05   -0.70243E-06 16872   0.167E-02    0.504E-03
DAV:  12    -0.771937174120E+01   -0.11786E-05   -0.53072E-07 18112   0.473E-03    0.126E-03
DAV:  13    -0.771937177980E+01   -0.38604E-07   -0.91047E-08 15560   0.151E-03
   1 F= -.77193718E+01 E0= -.77193718E+01  d E =0.000000E+00
 -----------------------------------------------------------------------------
|                                                                             |
|           W    W    AA    RRRRR   N    N  II  N    N   GGGG   !!!           |
|           W    W   A  A   R    R  NN   N  II  NN   N  G    G  !!!           |
|           W    W  A    A  R    R  N N  N  II  N N  N  G       !!!           |
|           W WW W  AAAAAA  RRRRR   N  N N  II  N  N N  G  GGG   !            |
|           WW  WW  A    A  R   R   N   NN  II  N   NN  G    G                |
|           W    W  A    A  R    R  N    N  II  N    N   GGGG   !!!           |
|                                                                             |
|     Tetrahedron method does not include variations of the Fermi             |
|     occupations, so forces and stress will be inaccurate. We suggest        |
|     using a different smearing scheme ISMEAR = 1 or 2 for metals in         |
|     relaxations.                                                            |
|                                                                             |
 -----------------------------------------------------------------------------

 PROFILE, used timers:     421
