unknown system                          
            1
    -1.609610    1.609610    1.609610
     1.609610   -1.609610    1.609610
     1.609610    1.609610   -1.609610
   Ti
     1
Direct configuration=     1
   0.00000000  0.00000000  0.00000000
