 running  128 mpi-ranks, with    1 threads/rank, on    1 nodes
 distrk:  each k-point on   32 cores,    4 groups
 distr:  one band on   16 cores,    2 groups
 vasp.6.4.3 19Mar24 (build Jun  3 2025 16:21:13) complex                         
 POSCAR found type information on POSCAR NiO 
 POSCAR found :  2 types and       2 ions
 Reading from existing POTCAR
 scaLAPACK will be used
 Reading from existing POTCAR
 LDA part: xc-table for (Slater+PW92), standard interpolation
 -----------------------------------------------------------------------------
|                                                                             |
|           W    W    AA    RRRRR   N    N  II  N    N   GGGG   !!!           |
|           W    W   A  A   R    R  NN   N  II  NN   N  G    G  !!!           |
|           W    W  A    A  R    R  N N  N  II  N N  N  G       !!!           |
|           W WW W  AAAAAA  RRRRR   N  N N  II  N  N N  G  GGG   !            |
|           WW  WW  A    A  R   R   N   NN  II  N   NN  G    G                |
|           W    W  A    A  R    R  N    N  II  N    N   GGGG   !!!           |
|                                                                             |
|     The requested file  could not be found or opened for reading            |
|     k-point information. Automatic k-point generation is used as a          |
|     fallback, which may lead to unwanted results.                           |
|                                                                             |
 -----------------------------------------------------------------------------

 INCAR ok, starting setup
 POSCAR ok, starting setup
 FFT: planning ... GRIDC
 FFT: planning ... GRID_SOFT
 FFT: planning ... GRID
 WAVECAR not read
 entering main loop
       N       E                     dE             d eps       ncg     rms          rms(c)
DAV:   1     0.108298428808E+03    0.10830E+03   -0.62106E+03 28256   0.635E+02
DAV:   2     0.436133250878E+00   -0.10786E+03   -0.94892E+02 25776   0.186E+02
DAV:   3    -0.707529196082E+01   -0.75114E+01   -0.72903E+01 30904   0.435E+01
DAV:   4    -0.713766371938E+01   -0.62372E-01   -0.62316E-01 28752   0.398E+00
DAV:   5    -0.713777695447E+01   -0.11324E-03   -0.11321E-03 30136   0.167E-01    0.226E+01
DAV:   6    -0.117352594591E+02   -0.45975E+01   -0.29962E+01 28768   0.548E+01    0.241E+01
DAV:   7    -0.875979187846E+01    0.29755E+01   -0.57289E+00 28448   0.337E+01    0.896E+00
DAV:   8    -0.987873356169E+01   -0.11189E+01   -0.77188E-01 27680   0.920E+00    0.627E+00
DAV:   9    -0.100849268295E+02   -0.20619E+00   -0.11684E-01 28072   0.755E+00    0.260E+00
DAV:  10    -0.101203131987E+02   -0.35386E-01   -0.54423E-02 29344   0.478E+00    0.672E-01
DAV:  11    -0.101209298712E+02   -0.61667E-03   -0.18664E-02 28312   0.821E-01    0.404E-01
DAV:  12    -0.101214670658E+02   -0.53719E-03   -0.76707E-04 29672   0.326E-01    0.157E-01
DAV:  13    -0.101215291928E+02   -0.62127E-04   -0.19480E-04 29784   0.146E-01    0.770E-02
DAV:  14    -0.101215387729E+02   -0.95800E-05   -0.42006E-05 30240   0.611E-02    0.414E-02
DAV:  15    -0.101215430335E+02   -0.42607E-05   -0.47584E-06 30040   0.469E-02    0.255E-02
DAV:  16    -0.101215468576E+02   -0.38240E-05   -0.26449E-06 30392   0.577E-02    0.760E-03
DAV:  17    -0.101215470699E+02   -0.21232E-06   -0.92855E-07 30824   0.112E-02    0.356E-03
DAV:  18    -0.101215472959E+02   -0.22604E-06   -0.19839E-07 29688   0.107E-02    0.189E-03
DAV:  19    -0.101215473303E+02   -0.34352E-07   -0.15662E-07 26128   0.259E-03
   1 F= -.10121547E+02 E0= -.10121547E+02  d E =0.000000E+00  mag=     2.0000
 PROFILE, used timers:     427
