   3   3   0   0
  0.1797902E+02  0.4240992E-09  0.4240992E-09  0.4240992E-09  0.5000000E-15
  1.000000000000000E-004
  CAR
 unknown system
     16.44062961    -22.32922772  301     11.48872642      1.00000000
    -22.329  0.0000E+00  0.0000E+00
    -22.200  0.0000E+00  0.0000E+00
    -22.071  0.0000E+00  0.0000E+00
    -21.942  0.0000E+00  0.0000E+00
    -21.812  0.0000E+00  0.0000E+00
    -21.683  0.0000E+00  0.0000E+00
    -21.554  0.0000E+00  0.0000E+00
    -21.425  0.0000E+00  0.0000E+00
    -21.295  0.0000E+00  0.0000E+00
    -21.166  0.0000E+00  0.0000E+00
    -21.037  0.0000E+00  0.0000E+00
    -20.908  0.0000E+00  0.0000E+00
    -20.778  0.0000E+00  0.0000E+00
    -20.649  0.0000E+00  0.0000E+00
    -20.520  0.3481E+02  0.4498E+01
    -20.391  0.0000E+00  0.6000E+01
    -20.262  0.0000E+00  0.6000E+01
    -20.132  0.0000E+00  0.6000E+01
    -20.003  0.0000E+00  0.6000E+01
    -19.874  0.0000E+00  0.6000E+01
    -19.745  0.0000E+00  0.6000E+01
    -19.615  0.0000E+00  0.6000E+01
    -19.486  0.0000E+00  0.6000E+01
    -19.357  0.0000E+00  0.6000E+01
    -19.228  0.0000E+00  0.6000E+01
    -19.098  0.0000E+00  0.6000E+01
    -18.969  0.0000E+00  0.6000E+01
    -18.840  0.0000E+00  0.6000E+01
    -18.711  0.0000E+00  0.6000E+01
    -18.581  0.0000E+00  0.6000E+01
    -18.452  0.0000E+00  0.6000E+01
    -18.323  0.0000E+00  0.6000E+01
    -18.194  0.0000E+00  0.6000E+01
    -18.065  0.0000E+00  0.6000E+01
    -17.935  0.0000E+00  0.6000E+01
    -17.806  0.0000E+00  0.6000E+01
    -17.677  0.0000E+00  0.6000E+01
    -17.548  0.0000E+00  0.6000E+01
    -17.418  0.0000E+00  0.6000E+01
    -17.289  0.0000E+00  0.6000E+01
    -17.160  0.0000E+00  0.6000E+01
    -17.031  0.0000E+00  0.6000E+01
    -16.901  0.0000E+00  0.6000E+01
    -16.772  0.0000E+00  0.6000E+01
    -16.643  0.0000E+00  0.6000E+01
    -16.514  0.0000E+00  0.6000E+01
    -16.385  0.0000E+00  0.6000E+01
    -16.255  0.0000E+00  0.6000E+01
    -16.126  0.0000E+00  0.6000E+01
    -15.997  0.0000E+00  0.6000E+01
    -15.868  0.0000E+00  0.6000E+01
    -15.738  0.0000E+00  0.6000E+01
    -15.609  0.0000E+00  0.6000E+01
    -15.480  0.0000E+00  0.6000E+01
    -15.351  0.0000E+00  0.6000E+01
    -15.221  0.0000E+00  0.6000E+01
    -15.092  0.0000E+00  0.6000E+01
    -14.963  0.0000E+00  0.6000E+01
    -14.834  0.0000E+00  0.6000E+01
    -14.704  0.0000E+00  0.6000E+01
    -14.575  0.0000E+00  0.6000E+01
    -14.446  0.0000E+00  0.6000E+01
    -14.317  0.0000E+00  0.6000E+01
    -14.188  0.0000E+00  0.6000E+01
    -14.058  0.0000E+00  0.6000E+01
    -13.929  0.0000E+00  0.6000E+01
    -13.800  0.0000E+00  0.6000E+01
    -13.671  0.0000E+00  0.6000E+01
    -13.541  0.0000E+00  0.6000E+01
    -13.412  0.0000E+00  0.6000E+01
    -13.283  0.0000E+00  0.6000E+01
    -13.154  0.0000E+00  0.6000E+01
    -13.024  0.0000E+00  0.6000E+01
    -12.895  0.0000E+00  0.6000E+01
    -12.766  0.0000E+00  0.6000E+01
    -12.637  0.0000E+00  0.6000E+01
    -12.508  0.0000E+00  0.6000E+01
    -12.378  0.0000E+00  0.6000E+01
    -12.249  0.0000E+00  0.6000E+01
    -12.120  0.0000E+00  0.6000E+01
    -11.991  0.0000E+00  0.6000E+01
    -11.861  0.0000E+00  0.6000E+01
    -11.732  0.0000E+00  0.6000E+01
    -11.603  0.0000E+00  0.6000E+01
    -11.474  0.0000E+00  0.6000E+01
    -11.344  0.0000E+00  0.6000E+01
    -11.215  0.0000E+00  0.6000E+01
    -11.086  0.0000E+00  0.6000E+01
    -10.957  0.0000E+00  0.6000E+01
    -10.828  0.0000E+00  0.6000E+01
    -10.698  0.0000E+00  0.6000E+01
    -10.569  0.0000E+00  0.6000E+01
    -10.440  0.0000E+00  0.6000E+01
    -10.311  0.0000E+00  0.6000E+01
    -10.181  0.0000E+00  0.6000E+01
    -10.052  0.0000E+00  0.6000E+01
     -9.923  0.0000E+00  0.6000E+01
     -9.794  0.0000E+00  0.6000E+01
     -9.664  0.0000E+00  0.6000E+01
     -9.535  0.0000E+00  0.6000E+01
     -9.406  0.0000E+00  0.6000E+01
     -9.277  0.0000E+00  0.6000E+01
     -9.147  0.0000E+00  0.6000E+01
     -9.018  0.0000E+00  0.6000E+01
     -8.889  0.0000E+00  0.6000E+01
     -8.760  0.0000E+00  0.6000E+01
     -8.631  0.0000E+00  0.6000E+01
     -8.501  0.0000E+00  0.6000E+01
     -8.372  0.0000E+00  0.6000E+01
     -8.243  0.0000E+00  0.6000E+01
     -8.114  0.0000E+00  0.6000E+01
     -7.984  0.0000E+00  0.6000E+01
     -7.855  0.0000E+00  0.6000E+01
     -7.726  0.0000E+00  0.6000E+01
     -7.597  0.0000E+00  0.6000E+01
     -7.467  0.0000E+00  0.6000E+01
     -7.338  0.0000E+00  0.6000E+01
     -7.209  0.0000E+00  0.6000E+01
     -7.080  0.0000E+00  0.6000E+01
     -6.951  0.0000E+00  0.6000E+01
     -6.821  0.0000E+00  0.6000E+01
     -6.692  0.0000E+00  0.6000E+01
     -6.563  0.0000E+00  0.6000E+01
     -6.434  0.0000E+00  0.6000E+01
     -6.304  0.0000E+00  0.6000E+01
     -6.175  0.0000E+00  0.6000E+01
     -6.046  0.0000E+00  0.6000E+01
     -5.917  0.0000E+00  0.6000E+01
     -5.787  0.0000E+00  0.6000E+01
     -5.658  0.0000E+00  0.6000E+01
     -5.529  0.0000E+00  0.6000E+01
     -5.400  0.0000E+00  0.6000E+01
     -5.270  0.0000E+00  0.6000E+01
     -5.141  0.0000E+00  0.6000E+01
     -5.012  0.0000E+00  0.6000E+01
     -4.883  0.0000E+00  0.6000E+01
     -4.754  0.0000E+00  0.6000E+01
     -4.624  0.0000E+00  0.6000E+01
     -4.495  0.0000E+00  0.6000E+01
     -4.366  0.0000E+00  0.6000E+01
     -4.237  0.0000E+00  0.6000E+01
     -4.107  0.0000E+00  0.6000E+01
     -3.978  0.0000E+00  0.6000E+01
     -3.849  0.0000E+00  0.6000E+01
     -3.720  0.0000E+00  0.6000E+01
     -3.590  0.0000E+00  0.6000E+01
     -3.461  0.0000E+00  0.6000E+01
     -3.332  0.0000E+00  0.6000E+01
     -3.203  0.0000E+00  0.6000E+01
     -3.074  0.0000E+00  0.6000E+01
     -2.944  0.5586E-08  0.6000E+01
     -2.815  0.5421E-01  0.6008E+01
     -2.686  0.6502E-01  0.6022E+01
     -2.557  0.2254E+00  0.6054E+01
     -2.427  0.4266E-01  0.6059E+01
     -2.298  0.7660E-02  0.6104E+01
     -2.169  0.2254E+00  0.6154E+01
     -2.040  0.2304E+00  0.6184E+01
     -1.910  0.1691E+00  0.6258E+01
     -1.781  0.1693E+00  0.6301E+01
     -1.652  0.3383E+00  0.6374E+01
     -1.523  0.5494E+00  0.6489E+01
     -1.394  0.5314E+00  0.6579E+01
     -1.264  0.6732E+00  0.6718E+01
     -1.135  0.5578E+00  0.6907E+01
     -1.006  0.2692E+01  0.7363E+01
     -0.877  0.2451E+01  0.8000E+01
     -0.747  0.0000E+00  0.8000E+01
     -0.618  0.0000E+00  0.8000E+01
     -0.489  0.0000E+00  0.8000E+01
     -0.360  0.0000E+00  0.8000E+01
     -0.230  0.0000E+00  0.8000E+01
     -0.101  0.0000E+00  0.8000E+01
      0.028  0.0000E+00  0.8000E+01
      0.157  0.0000E+00  0.8000E+01
      0.287  0.0000E+00  0.8000E+01
      0.416  0.0000E+00  0.8000E+01
      0.545  0.0000E+00  0.8000E+01
      0.674  0.0000E+00  0.8000E+01
      0.803  0.0000E+00  0.8000E+01
      0.933  0.0000E+00  0.8000E+01
      1.062  0.0000E+00  0.8000E+01
      1.191  0.0000E+00  0.8000E+01
      1.320  0.0000E+00  0.8000E+01
      1.450  0.0000E+00  0.8000E+01
      1.579  0.0000E+00  0.8000E+01
      1.708  0.0000E+00  0.8000E+01
      1.837  0.0000E+00  0.8000E+01
      1.967  0.0000E+00  0.8000E+01
      2.096  0.0000E+00  0.8000E+01
      2.225  0.0000E+00  0.8000E+01
      2.354  0.0000E+00  0.8000E+01
      2.483  0.0000E+00  0.8000E+01
      2.613  0.2682E+00  0.8035E+01
      2.742  0.1530E+01  0.8298E+01
      2.871  0.1846E+01  0.8716E+01
      3.000  0.1486E+01  0.9162E+01
      3.130  0.1810E+01  0.9439E+01
      3.259  0.1230E+01  0.9714E+01
      3.388  0.7163E+00  0.9819E+01
      3.517  0.1691E+00  0.9917E+01
      3.647  0.5131E+00  0.9983E+01
      3.776  0.2185E+01  0.1044E+02
      3.905  0.2507E+01  0.1116E+02
      4.034  0.2308E+01  0.1172E+02
      4.164  0.3178E+01  0.1231E+02
      4.293  0.2752E+01  0.1279E+02
      4.422  0.2074E+01  0.1333E+02
      4.551  0.1948E+01  0.1365E+02
      4.680  0.1332E+01  0.1391E+02
      4.810  0.3381E+00  0.1401E+02
      4.939  0.3921E-01  0.1402E+02
      5.068  0.1071E+01  0.1417E+02
      5.197  0.2693E+01  0.1467E+02
      5.327  0.7647E+01  0.1602E+02
      5.456  0.3827E+01  0.1687E+02
      5.585  0.2865E+01  0.1761E+02
      5.714  0.1816E+01  0.1813E+02
      5.844  0.1814E+01  0.1847E+02
      5.973  0.1432E+01  0.1874E+02
      6.102  0.1121E+01  0.1904E+02
      6.231  0.1490E+01  0.1931E+02
      6.360  0.8849E+00  0.1948E+02
      6.490  0.4571E+00  0.1961E+02
      6.619  0.6762E+00  0.1976E+02
      6.748  0.6751E+00  0.1989E+02
      6.877  0.6321E+00  0.2000E+02
      7.007  0.8949E+00  0.2014E+02
      7.136  0.4575E+00  0.2033E+02
      7.265  0.1011E+01  0.2052E+02
      7.394  0.5917E+00  0.2060E+02
      7.524  0.1392E+01  0.2078E+02
      7.653  0.9801E+00  0.2100E+02
      7.782  0.7262E+00  0.2115E+02
      7.911  0.1056E+01  0.2137E+02
      8.040  0.1493E+01  0.2167E+02
      8.170  0.4601E+01  0.2233E+02
      8.299  0.7145E+00  0.2259E+02
      8.428  0.1803E+01  0.2300E+02
      8.557  0.1938E+01  0.2334E+02
      8.687  0.1347E+01  0.2360E+02
      8.816  0.6342E+00  0.2375E+02
      8.945  0.4991E+00  0.2387E+02
      9.074  0.2092E+00  0.2393E+02
      9.204  0.7771E-07  0.2397E+02
      9.333  0.1057E+00  0.2400E+02
      9.462  0.0000E+00  0.2400E+02
      9.591  0.0000E+00  0.2400E+02
      9.721  0.0000E+00  0.2400E+02
      9.850  0.0000E+00  0.2400E+02
      9.979  0.0000E+00  0.2400E+02
     10.108  0.0000E+00  0.2400E+02
     10.237  0.0000E+00  0.2400E+02
     10.367  0.0000E+00  0.2400E+02
     10.496  0.0000E+00  0.2400E+02
     10.625  0.4241E-01  0.2401E+02
     10.754  0.3804E+00  0.2407E+02
     10.884  0.5494E+00  0.2416E+02
     11.013  0.2297E+00  0.2425E+02
     11.142  0.8656E+00  0.2442E+02
     11.271  0.9353E+00  0.2456E+02
     11.401  0.7602E+00  0.2476E+02
     11.530  0.1095E+01  0.2506E+02
     11.659  0.2273E+01  0.2543E+02
     11.788  0.3568E+01  0.2609E+02
     11.917  0.1280E+01  0.2630E+02
     12.047  0.1528E+01  0.2663E+02
     12.176  0.1290E+01  0.2699E+02
     12.305  0.3023E+01  0.2776E+02
     12.434  0.1817E+01  0.2813E+02
     12.564  0.2234E+01  0.2852E+02
     12.693  0.2045E+01  0.2888E+02
     12.822  0.1904E+01  0.2934E+02
     12.951  0.1008E+01  0.2961E+02
     13.081  0.6322E+00  0.2971E+02
     13.210  0.1302E+01  0.3005E+02
     13.339  0.1874E+01  0.3038E+02
     13.468  0.7056E+00  0.3051E+02
     13.598  0.1211E+01  0.3073E+02
     13.727  0.2680E+01  0.3118E+02
     13.856  0.1533E+01  0.3151E+02
     13.985  0.9703E+00  0.3172E+02
     14.114  0.6821E+00  0.3187E+02
     14.244  0.7749E+00  0.3197E+02
     14.373  0.0000E+00  0.3199E+02
     14.502  0.0000E+00  0.3199E+02
     14.631  0.8490E-12  0.3199E+02
     14.761  0.0000E+00  0.3200E+02
     14.890  0.0000E+00  0.3200E+02
     15.019  0.0000E+00  0.3200E+02
     15.148  0.0000E+00  0.3200E+02
     15.278  0.0000E+00  0.3200E+02
     15.407  0.0000E+00  0.3200E+02
     15.536  0.0000E+00  0.3200E+02
     15.665  0.0000E+00  0.3200E+02
     15.794  0.0000E+00  0.3200E+02
     15.924  0.0000E+00  0.3200E+02
     16.053  0.0000E+00  0.3200E+02
     16.182  0.0000E+00  0.3200E+02
     16.311  0.0000E+00  0.3200E+02
     16.441  0.0000E+00  0.3200E+02
