    3    3    1    1
  0.1797902E+02  0.4240992E-09  0.4240992E-09  0.4240992E-09  0.5000000E-15
  1.000000000000000E-004
  CAR
 unknown system
     25     84     16

  0.0000000E+00  0.0000000E+00  0.0000000E+00  0.4551661E-03
    1      -20.521731   1.000000
    2      -20.521731   1.000000
    3      -20.521731   1.000000
    4       -2.910357   1.000000
    5        4.192551   1.000000
    6        4.192551   1.000000
    7        4.192551   1.000000
    8        4.969354   1.000000
    9        4.969354   1.000000
   10        9.302873   1.000000
   11        9.302873   1.000000
   12        9.302873   1.000000
   13       11.655774   0.000000
   14       12.522477   0.000000
   15       12.522477   0.000000
   16       12.522477   0.000000

  0.7692308E-01 -0.5950152E-18  0.1707166E-17  0.3641329E-02
    1      -20.524336   1.000000
    2      -20.521438   1.000000
    3      -20.521438   1.000000
    4       -2.826826   1.000000
    5        4.119012   1.000000
    6        4.133658   1.000000
    7        4.133658   1.000000
    8        5.042962   1.000000
    9        5.042962   1.000000
   10        8.808537   1.000000
   11        9.237729   1.000000
   12        9.237729   1.000000
   13       11.584974   0.000000
   14       12.335348   0.000000
   15       12.335348   0.000000
   16       13.154240   0.000000

  0.1538462E+00  0.1850917E-18  0.2039209E-17  0.3641329E-02
    1      -20.531445   1.000000
    2      -20.520587   1.000000
    3      -20.520587   1.000000
    4       -2.585087   1.000000
    5        3.912387   1.000000
    6        4.019813   1.000000
    7        4.019813   1.000000
    8        5.189794   1.000000
    9        5.189794   1.000000
   10        7.849684   1.000000
   11        9.077270   1.000000
   12        9.077270   1.000000
   13       11.579333   0.000000
   14       12.198277   0.000000
   15       12.198277   0.000000
   16       13.909838   0.000000

  0.2307692E+00  0.1326822E-17  0.2009629E-17  0.3641329E-02
    1      -20.541277   1.000000
    2      -20.519407   1.000000
    3      -20.519407   1.000000
    4       -2.213091   1.000000
    5        3.602155   1.000000
    6        3.924549   1.000000
    7        3.924549   1.000000
    8        5.308910   1.000000
    9        5.308910   1.000000
   10        6.920587   1.000000
   11        8.900139   1.000000
   12        8.900139   1.000000
   13       11.615145   0.000000
   14       12.203449   0.000000
   15       12.203449   0.000000
   16       14.678363   0.000000

  0.3076923E+00  0.3701833E-18  0.4078418E-17  0.3641329E-02
    1      -20.551473   1.000000
    2      -20.518148   1.000000
    3      -20.518148   1.000000
    4       -1.762851   1.000000
    5        3.221530   1.000000
    6        3.873616   1.000000
    7        3.873616   1.000000
    8        5.351399   1.000000
    9        5.351399   1.000000
   10        6.195980   1.000000
   11        8.773380   1.000000
   12        8.773380   1.000000
   13       11.654263   0.000000
   14       12.323220   0.000000
   15       12.323220   0.000000
   16       14.176874   0.000000

  0.3846154E+00 -0.1945400E-17  0.7506152E-17  0.3641329E-02
    1      -20.559737   1.000000
    2      -20.517116   1.000000
    3      -20.517116   1.000000
    4       -1.322272   1.000000
    5        2.832595   1.000000
    6        3.862501   1.000000
    7        3.862501   1.000000
    8        5.326921   1.000000
    9        5.326921   1.000000
   10        5.730406   1.000000
   11        8.714224   1.000000
   12        8.714224   1.000000
   13       11.683338   0.000000
   14       12.505988   0.000000
   15       12.505988   0.000000
   16       13.318477   0.000000

  0.4615385E+00  0.4044944E-17  0.2627958E-17  0.3641329E-02
    1      -20.564317   1.000000
    2      -20.516526   1.000000
    3      -20.516526   1.000000
    4       -1.029568   1.000000
    5        2.564424   1.000000
    6        3.868539   1.000000
    7        3.868539   1.000000
    8        5.289375   1.000000
    9        5.289375   1.000000
   10        5.511929   1.000000
   11        8.698056   1.000000
   12        8.698056   1.000000
   13       11.697485   0.000000
   14       12.655672   0.000000
   15       12.655672   0.000000
   16       12.846236   0.000000

  0.7692308E-01  0.7692308E-01  0.2461053E-17  0.2730997E-02
    1      -20.524247   1.000000
    2      -20.521817   1.000000
    3      -20.521817   1.000000
    4       -2.799442   1.000000
    5        3.905381   1.000000
    6        4.229149   1.000000
    7        4.229149   1.000000
    8        5.009999   1.000000
    9        5.087886   1.000000
   10        8.902778   1.000000
   11        9.088641   1.000000
   12        9.088641   1.000000
   13       11.484051   0.745765
   14       12.405448   0.000000
   15       12.806586   0.000000
   16       12.853896   0.000000

  0.1538462E+00  0.7692308E-01  0.6021747E-17  0.1092399E-01
    1      -20.529515   1.000000
    2      -20.521580   1.000000
    3      -20.521116   1.000000
    4       -2.611942   1.000000
    5        3.662338   1.000000
    6        4.193622   1.000000
    7        4.210283   1.000000
    8        5.108546   1.000000
    9        5.190571   1.000000
   10        8.154879   1.000000
   11        8.886640   1.000000
   12        9.005099   1.000000
   13       11.508385   0.002717
   14       12.210385   0.000000
   15       12.506527   0.000000
   16       13.505735   0.000000

  0.2307692E+00  0.7692308E-01  0.7900186E-18  0.1092399E-01
    1      -20.538268   1.000000
    2      -20.520785   1.000000
    3      -20.519998   1.000000
    4       -2.286170   1.000000
    5        3.425390   1.000000
    6        4.056585   1.000000
    7        4.138674   1.000000
    8        5.239257   1.000000
    9        5.305120   1.000000
   10        7.239092   1.000000
   11        8.713176   1.000000
   12        8.849706   1.000000
   13       11.682965   0.000000
   14       12.134818   0.000000
   15       12.332379   0.000000
   16       14.199706   0.000000

  0.3076923E+00  0.7692308E-01  0.9805791E-17  0.1092399E-01
    1      -20.548084   1.000000
    2      -20.519605   1.000000
    3      -20.518994   1.000000
    4       -1.866283   1.000000
    5        3.176546   1.000000
    6        3.906768   1.000000
    7        4.070649   1.000000
    8        5.310415   1.000000
    9        5.375423   1.000000
   10        6.454088   1.000000
   11        8.617667   1.000000
   12        8.686344   1.000000
   13       11.677578   0.000000
   14       12.305775   0.000000
   15       12.389844   0.000000
   16       14.278738   0.000000

  0.3846154E+00  0.7692308E-01 -0.6442637E-18  0.1092399E-01
    1      -20.556715   1.000000
    2      -20.518359   1.000000
    3      -20.518332   1.000000
    4       -1.427049   1.000000
    5        2.897142   1.000000
    6        3.820522   1.000000
    7        4.014393   1.000000
    8        5.313759   1.000000
    9        5.379055   1.000000
   10        5.899353   1.000000
   11        8.577146   1.000000
   12        8.596607   1.000000
   13       11.645043   0.000000
   14       12.416159   0.000000
   15       12.651606   0.000000
   16       13.532030   0.000000

  0.4615385E+00  0.7692308E-01  0.8371508E-17  0.1092399E-01
    1      -20.562305   1.000000
    2      -20.518209   1.000000
    3      -20.517234   1.000000
    4       -1.085713   1.000000
    5        2.651010   1.000000
    6        3.817407   1.000000
    7        3.953337   1.000000
    8        5.303145   1.000000
    9        5.341126   1.000000
   10        5.590759   1.000000
   11        8.524726   1.000000
   12        8.610037   1.000000
   13       11.677123   0.000000
   14       12.488008   0.000000
   15       12.595592   0.000000
   16       13.300678   0.000000

 -0.4615385E+00  0.7692308E-01  0.1697720E-16  0.1092399E-01
    1      -20.563728   1.000000
    2      -20.518567   1.000000
    3      -20.516565   1.000000
    4       -0.984443   1.000000
    5        2.575433   1.000000
    6        3.872943   1.000000
    7        3.875893   1.000000
    8        5.301160   1.000000
    9        5.328830   1.000000
   10        5.515940   1.000000
   11        8.494664   1.000000
   12        8.631222   1.000000
   13       11.742405   0.000000
   14       12.287154   0.000000
   15       12.694970   0.000000
   16       13.334487   0.000000

 -0.3846154E+00  0.7692308E-01 -0.1565657E-16  0.1092399E-01
    1      -20.560738   1.000000
    2      -20.519344   1.000000
    3      -20.516493   1.000000
    4       -1.178582   1.000000
    5        2.732492   1.000000
    6        3.797712   1.000000
    7        3.958682   1.000000
    8        5.281128   1.000000
    9        5.386764   1.000000
   10        5.673474   1.000000
   11        8.456754   1.000000
   12        8.671307   1.000000
   13       11.722835   0.000000
   14       12.483160   0.000000
   15       12.605096   0.000000
   16       13.326839   0.000000

 -0.3076923E+00  0.7692308E-01 -0.5281851E-17  0.1092399E-01
    1      -20.553930   1.000000
    2      -20.520335   1.000000
    3      -20.517010   1.000000
    4       -1.568214   1.000000
    5        3.031090   1.000000
    6        3.750887   1.000000
    7        4.059478   1.000000
    8        5.283081   1.000000
    9        5.429140   1.000000
   10        6.062794   1.000000
   11        8.419571   1.000000
   12        8.763921   1.000000
   13       11.746697   0.000000
   14       12.389761   0.000000
   15       12.534423   0.000000
   16       13.776823   0.000000

 -0.2307692E+00  0.7692308E-01  0.1064855E-16  0.1092399E-01
    1      -20.544740   1.000000
    2      -20.521308   1.000000
    3      -20.518017   1.000000
    4       -2.011976   1.000000
    5        3.355899   1.000000
    6        3.761557   1.000000
    7        4.166369   1.000000
    8        5.256747   1.000000
    9        5.408846   1.000000
   10        6.695448   1.000000
   11        8.434097   1.000000
   12        8.926711   1.000000
   13       11.852200   0.000000
   14       12.163722   0.000000
   15       12.365944   0.000000
   16       14.169641   0.000000

 -0.1538462E+00  0.7692308E-01 -0.6732311E-17  0.1092399E-01
    1      -20.535234   1.000000
    2      -20.521969   1.000000
    3      -20.519287   1.000000
    4       -2.407385   1.000000
    5        3.655280   1.000000
    6        3.839982   1.000000
    7        4.254299   1.000000
    8        5.170823   1.000000
    9        5.314101   1.000000
   10        7.525308   1.000000
   11        8.558184   1.000000
   12        9.121842   1.000000
   13       11.857079   0.000000
   14       12.021069   0.000000
   15       12.353667   0.000000
   16       13.558635   0.000000

 -0.7692308E-01  0.7692308E-01 -0.1190030E-17  0.5461994E-02
    1      -20.527820   1.000000
    2      -20.522013   1.000000
    3      -20.520516   1.000000
    4       -2.691040   1.000000
    5        3.917059   1.000000
    6        3.976845   1.000000
    7        4.260419   1.000000
    8        5.073556   1.000000
    9        5.172800   1.000000
   10        8.354201   1.000000
   11        8.848979   1.000000
   12        9.253323   1.000000
   13       11.659050   0.000000
   14       12.056151   0.000000
   15       12.581812   0.000000
   16       13.009515   0.000000

  0.1538462E+00  0.1538462E+00  0.4922106E-17  0.2730997E-02
    1      -20.531279   1.000000
    2      -20.522038   1.000000
    3      -20.522038   1.000000
    4       -2.484860   1.000000
    5        3.361456   1.000000
    6        4.330318   1.000000
    7        4.330318   1.000000
    8        5.126883   1.000000
    9        5.182315   1.000000
   10        8.158395   1.000000
   11        8.649857   1.000000
   12        8.649857   1.000000
   13       11.218370   1.000000
   14       12.507673   0.000000
   15       12.549471   0.000000
   16       13.588021   0.000000

  0.2307692E+00  0.1538462E+00  0.2690365E-17  0.1092399E-01
    1      -20.537695   1.000000
    2      -20.521845   1.000000
    3      -20.521682   1.000000
    4       -2.220675   1.000000
    5        3.110418   1.000000
    6        4.309806   1.000000
    7        4.344503   1.000000
    8        5.221426   1.000000
    9        5.232006   1.000000
   10        7.525653   1.000000
   11        8.458875   1.000000
   12        8.504958   1.000000
   13       11.284362   1.000000
   14       12.345036   0.000000
   15       12.519555   0.000000
   16       14.039913   0.000000

  0.3076923E+00  0.1538462E+00  0.3014319E-17  0.1092399E-01
    1      -20.545966   1.000000
    2      -20.521338   1.000000
    3      -20.521074   1.000000
    4       -1.858117   1.000000
    5        2.924989   1.000000
    6        4.162823   1.000000
    7        4.300226   1.000000
    8        5.301343   1.000000
    9        5.323042   1.000000
   10        6.779615   1.000000
   11        8.343416   1.000000
   12        8.367954   1.000000
   13       11.445059   1.000000
   14       12.218433   0.000000
   15       12.703567   0.000000
   16       14.170062   0.000000

  0.3846154E+00  0.1538462E+00  0.6458231E-17  0.1092399E-01
    1      -20.553613   1.000000
    2      -20.521597   1.000000
    3      -20.519873   1.000000
    4       -1.462361   1.000000
    5        2.803535   1.000000
    6        3.980147   1.000000
    7        4.225815   1.000000
    8        5.355493   1.000000
    9        5.363709   1.000000
   10        6.160672   1.000000
   11        8.193975   1.000000
   12        8.368582   1.000000
   13       11.461321   0.999947
   14       12.262928   0.000000
   15       13.076747   0.000000
   16       13.586837   0.000000

  0.4615385E+00  0.1538462E+00  0.1580037E-17  0.1092399E-01
    1      -20.558913   1.000000
    2      -20.522463   1.000000
    3      -20.518543   1.000000
    4       -1.128210   1.000000
    5        2.733708   1.000000
    6        3.844780   1.000000
    7        4.116084   1.000000
    8        5.369252   1.000000
    9        5.370988   1.000000
   10        5.767053   1.000000
   11        8.092440   1.000000
   12        8.403987   1.000000
   13       11.478098   0.933598
   14       12.471170   0.000000
   15       12.667747   0.000000
   16       13.710130   0.000000

 -0.4615385E+00  0.1538462E+00 -0.3143145E-16  0.1092399E-01
    1      -20.560841   1.000000
    2      -20.523677   1.000000
    3      -20.517365   1.000000
    4       -0.965700   1.000000
    5        2.712701   1.000000
    6        3.822637   1.000000
    7        3.973601   1.000000
    8        5.314768   1.000000
    9        5.415438   1.000000
   10        5.645999   1.000000
   11        8.021791   1.000000
   12        8.438459   1.000000
   13       11.622987   0.000000
   14       12.186985   0.000000
   15       12.702406   0.000000
   16       13.986888   0.000000

 -0.3846154E+00  0.1538462E+00  0.1920150E-16  0.1092399E-01
    1      -20.559166   1.000000
    2      -20.524836   1.000000
    3      -20.516625   1.000000
    4       -1.043480   1.000000
    5        2.762569   1.000000
    6        3.828761   1.000000
    7        3.929494   1.000000
    8        5.273946   1.000000
    9        5.481476   1.000000
   10        5.751302   1.000000
   11        7.939823   1.000000
   12        8.489901   1.000000
   13       11.760084   0.000000
   14       12.202369   0.000000
   15       12.733227   0.000000
   16       13.916581   0.000000

 -0.3076923E+00  0.1538462E+00  0.1820643E-17  0.1092399E-01
    1      -20.554382   1.000000
    2      -20.525503   1.000000
    3      -20.516478   1.000000
    4       -1.328976   1.000000
    5        2.897193   1.000000
    6        3.721094   1.000000
    7        4.115199   1.000000
    8        5.256000   1.000000
    9        5.525854   1.000000
   10        6.067870   1.000000
   11        7.836611   1.000000
   12        8.599775   1.000000
   13       11.796228   0.000000
   14       12.549650   0.000000
   15       12.738714   0.000000
   16       13.698216   0.000000

 -0.2307692E+00  0.1538462E+00 -0.3057550E-17  0.1092399E-01
    1      -20.547693   1.000000
    2      -20.525302   1.000000
    3      -20.516964   1.000000
    4       -1.717273   1.000000
    5        3.105185   1.000000
    6        3.680063   1.000000
    7        4.292249   1.000000
    8        5.226341   1.000000
    9        5.511587   1.000000
   10        6.577573   1.000000
   11        7.785438   1.000000
   12        8.783688   1.000000
   13       11.981104   0.000000
   14       12.290612   0.000000
   15       12.879165   0.000000
   16       13.710817   0.000000

 -0.1538462E+00  0.1538462E+00  0.3701833E-18  0.5461994E-02
    1      -20.540797   1.000000
    2      -20.524012   1.000000
    3      -20.517981   1.000000
    4       -2.102319   1.000000
    5        3.366450   1.000000
    6        3.720067   1.000000
    7        4.364460   1.000000
    8        5.181948   1.000000
    9        5.433443   1.000000
   10        7.139044   1.000000
   11        7.974521   1.000000
   12        8.993897   1.000000
   13       12.075877   0.000000
   14       12.231872   0.000000
   15       12.451918   0.000000
   16       13.464413   0.000000

  0.2307692E+00  0.2307692E+00  0.7383160E-17  0.2730997E-02
    1      -20.541380   1.000000
    2      -20.522362   1.000000
    3      -20.522362   1.000000
    4       -2.028314   1.000000
    5        2.857493   1.000000
    6        4.470247   1.000000
    7        4.470247   1.000000
    8        5.113552   1.000000
    9        5.303819   1.000000
   10        7.457940   1.000000
   11        8.237824   1.000000
   12        8.237824   1.000000
   13       10.993350   1.000000
   14       12.178696   0.000000
   15       12.737625   0.000000
   16       14.198586   0.000000

  0.3076923E+00  0.2307692E+00  0.5268200E-17  0.1092399E-01
    1      -20.547574   1.000000
    2      -20.522618   1.000000
    3      -20.522183   1.000000
    4       -1.743381   1.000000
    5        2.705931   1.000000
    6        4.425454   1.000000
    7        4.497786   1.000000
    8        5.124763   1.000000
    9        5.399908   1.000000
   10        6.976267   1.000000
   11        8.061717   1.000000
   12        8.121239   1.000000
   13       11.041357   1.000000
   14       12.008237   0.000000
   15       12.917813   0.000000
   16       14.195459   0.000000

  0.3846154E+00  0.2307692E+00  0.8695934E-17  0.1092399E-01
    1      -20.553423   1.000000
    2      -20.523818   1.000000
    3      -20.521383   1.000000
    4       -1.423001   1.000000
    5        2.675365   1.000000
    6        4.225457   1.000000
    7        4.447848   1.000000
    8        5.246028   1.000000
    9        5.454828   1.000000
   10        6.406005   1.000000
   11        7.845626   1.000000
   12        8.115513   1.000000
   13       11.148616   1.000000
   14       11.995581   0.000000
   15       13.326673   0.000000
   16       13.658613   0.000000

  0.4615385E+00  0.2307692E+00  0.7291232E-17  0.1092399E-01
    1      -20.557088   1.000000
    2      -20.526191   1.000000
    3      -20.520140   1.000000
    4       -1.141122   1.000000
    5        2.762515   1.000000
    6        4.003920   1.000000
    7        4.325253   1.000000
    8        5.333680   1.000000
    9        5.486885   1.000000
   10        5.963993   1.000000
   11        7.640465   1.000000
   12        8.156582   1.000000
   13       11.194674   1.000000
   14       12.217374   0.000000
   15       12.936390   0.000000
   16       13.836443   0.000000

 -0.4615385E+00  0.2307692E+00  0.2035315E-17  0.1092399E-01
    1      -20.557832   1.000000
    2      -20.529167   1.000000
    3      -20.518724   1.000000
    4       -0.969974   1.000000
    5        2.907815   1.000000
    6        3.829828   1.000000
    7        4.144732   1.000000
    8        5.267859   1.000000
    9        5.535647   1.000000
   10        5.851237   1.000000
   11        7.477970   1.000000
   12        8.194389   1.000000
   13       11.302732   1.000000
   14       12.390560   0.000000
   15       12.610178   0.000000
   16       13.945817   0.000000

 -0.3846154E+00  0.2307692E+00 -0.2842878E-17  0.1092399E-01
    1      -20.556011   1.000000
    2      -20.531671   1.000000
    3      -20.517466   1.000000
    4       -0.956965   1.000000
    5        2.969615   1.000000
    6        3.811617   1.000000
    7        3.949217   1.000000
    8        5.210027   1.000000
    9        5.592243   1.000000
   10        5.973115   1.000000
   11        7.347869   1.000000
   12        8.248483   1.000000
   13       11.534911   0.000000
   14       12.150945   0.000000
   15       12.859640   0.000000
   16       13.808197   0.000000

 -0.3076923E+00  0.2307692E+00 -0.6362128E-17  0.1092399E-01
    1      -20.552960   1.000000
    2      -20.532197   1.000000
    3      -20.516652   1.000000
    4       -1.110164   1.000000
    5        2.930408   1.000000
    6        3.786142   1.000000
    7        3.983422   1.000000
    8        5.233279   1.000000
    9        5.618565   1.000000
   10        6.211119   1.000000
   11        7.250335   1.000000
   12        8.366595   1.000000
   13       11.708255   0.000000
   14       12.465036   0.000000
   15       12.762362   0.000000
   16       13.700599   0.000000

 -0.2307692E+00  0.2307692E+00  0.2653644E-17  0.5461994E-02
    1      -20.550175   1.000000
    2      -20.529702   1.000000
    3      -20.516462   1.000000
    4       -1.389513   1.000000
    5        2.954243   1.000000
    6        3.689996   1.000000
    7        4.194224   1.000000
    8        5.242740   1.000000
    9        5.589701   1.000000
   10        6.463916   1.000000
   11        7.328211   1.000000
   12        8.562234   1.000000
   13       11.849721   0.000000
   14       12.524138   0.000000
   15       13.130119   0.000000
   16       13.707355   0.000000

  0.3076923E+00  0.3076923E+00  0.9844213E-17  0.2730997E-02
    1      -20.552346   1.000000
    2      -20.522697   1.000000
    3      -20.522697   1.000000
    4       -1.550557   1.000000
    5        2.597274   1.000000
    6        4.609910   1.000000
    7        4.609910   1.000000
    8        4.928593   1.000000
    9        5.510736   1.000000
   10        6.793364   1.000000
   11        7.961195   1.000000
   12        7.961195   1.000000
   13       10.813150   1.000000
   14       11.770389   0.000000
   15       13.044059   0.000000
   16       14.122144   0.000000

  0.3846154E+00  0.3076923E+00  0.8859534E-17  0.1092399E-01
    1      -20.557102   1.000000
    2      -20.523562   1.000000
    3      -20.522511   1.000000
    4       -1.326789   1.000000
    5        2.630299   1.000000
    6        4.474001   1.000000
    7        4.623185   1.000000
    8        5.020747   1.000000
    9        5.589813   1.000000
   10        6.376893   1.000000
   11        7.782413   1.000000
   12        7.920822   1.000000
   13       10.833567   1.000000
   14       11.664408   0.000000
   15       13.305491   0.000000
   16       13.751477   0.000000

  0.4615385E+00  0.3076923E+00  0.1786722E-16  0.1092399E-01
    1      -20.559479   1.000000
    2      -20.526275   1.000000
    3      -20.521644   1.000000
    4       -1.124926   1.000000
    5        2.801594   1.000000
    6        4.228105   1.000000
    7        4.534651   1.000000
    8        5.205977   1.000000
    9        5.629424   1.000000
   10        5.964192   1.000000
   11        7.479482   1.000000
   12        7.947932   1.000000
   13       10.910554   1.000000
   14       11.824517   0.000000
   15       13.127381   0.000000
   16       13.722382   0.000000

 -0.4615385E+00  0.3076923E+00  0.2303178E-16  0.1092399E-01
    1      -20.558577   1.000000
    2      -20.530644   1.000000
    3      -20.520321   1.000000
    4       -0.985254   1.000000
    5        3.052946   1.000000
    6        3.992160   1.000000
    7        4.357279   1.000000
    8        5.175342   1.000000
    9        5.664729   1.000000
   10        5.894124   1.000000
   11        7.157880   1.000000
   12        7.980080   1.000000
   13       11.010883   1.000000
   14       12.289802   0.000000
   15       12.616864   0.000000
   16       13.533467   0.000000

 -0.3846154E+00  0.3076923E+00  0.4259616E-17  0.1092399E-01
    1      -20.555019   1.000000
    2      -20.535324   1.000000
    3      -20.518832   1.000000
    4       -0.929166   1.000000
    5        3.243944   1.000000
    6        3.764803   1.000000
    7        4.138485   1.000000
    8        5.086592   1.000000
    9        5.691668   1.000000
   10        6.155608   1.000000
   11        6.882410   1.000000
   12        8.033667   1.000000
   13       11.209988   1.000000
   14       12.275343   0.000000
   15       12.900326   0.000000
   16       13.461684   0.000000

 -0.3076923E+00  0.3076923E+00  0.7403666E-18  0.5461994E-02
    1      -20.552034   1.000000
    2      -20.536868   1.000000
    3      -20.517512   1.000000
    4       -0.969210   1.000000
    5        3.125347   1.000000
    6        3.794163   1.000000
    7        3.934002   1.000000
    8        5.149690   1.000000
    9        5.679849   1.000000
   10        6.361370   1.000000
   11        6.822638   1.000000
   12        8.159616   1.000000
   13       11.493210   0.263007
   14       12.210538   0.000000
   15       12.961794   0.000000
   16       13.497423   0.000000

  0.3846154E+00  0.3846154E+00  0.1230527E-16  0.2730997E-02
    1      -20.561638   1.000000
    2      -20.522992   1.000000
    3      -20.522992   1.000000
    4       -1.205824   1.000000
    5        2.711668   1.000000
    6        4.712445   1.000000
    7        4.712445   1.000000
    8        4.754401   1.000000
    9        5.701359   1.000000
   10        6.055077   1.000000
   11        7.835532   1.000000
   12        7.835532   1.000000
   13       10.677379   1.000000
   14       11.416205   1.000000
   15       13.233010   0.000000
   16       13.647183   0.000000

  0.4615385E+00  0.3846154E+00  0.9708713E-17  0.1092399E-01
    1      -20.564011   1.000000
    2      -20.524220   1.000000
    3      -20.522737   1.000000
    4       -1.092041   1.000000
    5        2.903966   1.000000
    6        4.475840   1.000000
    7        4.694294   1.000000
    8        4.989974   1.000000
    9        5.670719   1.000000
   10        5.753878   1.000000
   11        7.670297   1.000000
   12        7.833767   1.000000
   13       10.693532   1.000000
   14       11.419573   1.000000
   15       13.185298   0.000000
   16       13.449606   0.000000

 -0.4615385E+00  0.3846154E+00  0.9873941E-18  0.1092399E-01
    1      -20.562925   1.000000
    2      -20.527739   1.000000
    3      -20.521801   1.000000
    4       -1.004300   1.000000
    5        3.128336   1.000000
    6        4.266342   1.000000
    7        4.565433   1.000000
    8        5.059289   1.000000
    9        5.580118   1.000000
   10        5.768400   1.000000
   11        7.318011   1.000000
   12        7.852595   1.000000
   13       10.786107   1.000000
   14       11.765729   0.000000
   15       12.836348   0.000000
   16       13.307116   0.000000

 -0.3846154E+00  0.3846154E+00 -0.3890799E-17  0.5461994E-02
    1      -20.558886   1.000000
    2      -20.532543   1.000000
    3      -20.520404   1.000000
    4       -0.948634   1.000000
    5        3.281994   1.000000
    6        3.998060   1.000000
    7        4.360948   1.000000
    8        4.989200   1.000000
    9        5.752446   1.000000
   10        5.917826   1.000000
   11        6.956205   1.000000
   12        7.902404   1.000000
   13       10.950995   1.000000
   14       12.394994   0.000000
   15       12.502885   0.000000
   16       13.221294   0.000000

  0.4615385E+00  0.4615385E+00  0.1476632E-16  0.2730997E-02
    1      -20.566961   1.000000
    2      -20.523169   1.000000
    3      -20.523169   1.000000
    4       -1.056715   1.000000
    5        3.045542   1.000000
    6        4.740371   1.000000
    7        4.762400   1.000000
    8        4.762400   1.000000
    9        5.332120   1.000000
   10        5.818662   1.000000
   11        7.807128   1.000000
   12        7.807128   1.000000
   13       10.603279   1.000000
   14       11.207862   1.000000
   15       13.100484   0.000000
   16       13.303688   0.000000

 -0.4615385E+00  0.4615385E+00  0.8089889E-17  0.5461994E-02
    1      -20.566537   1.000000
    2      -20.524466   1.000000
    3      -20.522832   1.000000
    4       -1.027232   1.000000
    5        3.136679   1.000000
    6        4.534384   1.000000
    7        4.715466   1.000000
    8        4.981343   1.000000
    9        5.232555   1.000000
   10        5.821182   1.000000
   11        7.648829   1.000000
   12        7.812044   1.000000
   13       10.645238   1.000000
   14       11.333346   1.000000
   15       13.027678   0.000000
   16       13.255597   0.000000

  0.2307692E+00  0.1538462E+00  0.7692308E-01  0.1092399E-01
    1      -20.534652   1.000000
    2      -20.522564   1.000000
    3      -20.520070   1.000000
    4       -2.384297   1.000000
    5        3.398303   1.000000
    6        4.072088   1.000000
    7        4.343275   1.000000
    8        5.153924   1.000000
    9        5.286702   1.000000
   10        7.696734   1.000000
   11        8.401505   1.000000
   12        8.957494   1.000000
   13       11.586066   0.000000
   14       12.267973   0.000000
   15       12.454960   0.000000
   16       13.499360   0.000000

  0.3076923E+00  0.1538462E+00  0.7692308E-01  0.2184797E-01
    1      -20.542402   1.000000
    2      -20.523028   1.000000
    3      -20.518839   1.000000
    4       -2.038323   1.000000
    5        3.167876   1.000000
    6        3.937764   1.000000
    7        4.330840   1.000000
    8        5.220914   1.000000