       N       E                     dE             d eps       ncg     rms          rms(c)
DAV:   1     0.147819264781E+03    0.14782E+03   -0.14604E+04  2696   0.178E+03
DAV:   2    -0.194893004282E+02   -0.16731E+03   -0.16588E+03  3432   0.353E+02
DAV:   3    -0.237365868817E+02   -0.42473E+01   -0.42132E+01  3504   0.516E+01
DAV:   4    -0.237955086521E+02   -0.58922E-01   -0.58317E-01  3360   0.612E+00
DAV:   5    -0.237967657761E+02   -0.12571E-02   -0.12569E-02  3624   0.826E-01    0.568E+01
DAV:   6    -0.232577730507E+02    0.53899E+00   -0.11101E+00  3400   0.875E+00    0.334E+01
DAV:   7    -0.231166843701E+02    0.14109E+00   -0.65943E-01  3624   0.487E+00    0.413E+00
DAV:   8    -0.230889340889E+02    0.27750E-01   -0.22334E-01  3328   0.321E+00    0.941E-01
DAV:   9    -0.230866190965E+02    0.23150E-02   -0.23972E-02  3408   0.125E+00    0.562E-01
DAV:  10    -0.230864741775E+02    0.14492E-03   -0.13243E-03  3360   0.237E-01    0.178E-01
DAV:  11    -0.230864767347E+02   -0.25572E-05   -0.54469E-05  3344   0.572E-02    0.687E-02
DAV:  12    -0.230864783045E+02   -0.15698E-05   -0.14064E-05  3592   0.250E-02    0.206E-02
DAV:  13    -0.230864774078E+02    0.89672E-06   -0.12049E-06  3136   0.792E-03    0.208E-03
DAV:  14    -0.230864774184E+02   -0.10650E-07   -0.95150E-08  2432   0.274E-03
   1 F= -.23086477E+02 E0= -.23086390E+02  d E =-.175143E-03
