 vasp.6.0.8 29Jun18 (build Jun 13 2019 12:54:44) complex

 executed on      IFC18_CrayMPICH date 2021.12.05  14:21:50
 running   64 mpi-ranks, with    1 threads/rank
 distrk:  each k-point on   16 cores,    4 groups
 distr:  one band on NCORES_PER_BAND=   4 cores,    4 groups


--------------------------------------------------------------------------------------------------------


 INCAR:
 POTCAR:    PAW_PBE Hf_pv 06Sep2000
 POTCAR:    PAW_PBE Sb 06Sep2000
 POTCAR:    PAW_PBE Pt 04Feb2005
 POTCAR:    PAW_PBE Hf_pv 06Sep2000
   VRHFIN =Hf: 5p6s5d
   LEXCH  = PE
   EATOM  =   860.9206 eV,   63.2759 Ry

   TITEL  = PAW_PBE Hf_pv 06Sep2000
   LULTRA =        F    use ultrasoft PP ?
   IUNSCR =        1    unscreen: 0-lin 1-nonlin 2-no
   RPACOR =    2.500    partial core radius
   POMASS =  178.490; ZVAL   =   10.000    mass and valenz
   RCORE  =    2.600    outmost cutoff radius
   RWIGS  =    3.050; RWIGS  =    1.614    wigner-seitz radius (au A)
   ENMAX  =  220.334; ENMIN  =  165.250 eV
   RCLOC  =    2.212    cutoff for local pot
   LCOR   =        T    correct aug charges
   LPAW   =        T    paw PP
   EAUG   =  380.878
   DEXC   =    0.000
   RMAX   =    2.665    core radius for proj-oper
   RAUG   =    1.300    factor for augmentation sphere
   RDEP   =    2.681    radius for radial grids
   RDEPT  =    2.139    core radius for aug-charge

   Atomic configuration
   15 entries
     n  l   j            E        occ.
     1  0  0.50    -65259.4397   2.0000
     2  0  0.50    -11157.9884   2.0000
     2  1  1.50     -9795.2114   6.0000
     3  0  0.50     -2541.4060   2.0000
     3  1  1.50     -2134.4772   6.0000
     3  2  2.50     -1653.5420  10.0000
     4  0  0.50      -510.9577   2.0000
     4  1  1.50      -377.5024   6.0000
     4  2  2.50      -205.2086  10.0000
     4  3  3.50       -15.4906  14.0000
     5  0  0.50       -65.6020   2.0000
     5  1  1.50       -34.2798   6.0000
     5  2  2.50        -1.9877   3.0000
     6  0  0.50        -4.7357   1.0000
     5  3  2.50        -1.3606   0.0000
   Description
     l       E           TYP  RCUT    TYP  RCUT
     1    -34.2797769     23  2.500
     1    -35.6403595     23  2.500
     2     -1.9876655     23  2.500
     2      0.0744675     23  2.500
     0     -4.7356889     23  2.600
     0      3.2364748     23  2.600
  local pseudopotential read in
  partial core-charges read in
  partial kinetic energy density read in
  atomic valenz-charges read in
  non local Contribution for L=           1  read in
    real space projection operators read in
  non local Contribution for L=           1  read in
    real space projection operators read in
  non local Contribution for L=           2  read in
    real space projection operators read in
  non local Contribution for L=           2  read in
    real space projection operators read in
  non local Contribution for L=           0  read in
    real space projection operators read in
  non local Contribution for L=           0  read in
    real space projection operators read in
    PAW grid and wavefunctions read in

   number of l-projection  operators is LMAX  =           6
   number of lm-projection operators is LMMAX =          18

 POTCAR:    PAW_PBE Sb 06Sep2000
   VRHFIN =Sb: s2p3
   LEXCH  = PE
   EATOM  =   149.9515 eV,   11.0211 Ry

   TITEL  = PAW_PBE Sb 06Sep2000
   LULTRA =        F    use ultrasoft PP ?
   IUNSCR =        1    unscreen: 0-lin 1-nonlin 2-no
   RPACOR =    2.200    partial core radius
   POMASS =  121.750; ZVAL   =    5.000    mass and valenz
   RCORE  =    2.300    outmost cutoff radius
   RWIGS  =    2.980; RWIGS  =    1.577    wigner-seitz radius (au A)
   ENMAX  =  172.069; ENMIN  =  129.052 eV
   ICORE  =        3    local potential
   LCOR   =        T    correct aug charges
   LPAW   =        T    paw PP
   EAUG   =  380.513
   DEXC   =    0.000
   RMAX   =    2.346    core radius for proj-oper
   RAUG   =    1.300    factor for augmentation sphere
   RDEP   =    2.360    radius for radial grids
   RDEPT  =    2.192    core radius for aug-charge

   Atomic configuration
   13 entries
     n  l   j            E        occ.
     1  0  0.50    -30298.2797   2.0000
     2  0  0.50     -4610.2252   2.0000
     2  1  1.50     -4138.3407   6.0000
     3  0  0.50      -903.8815   2.0000
     3  1  1.50      -750.1337   6.0000
     3  2  2.50      -515.7092  10.0000
     4  0  0.50      -148.8034   2.0000
     4  1  1.50      -101.7581   6.0000
     4  2  2.50       -33.5048  10.0000
     5  0  0.50       -12.8298   2.0000
     5  1  0.50        -4.8276   3.0000
     5  2  1.50        -4.0817   0.0000
     4  3  2.50        -4.0817   0.0000
   Description
     l       E           TYP  RCUT    TYP  RCUT
     0    -12.8297861     23  2.300
     0     13.6058260     23  2.300
     1     -4.8275512     23  2.300
     1     -0.7245443     23  2.300
     2     -4.0817478     23  2.300
     3     -1.3605826     23  2.300
  local pseudopotential read in
  partial core-charges read in
  partial kinetic energy density read in
  atomic valenz-charges read in
  non local Contribution for L=           0  read in
    real space projection operators read in
  non local Contribution for L=           0  read in
    real space projection operators read in
  non local Contribution for L=           1  read in
    real space projection operators read in
  non local Contribution for L=           1  read in
    real space projection operators read in
  non local Contribution for L=           2  read in
    real space projection operators read in
    PAW grid and wavefunctions read in

   number of l-projection  operators is LMAX  =           5
   number of lm-projection operators is LMMAX =          13

 POTCAR:    PAW_PBE Pt 04Feb2005
   VRHFIN =Pt: s1d9
   LEXCH  = PE
   EATOM  =   729.1176 eV,   53.5886 Ry

   TITEL  = PAW_PBE Pt 04Feb2005
   LULTRA =        F    use ultrasoft PP ?
   IUNSCR =        1    unscreen: 0-lin 1-nonlin 2-no
   RPACOR =    2.330    partial core radius
   POMASS =  195.080; ZVAL   =   10.000    mass and valenz
   RCORE  =    2.600    outmost cutoff radius
   RWIGS  =    2.750; RWIGS  =    1.455    wigner-seitz radius (au A)
   ENMAX  =  230.283; ENMIN  =  172.712 eV
   ICORE  =        3    local potential
   LCOR   =        T    correct aug charges
   LPAW   =        T    paw PP
   EAUG   =  358.966
   DEXC   =    0.000
   RMAX   =    2.658    core radius for proj-oper
   RAUG   =    1.300    factor for augmentation sphere
   RDEP   =    2.761    radius for radial grids
   RDEPT  =    2.203    core radius for aug-charge

   Atomic configuration
   16 entries
     n  l   j            E        occ.
     1  0  0.50    -78401.1885   2.0000
     2  0  0.50    -13770.7750   2.0000
     2  1  1.50    -11931.0468   6.0000
     3  0  0.50     -3234.7234   2.0000
     3  1  1.50     -2699.2216   6.0000
     3  2  2.50     -2119.5714  10.0000
     4  0  0.50      -695.1528   2.0000
     4  1  1.50      -519.6034   6.0000
     4  2  2.50      -306.6786  10.0000
     4  3  3.50       -70.1041  14.0000
     5  0  0.50      -101.7747   2.0000
     5  1  1.50       -55.9873   6.0000
     5  2  2.50        -6.1423   9.0000
     6  0  0.50        -5.6573   1.0000
     6  1  1.50        -6.8029   0.0000
     5  3  2.50        -1.3606   0.0000
   Description
     l       E           TYP  RCUT    TYP  RCUT
     2     -6.1423404     23  2.500
     2     -7.5029230     23  2.500
     0     -5.6573207     23  2.500
     0      0.7416693     23  2.500
     1     -2.7211652     23  2.600
     1     20.4087390     23  2.600
     3     -1.3605826     23  2.500
  local pseudopotential read in
  partial core-charges read in
  partial kinetic energy density read in
  atomic valenz-charges read in
  non local Contribution for L=           2  read in
    real space projection operators read in
  non local Contribution for L=           2  read in
    real space projection operators read in
  non local Contribution for L=           0  read in
    real space projection operators read in
  non local Contribution for L=           0  read in
    real space projection operators read in
  non local Contribution for L=           1  read in
    real space projection operators read in
  non local Contribution for L=           1  read in
    real space projection operators read in
    PAW grid and wavefunctions read in

   number of l-projection  operators is LMAX  =           6
   number of lm-projection operators is LMMAX =          18


 -----------------------------------------------------------------------------
|                                                                             |
|  ADVICE TO THIS USER RUNNING 'VASP/VAMP'   (HEAR YOUR MASTER'S VOICE ...):  |
|                                                                             |
|      You enforced a specific xc-type in the INCAR file,                     |
|      a different type was found on the POTCAR file                          |
|          I HOPE YOU KNOW, WHAT YOU ARE  DOING                               |
|                                                                             |
 -----------------------------------------------------------------------------

  PAW_PBE Hf_pv 06Sep2000               :
 energy of atom  1       EATOM= -860.9206
 kinetic energy error for atom=    0.0004 (will be added to EATOM!!)
  PAW_PBE Sb 06Sep2000                  :
 energy of atom  2       EATOM= -149.9515
 kinetic energy error for atom=    0.0002 (will be added to EATOM!!)
  PAW_PBE Pt 04Feb2005                  :
 energy of atom  3       EATOM= -729.1176
 kinetic energy error for atom=    0.0010 (will be added to EATOM!!)


 POSCAR: Hf1 Sb1 Pt1
  positions in direct lattice
  No initial velocities read in
 exchange correlation table for  LEXCH =       14
   RHO(1)=    0.500       N(1)  =     2000
   RHO(2)=  100.500       N(2)  =     4000



--------------------------------------------------------------------------------------------------------


 ion  position               nearest neighbor table
   1  0.750  0.750  0.750-   3 2.60   3 2.60   3 2.60   3 2.60   2 3.00   2 3.00   2 3.00   2 3.00
                             2 3.00   2 3.00
   2  0.250  0.250  0.250-   3 2.60   3 2.60   3 2.60   3 2.60   1 3.00   1 3.00   1 3.00   1 3.00
                             1 3.00   1 3.00
   3  0.000  0.000  0.000-   1 2.60   1 2.60   1 2.60   1 2.60   2 2.60   2 2.60   2 2.60   2 2.60


  LATTYP: Found a face centered cubic cell.
 ALAT       =     5.9976685178

  Lattice vectors:

 A1 = (   0.0000000000,   2.9988342589,   2.9988342589)
 A2 = (   2.9988342589,   0.0000000000,   2.9988342589)
 A3 = (   2.9988342589,   2.9988342589,   0.0000000000)


Analysis of symmetry for initial positions (statically):
=====================================================================
 Subroutine PRICEL returns:
 Original cell was already a primitive cell.


 Routine SETGRP: Setting up the symmetry group for a
 face centered cubic supercell.


 Subroutine GETGRP returns: Found 24 space group operations
 (whereof 24 operations were pure point group operations)
 out of a pool of 48 trial point group operations.


The static configuration has the point symmetry T_d .


Analysis of symmetry for dynamics (positions and initial velocities):
=====================================================================
 Subroutine PRICEL returns:
 Original cell was already a primitive cell.


 Routine SETGRP: Setting up the symmetry group for a
 face centered cubic supercell.


 Subroutine GETGRP returns: Found 24 space group operations
 (whereof 24 operations were pure point group operations)
 out of a pool of 48 trial point group operations.


The dynamic configuration has the point symmetry T_d .


 Subroutine INISYM returns: Found 24 space group operations
 (whereof 24 operations are pure point group operations),
 and found     1 'primitive' translations


----------------------------------------------------------------------------------------

                                     Primitive cell

  volume of cell :      53.9371

  direct lattice vectors                    reciprocal lattice vectors
     0.000000000  2.998834259  2.998834259    -0.166731455  0.166731455  0.166731455
     2.998834259  0.000000000  2.998834259     0.166731455 -0.166731455  0.166731455
     2.998834259  2.998834259  0.000000000     0.166731455  0.166731455 -0.166731455

  length of vectors
     4.240992080  4.240992080  4.240992080     0.288787352  0.288787352  0.288787352

  position of ions in fractional coordinates (direct lattice)
     0.750000000  0.750000000  0.750000000
     0.250000000  0.250000000  0.250000000
     0.000000000  0.000000000  0.000000000

  ion indices of the primitive-cell ions
   primitive index   ion index
                 1           1
                 2           2
                 3           3

----------------------------------------------------------------------------------------



 KPOINTS: KPOINTS

Automatic generation of k-mesh.
Space group operators:
 irot       det(A)        alpha          n_x          n_y          n_z        tau_x        tau_y        tau_z
    1     1.000000     0.000000     1.000000     0.000000     0.000000     0.000000     0.000000     0.000000
    2     1.000000   120.000000    -0.577350    -0.577350    -0.577350     0.000000     0.000000     0.000000
    3     1.000000   120.000000     0.577350     0.577350     0.577350     0.000000     0.000000     0.000000
    4    -1.000000    90.000000     0.000000     0.000000    -1.000000     0.000000     0.000000     0.000000
    5    -1.000000   180.000000    -0.000000     0.707107     0.707107     0.000000     0.000000     0.000000
    6    -1.000000    90.000000     0.000000     1.000000     0.000000     0.000000     0.000000     0.000000
    7     1.000000   180.000000    -0.000000     0.000000    -1.000000     0.000000     0.000000     0.000000
    8     1.000000   120.000000    -0.577350     0.577350     0.577350     0.000000     0.000000     0.000000
    9     1.000000   120.000000    -0.577350     0.577350    -0.577350     0.000000     0.000000     0.000000
   10    -1.000000    90.000000     0.000000     0.000000     1.000000     0.000000     0.000000     0.000000
   11    -1.000000    90.000000    -1.000000    -0.000000    -0.000000     0.000000     0.000000     0.000000
   12    -1.000000   180.000000     0.707107     0.000000     0.707107     0.000000     0.000000     0.000000
   13     1.000000   120.000000     0.577350    -0.577350     0.577350     0.000000     0.000000     0.000000
   14     1.000000   120.000000    -0.577350    -0.577350     0.577350     0.000000     0.000000     0.000000
   15     1.000000   180.000000     1.000000     0.000000     0.000000     0.000000     0.000000     0.000000
   16    -1.000000    90.000000     0.000000    -1.000000     0.000000     0.000000     0.000000     0.000000
   17    -1.000000   180.000000     0.707107     0.707107     0.000000     0.000000     0.000000     0.000000
   18    -1.000000    90.000000     1.000000     0.000000    -0.000000     0.000000     0.000000     0.000000
   19     1.000000   120.000000     0.577350    -0.577350    -0.577350     0.000000     0.000000     0.000000
   20     1.000000   180.000000     0.000000    -1.000000    -0.000000     0.000000     0.000000     0.000000
   21     1.000000   120.000000     0.577350     0.577350    -0.577350     0.000000     0.000000     0.000000
   22    -1.000000   180.000000     0.000000    -0.707107     0.707107     0.000000     0.000000     0.000000
   23    -1.000000   180.000000     0.707107    -0.707107    -0.000000     0.000000     0.000000     0.000000
   24    -1.000000   180.000000     0.707107     0.000000    -0.707107     0.000000     0.000000     0.000000

 Subroutine IBZKPT returns following result:
 ===========================================

 Found     84 irreducible k-points:

 Following reciprocal coordinates:
            Coordinates               Weight
  0.000000  0.000000  0.000000      1.000000
  0.076923 -0.000000  0.000000      8.000000
  0.153846  0.000000  0.000000      8.000000
  0.230769  0.000000  0.000000      8.000000
  0.307692  0.000000  0.000000      8.000000
  0.384615 -0.000000  0.000000      8.000000
  0.461538  0.000000  0.000000      8.000000
  0.076923  0.076923  0.000000      6.000000
  0.153846  0.076923  0.000000     24.000000
  0.230769  0.076923  0.000000     24.000000
  0.307692  0.076923  0.000000     24.000000
  0.384615  0.076923 -0.000000     24.000000
  0.461538  0.076923  0.000000     24.000000
 -0.461538  0.076923  0.000000     24.000000
 -0.384615  0.076923 -0.000000     24.000000
 -0.307692  0.076923 -0.000000     24.000000
 -0.230769  0.076923  0.000000     24.000000
 -0.153846  0.076923 -0.000000     24.000000
 -0.076923  0.076923 -0.000000     12.000000
  0.153846  0.153846  0.000000      6.000000
  0.230769  0.153846  0.000000     24.000000
  0.307692  0.153846  0.000000     24.000000
  0.384615  0.153846  0.000000     24.000000
  0.461538  0.153846  0.000000     24.000000
 -0.461538  0.153846 -0.000000     24.000000
 -0.384615  0.153846  0.000000     24.000000
 -0.307692  0.153846  0.000000     24.000000
 -0.230769  0.153846 -0.000000     24.000000
 -0.153846  0.153846  0.000000     12.000000
  0.230769  0.230769  0.000000      6.000000
  0.307692  0.230769  0.000000     24.000000
  0.384615  0.230769  0.000000     24.000000
  0.461538  0.230769  0.000000     24.000000
 -0.461538  0.230769  0.000000     24.000000
 -0.384615  0.230769 -0.000000     24.000000
 -0.307692  0.230769 -0.000000     24.000000
 -0.230769  0.230769  0.000000     12.000000
  0.307692  0.307692  0.000000      6.000000
  0.384615  0.307692  0.000000     24.000000
  0.461538  0.307692  0.000000     24.000000
 -0.461538  0.307692  0.000000     24.000000
 -0.384615  0.307692  0.000000     24.000000
 -0.307692  0.307692  0.000000     12.000000
  0.384615  0.384615  0.000000      6.000000
  0.461538  0.384615  0.000000     24.000000
 -0.461538  0.384615  0.000000     24.000000
 -0.384615  0.384615 -0.000000     12.000000
  0.461538  0.461538  0.000000      6.000000
 -0.461538  0.461538  0.000000     12.000000
  0.230769  0.153846  0.076923     24.000000
  0.307692  0.153846  0.076923     48.000000
  0.384615  0.153846  0.076923     48.000000
  0.461538  0.153846  0.076923     48.000000
 -0.461538  0.153846  0.076923     48.000000
  0.307692  0.230769  0.076923     24.000000
  0.384615  0.230769  0.076923     48.000000
  0.461538  0.230769  0.076923     48.000000
 -0.461538  0.230769  0.076923     48.000000
 -0.384615  0.230769  0.076923     48.000000
 -0.307692  0.230769  0.076923     48.000000
 -0.230769  0.230769  0.076923     48.000000
 -0.153846  0.230769  0.076923     24.000000
  0.384615  0.307692  0.076923     24.000000
  0.461538  0.307692  0.076923     48.000000
 -0.461538  0.307692  0.076923     48.000000
 -0.384615  0.307692  0.076923     48.000000
 -0.307692  0.307692  0.076923     48.000000
 -0.230769  0.307692  0.076923     24.000000
  0.461538  0.384615  0.076923     24.000000
 -0.461538  0.384615  0.076923     48.000000
 -0.384615  0.384615  0.076923     48.000000
 -0.307692  0.384615  0.076923     24.000000
 -0.461538  0.461538  0.076923     24.000000
 -0.384615  0.461538  0.076923     24.000000
  0.461538  0.307692  0.153846     24.000000
 -0.461538  0.307692  0.153846     48.000000
 -0.384615  0.307692  0.153846     48.000000
 -0.461538  0.384615  0.153846     24.000000
 -0.384615  0.384615  0.153846     48.000000
 -0.307692  0.384615  0.153846     48.000000
 -0.230769  0.384615  0.153846     24.000000
 -0.384615  0.461538  0.153846     24.000000
 -0.307692  0.461538  0.153846     24.000000
 -0.307692  0.461538  0.230769     24.000000

 Following cartesian coordinates:
            Coordinates               Weight
  0.000000  0.000000  0.000000      1.000000
 -0.012101  0.012101  0.012101      8.000000
 -0.024203  0.024203  0.024203      8.000000
 -0.036304  0.036304  0.036304      8.000000
 -0.048405  0.048405  0.048405      8.000000
 -0.060507  0.060507  0.060507      8.000000
 -0.072608  0.072608  0.072608      8.000000
  0.000000 -0.000000  0.024203      6.000000
 -0.012101  0.012101  0.036304     24.000000
 -0.024203  0.024203  0.048405     24.000000
 -0.036304  0.036304  0.060507     24.000000
 -0.048405  0.048405  0.072608     24.000000
 -0.060507  0.060507  0.084709     24.000000
  0.084709 -0.084709 -0.060507     24.000000
  0.072608 -0.072608 -0.048405     24.000000
  0.060507 -0.060507 -0.036304     24.000000
  0.048405 -0.048405 -0.024203     24.000000
  0.036304 -0.036304 -0.012101     24.000000
  0.024203 -0.024203  0.000000     12.000000
 -0.000000  0.000000  0.048405      6.000000
 -0.012101  0.012101  0.060507     24.000000
 -0.024203  0.024203  0.072608     24.000000
 -0.036304  0.036304  0.084709     24.000000
 -0.048405  0.048405  0.096811     24.000000
  0.096811 -0.096811 -0.048405     24.000000
  0.084709 -0.084709 -0.036304     24.000000
  0.072608 -0.072608 -0.024203     24.000000
  0.060507 -0.060507 -0.012101     24.000000
  0.048405 -0.048405 -0.000000     12.000000
  0.000000  0.000000  0.072608      6.000000
 -0.012101  0.012101  0.084709     24.000000
 -0.024203  0.024203  0.096811     24.000000
 -0.036304  0.036304  0.108912     24.000000
  0.108912 -0.108912 -0.036304     24.000000
  0.096811 -0.096811 -0.024203     24.000000
  0.084709 -0.084709 -0.012101     24.000000
  0.072608 -0.072608 -0.000000     12.000000
 -0.000000  0.000000  0.096811      6.000000
 -0.012101  0.012101  0.108912     24.000000
 -0.024203  0.024203  0.121014     24.000000
  0.121014 -0.121014 -0.024203     24.000000
  0.108912 -0.108912 -0.012101     24.000000
  0.096811 -0.096811 -0.000000     12.000000
  0.000000  0.000000  0.121014      6.000000
 -0.012101  0.012101  0.133115     24.000000
  0.133115 -0.133115 -0.012101     24.000000
  0.121014 -0.121014  0.000000     12.000000
  0.000000  0.000000  0.145216      6.000000
  0.145216 -0.145216 -0.000000     12.000000
 -0.000000  0.024203  0.048405     24.000000
 -0.012101  0.036304  0.060507     48.000000
 -0.024203  0.048405  0.072608     48.000000
 -0.036304  0.060507  0.084709     48.000000
  0.108912 -0.084709 -0.060507     48.000000
  0.000000  0.024203  0.072608     24.000000
 -0.012101  0.036304  0.084709     48.000000
 -0.024203  0.048405  0.096811     48.000000
  0.121014 -0.096811 -0.048405     48.000000
  0.108912 -0.084709 -0.036304     48.000000
  0.096811 -0.072608 -0.024203     48.000000
  0.084709 -0.060507 -0.012101     48.000000
  0.072608 -0.048405  0.000000     24.000000
 -0.000000  0.024203  0.096811     24.000000
 -0.012101  0.036304  0.108912     48.000000
  0.133115 -0.108912 -0.036304     48.000000
  0.121014 -0.096811 -0.024203     48.000000
  0.108912 -0.084709 -0.012101     48.000000
  0.096811 -0.072608 -0.000000     24.000000
  0.000000  0.024203  0.121014     24.000000
  0.145216 -0.121014 -0.024203     48.000000
  0.133115 -0.108912 -0.012101     48.000000
  0.121014 -0.096811  0.000000     24.000000
  0.157318 -0.133115 -0.012101     24.000000
  0.145216 -0.121014 -0.000000     24.000000
  0.000000  0.048405  0.096811     24.000000
  0.145216 -0.096811 -0.048405     48.000000
  0.133115 -0.084709 -0.036304     48.000000
  0.157318 -0.108912 -0.036304     24.000000
  0.145216 -0.096811 -0.024203     48.000000
  0.133115 -0.084709 -0.012101     48.000000
  0.121014 -0.072608 -0.000000     24.000000
  0.157318 -0.108912 -0.012101     24.000000
  0.145216 -0.096811  0.000000     24.000000
  0.157318 -0.084709 -0.012101     24.000000



--------------------------------------------------------------------------------------------------------




 Dimension of arrays:
   k-points           NKPTS =     84   k-points in BZ     NKDIM =     84   number of bands    NBANDS=     16
   number of dos      NEDOS =    301   number of ions     NIONS =      3
   non local maximal  LDIM  =      6   non local SUM 2l+1 LMDIM =     18
   total plane-waves  NPLWV =  64000
   max r-space proj   IRMAX =      1   max aug-charges    IRDMAX= 575071
   dimension x,y,z NGX =    40 NGY =   40 NGZ =   40
   dimension x,y,z NGXF=    80 NGYF=   80 NGZF=   80
   support grid    NGXF=   160 NGYF=  160 NGZF=  160
   ions per type =               1   1   1
   NGX,Y,Z   is equivalent  to a cutoff of  15.68, 15.68, 15.68 a.u.
   NGXF,Y,Z  is equivalent  to a cutoff of  31.36, 31.36, 31.36 a.u.

 SYSTEM =  unknown system
 POSCAR =  Hf1 Sb1 Pt1

 Startparameter for this run:
   NWRITE =      2    write-flag & timer
   PREC   = acc       normal or accurate (medium, high low for compatibility)
   ISTART =      0    job   : 0-new  1-cont  2-samecut
   ICHARG =      2    charge: 1-file 2-atom 10-const
   ISPIN  =      1    spin polarized calculation?
   LNONCOLLINEAR =      F non collinear calculations
   LSORBIT =      F    spin-orbit coupling
   INIWAV =      1    electr: 0-lowe 1-rand  2-diag
   LASPH  =      F    aspherical Exc in radial PAW
   METAGGA=      F    non-selfconsistent MetaGGA calc.

 Electronic Relaxation 1
   ENCUT  =  700.0 eV  51.45 Ry    7.17 a.u.   9.15  9.15  9.15*2*pi/ulx,y,z
   ENINI  =  700.0     initial cutoff
   ENAUG  =  380.9 eV  augmentation charge cutoff
   NELM   =     60;   NELMIN=  5; NELMDL= -5     # of ELM steps
   EDIFF  = 0.1E-06   stopping-criterion for ELM
   LREAL  =      F    real-space projection
   NLSPLINE    = F    spline interpolate recip. space projectors
   LCOMPAT=      F    compatible to vasp.4.4
   GGA_COMPAT  = T    GGA compatible to vasp.4.4-vasp.4.6
   LMAXPAW     = -100 max onsite density
   LMAXMIX     =    2 max onsite mixed and CHGCAR
   VOSKOWN=      0    Vosko Wilk Nusair interpolation
   ROPT   =    0.00000   0.00000   0.00000
 Ionic relaxation
   EDIFFG = 0.1E-05   stopping-criterion for IOM
   NSW    =      0    number of steps for IOM
   NBLOCK =      1;   KBLOCK =      1    inner block; outer block
   IBRION =     -1    ionic relax: 0-MD 1-quasi-New 2-CG
   NFREE  =      0    steps in history (QN), initial steepest desc. (CG)
   ISIF   =      3    stress and relaxation
   IWAVPR =     10    prediction:  0-non 1-charg 2-wave 3-comb
   ISYM   =      2    0-nonsym 1-usesym 2-fastsym
   LCORR  =      T    Harris-Foulkes like correction to forces

   POTIM  = 0.5000    time-step for ionic-motion
   TEIN   =    0.0    initial temperature
   TEBEG  =    0.0;   TEEND  =   0.0 temperature during run
   SMASS  =  -3.00    Nose mass-parameter (am)
   estimated Nose-frequenzy (Omega)   =  0.10E-29 period in steps = 0.13E+47 mass=  -0.411E-27a.u.
   SCALEE = 1.0000    scale energy and forces
   NPACO  =    256;   APACO  = 16.0  distance and # of slots for P.C.
   PSTRESS=    0.0 pullay stress

  Mass of Ions in am
   POMASS = 178.49121.75195.08
  Ionic Valenz
   ZVAL   =  10.00  5.00 10.00
  Atomic Wigner-Seitz radii
   RWIGS  =  -1.00 -1.00 -1.00
  virtual crystal weights
   VCA    =   1.00  1.00  1.00
   NELECT =      25.0000    total number of electrons
   NUPDOWN=      -1.0000    fix difference up-down

 DOS related values:
   EMIN   =  10.00;   EMAX   =-10.00  energy-range for DOS
   EFERMI =   0.00
   ISMEAR =     0;   SIGMA  =   0.01  broadening in eV -4-tet -1-fermi 0-gaus

 Electronic relaxation 2 (details)
   IALGO  =     38    algorithm
   LDIAG  =      T    sub-space diagonalisation (order eigenvalues)
   LSUBROT=      F    optimize rotation matrix (better conditioning)
   TURBO    =      0    0=normal 1=particle mesh
   IRESTART =      0    0=no restart 2=restart with 2 vectors
   NREBOOT  =      0    no. of reboots
   NMIN     =      0    reboot dimension
   EREF     =   0.00    reference energy to select bands
   IMIX   =      4    mixing-type and parameters
     AMIX     =   0.40;   BMIX     =  1.00
     AMIX_MAG =   1.60;   BMIX_MAG =  1.00
     AMIN     =   0.10
     WC   =   100.;   INIMIX=   1;  MIXPRE=   1;  MAXMIX= -45

 Intra band minimization:
   WEIMIN = 0.0000     energy-eigenvalue tresh-hold
   EBREAK =  0.16E-08  absolut break condition
   DEPER  =   0.30     relativ break condition

   TIME   =   0.40     timestep for ELM

  volume/ion in A,a.u.               =      17.98       121.33
  Fermi-wavevector in a.u.,A,eV,Ry     =   1.266949  2.394186 21.839515  1.605159
  Thomas-Fermi vector in A             =   2.400123

 Write flags
   LWAVE        =      F    write WAVECAR
   LDOWNSAMPLE  =      F    k-point downsampling of WAVECAR
   LCHARG       =      F    write CHGCAR
   LVTOT        =      F    write LOCPOT, total local potential
   LVHAR        =      F    write LOCPOT, Hartree potential only
   LELF         =      F    write electronic localiz. function (ELF)
   LORBIT       =      0    0 simple, 1 ext, 2 COOP (PROOUT), +10 PAW based schemes


 Dipole corrections
   LMONO  =      F    monopole corrections only (constant potential shift)
   LDIPOL =      F    correct potential (dipole corrections)
   IDIPOL =      0    1-x, 2-y, 3-z, 4-all directions
   EPSILON=  1.0000000 bulk dielectric constant

 Exchange correlation treatment:
   GGA     =    PS    GGA type
   LEXCH   =    14    internal setting for exchange type
   VOSKOWN=      0    Vosko Wilk Nusair interpolation
   LHFCALC =     F    Hartree Fock is set to
   LHFONE  =     F    Hartree Fock one center treatment
   AEXX    =    0.0000 exact exchange contribution

 Linear response parameters
   LEPSILON=     F    determine dielectric tensor
   LRPA    =     F    only Hartree local field effects (RPA)
   LNABLA  =     F    use nabla operator in PAW spheres
   LVEL    =     F    velocity operator in full k-point grid
   LINTERFAST=   F  fast interpolation
   KINTER  =     0    interpolate to denser k-point grid
   CSHIFT  =0.1000    complex shift for real part using Kramers Kronig
   OMEGAMAX=  -1.0    maximum frequency
   DEG_THRESHOLD= 0.2000000E-02 threshold for treating states as degnerate
   RTIME   =   -0.100 relaxation time in fs
  (WPLASMAI=    0.000 imaginary part of plasma frequency in eV, 0.658/RTIME)
   DFIELD  = 0.0000000 0.0000000 0.0000000 field for delta impulse in time

 Orbital magnetization related:
   ORBITALMAG=     F  switch on orbital magnetization
   LCHIMAG   =     F  perturbation theory with respect to B field
   DQ        =  0.001000  dq finite difference perturbation B field
   LLRAUG    =     F  two centre corrections for induced B field



--------------------------------------------------------------------------------------------------------


 Static calculation
 charge density and potential will be updated during run
 non-spin polarized calculation
 Variant of blocked Davidson
 Davidson routine will perform the subspace rotation
 perform sub-space diagonalisation
    after iterative eigenvector-optimisation
 modified Broyden-mixing scheme, WC =      100.0
 initial mixing is a Kerker type mixing with AMIX =  0.4000 and BMIX =      1.0000
 Hartree-type preconditioning will be used
 using additional bands            3
 reciprocal scheme for non local part
 use partial core corrections
 calculate Harris-corrections to forces
   (improved forces if not selfconsistent)
 use gradient corrections
 use of overlap-Matrix (Vanderbilt PP)
 Gauss-broadening in eV      SIGMA  =   0.01


--------------------------------------------------------------------------------------------------------


  energy-cutoff  :      700.00
  volume of cell :       53.94
      direct lattice vectors                 reciprocal lattice vectors
     0.000000000  2.998834259  2.998834259    -0.166731455  0.166731455  0.166731455
     2.998834259  0.000000000  2.998834259     0.166731455 -0.166731455  0.166731455
     2.998834259  2.998834259  0.000000000     0.166731455  0.166731455 -0.166731455

  length of vectors
     4.240992080  4.240992080  4.240992080     0.288787352  0.288787352  0.288787352



 k-points in units of 2pi/SCALE and weight: KPOINTS
   0.00000000  0.00000000  0.00000000       0.000
  -0.01210135  0.01210135  0.01210135       0.004
  -0.02420271  0.02420271  0.02420271       0.004
  -0.03630406  0.03630406  0.03630406       0.004
  -0.04840541  0.04840541  0.04840541       0.004
  -0.06050677  0.06050677  0.06050677       0.004
  -0.07260812  0.07260812  0.07260812       0.004
   0.00000000 -0.00000000  0.02420271       0.003
  -0.01210135  0.01210135  0.03630406       0.011
  -0.02420271  0.02420271  0.04840541       0.011
  -0.03630406  0.03630406  0.06050677       0.011
  -0.04840541  0.04840541  0.07260812       0.011
  -0.06050677  0.06050677  0.08470948       0.011
   0.08470948 -0.08470948 -0.06050677       0.011
   0.07260812 -0.07260812 -0.04840541       0.011
   0.06050677 -0.06050677 -0.03630406       0.011
   0.04840541 -0.04840541 -0.02420271       0.011
   0.03630406 -0.03630406 -0.01210135       0.011
   0.02420271 -0.02420271  0.00000000       0.005
  -0.00000000  0.00000000  0.04840541       0.003
  -0.01210135  0.01210135  0.06050677       0.011
  -0.02420271  0.02420271  0.07260812       0.011
  -0.03630406  0.03630406  0.08470948       0.011
  -0.04840541  0.04840541  0.09681083       0.011
   0.09681083 -0.09681083 -0.04840541       0.011
   0.08470948 -0.08470948 -0.03630406       0.011
   0.07260812 -0.07260812 -0.02420271       0.011
   0.06050677 -0.06050677 -0.01210135       0.011
   0.04840541 -0.04840541 -0.00000000       0.005
   0.00000000  0.00000000  0.07260812       0.003
  -0.01210135  0.01210135  0.08470948       0.011
  -0.02420271  0.02420271  0.09681083       0.011
  -0.03630406  0.03630406  0.10891218       0.011
   0.10891218 -0.10891218 -0.03630406       0.011
   0.09681083 -0.09681083 -0.02420271       0.011
   0.08470948 -0.08470948 -0.01210135       0.011
   0.07260812 -0.07260812 -0.00000000       0.005
  -0.00000000  0.00000000  0.09681083       0.003
  -0.01210135  0.01210135  0.10891218       0.011
  -0.02420271  0.02420271  0.12101354       0.011
   0.12101354 -0.12101354 -0.02420271       0.011
   0.10891218 -0.10891218 -0.01210135       0.011
   0.09681083 -0.09681083 -0.00000000       0.005
   0.00000000  0.00000000  0.12101354       0.003
  -0.01210135  0.01210135  0.13311489       0.011
   0.13311489 -0.13311489 -0.01210135       0.011
   0.12101354 -0.12101354  0.00000000       0.005
   0.00000000  0.00000000  0.14521624       0.003
   0.14521624 -0.14521624 -0.00000000       0.005
  -0.00000000  0.02420271  0.04840541       0.011
  -0.01210135  0.03630406  0.06050677       0.022
  -0.02420271  0.04840541  0.07260812       0.022
  -0.03630406  0.06050677  0.08470948       0.022
   0.10891218 -0.08470948 -0.06050677       0.022
   0.00000000  0.02420271  0.07260812       0.011
  -0.01210135  0.03630406  0.08470948       0.022
  -0.02420271  0.04840541  0.09681083       0.022
   0.12101354 -0.09681083 -0.04840541       0.022
   0.10891218 -0.08470948 -0.03630406       0.022
   0.09681083 -0.07260812 -0.02420271       0.022
   0.08470948 -0.06050677 -0.01210135       0.022
   0.07260812 -0.04840541  0.00000000       0.011
  -0.00000000  0.02420271  0.09681083       0.011
  -0.01210135  0.03630406  0.10891218       0.022
   0.13311489 -0.10891218 -0.03630406       0.022
   0.12101354 -0.09681083 -0.02420271       0.022
   0.10891218 -0.08470948 -0.01210135       0.022
   0.09681083 -0.07260812 -0.00000000       0.011
   0.00000000  0.02420271  0.12101354       0.011
   0.14521624 -0.12101354 -0.02420271       0.022
   0.13311489 -0.10891218 -0.01210135       0.022
   0.12101354 -0.09681083  0.00000000       0.011
   0.15731760 -0.13311489 -0.01210135       0.011
   0.14521624 -0.12101354 -0.00000000       0.011
   0.00000000  0.04840541  0.09681083       0.011
   0.14521624 -0.09681083 -0.04840541       0.022
   0.13311489 -0.08470948 -0.03630406       0.022
   0.15731760 -0.10891218 -0.03630406       0.011
   0.14521624 -0.09681083 -0.02420271       0.022
   0.13311489 -0.08470948 -0.01210135       0.022
   0.12101354 -0.07260812 -0.00000000       0.011
   0.15731760 -0.10891218 -0.01210135       0.011
   0.14521624 -0.09681083  0.00000000       0.011
   0.15731760 -0.08470948 -0.01210135       0.011

 k-points in reciprocal lattice and weights: KPOINTS
   0.00000000  0.00000000  0.00000000       0.000
   0.07692308 -0.00000000  0.00000000       0.004
   0.15384615  0.00000000  0.00000000       0.004
   0.23076923  0.00000000  0.00000000       0.004
   0.30769231  0.00000000  0.00000000       0.004
   0.38461538 -0.00000000  0.00000000       0.004
   0.46153846  0.00000000  0.00000000       0.004
   0.07692308  0.07692308  0.00000000       0.003
   0.15384615  0.07692308  0.00000000       0.011
   0.23076923  0.07692308  0.00000000       0.011
   0.30769231  0.07692308  0.00000000       0.011
   0.38461538  0.07692308 -0.00000000       0.011
   0.46153846  0.07692308  0.00000000       0.011
  -0.46153846  0.07692308  0.00000000       0.011
  -0.38461538  0.07692308 -0.00000000       0.011
  -0.30769231  0.07692308 -0.00000000       0.011
  -0.23076923  0.07692308  0.00000000       0.011
  -0.15384615  0.07692308 -0.00000000       0.011
  -0.07692308  0.07692308 -0.00000000       0.005
   0.15384615  0.15384615  0.00000000       0.003
   0.23076923  0.15384615  0.00000000       0.011
   0.30769231  0.15384615  0.00000000       0.011
   0.38461538  0.15384615  0.00000000       0.011
   0.46153846  0.15384615  0.00000000       0.011
  -0.46153846  0.15384615 -0.00000000       0.011
  -0.38461538  0.15384615  0.00000000       0.011
  -0.30769231  0.15384615  0.00000000       0.011
  -0.23076923  0.15384615 -0.00000000       0.011
  -0.15384615  0.15384615  0.00000000       0.005
   0.23076923  0.23076923  0.00000000       0.003
   0.30769231  0.23076923  0.00000000       0.011
   0.38461538  0.23076923  0.00000000       0.011
   0.46153846  0.23076923  0.00000000       0.011
  -0.46153846  0.23076923  0.00000000       0.011
  -0.38461538  0.23076923 -0.00000000       0.011
  -0.30769231  0.23076923 -0.00000000       0.011
  -0.23076923  0.23076923  0.00000000       0.005
   0.30769231  0.30769231  0.00000000       0.003
   0.38461538  0.30769231  0.00000000       0.011
   0.46153846  0.30769231  0.00000000       0.011
  -0.46153846  0.30769231  0.00000000       0.011
  -0.38461538  0.30769231  0.00000000       0.011
  -0.30769231  0.30769231  0.00000000       0.005
   0.38461538  0.38461538  0.00000000       0.003
   0.46153846  0.38461538  0.00000000       0.011
  -0.46153846  0.38461538  0.00000000       0.011
  -0.38461538  0.38461538 -0.00000000       0.005
   0.46153846  0.46153846  0.00000000       0.003
  -0.46153846  0.46153846  0.00000000       0.005
   0.23076923  0.15384615  0.07692308       0.011
   0.30769231  0.15384615  0.07692308       0.022
   0.38461538  0.15384615  0.07692308       0.022
   0.46153846  0.15384615  0.07692308       0.022
  -0.46153846  0.15384615  0.07692308       0.022
   0.30769231  0.23076923  0.07692308       0.011
   0.38461538  0.23076923  0.07692308       0.022
   0.46153846  0.23076923  0.07692308       0.022
  -0.46153846  0.23076923  0.07692308       0.022
  -0.38461538  0.23076923  0.07692308       0.022
  -0.30769231  0.23076923  0.07692308       0.022
  -0.23076923  0.23076923  0.07692308       0.022
  -0.15384615  0.23076923  0.07692308       0.011
   0.38461538  0.30769231  0.07692308       0.011
   0.46153846  0.30769231  0.07692308       0.022
  -0.46153846  0.30769231  0.07692308       0.022
  -0.38461538  0.30769231  0.07692308       0.022
  -0.30769231  0.30769231  0.07692308       0.022
  -0.23076923  0.30769231  0.07692308       0.011
   0.46153846  0.38461538  0.07692308       0.011
  -0.46153846  0.38461538  0.07692308       0.022
  -0.38461538  0.38461538  0.07692308       0.022
  -0.30769231  0.38461538  0.07692308       0.011
  -0.46153846  0.46153846  0.07692308       0.011
  -0.38461538  0.46153846  0.07692308       0.011
   0.46153846  0.30769231  0.15384615       0.011
  -0.46153846  0.30769231  0.15384615       0.022
  -0.38461538  0.30769231  0.15384615       0.022
  -0.46153846  0.38461538  0.15384615       0.011
  -0.38461538  0.38461538  0.15384615       0.022
  -0.30769231  0.38461538  0.15384615       0.022
  -0.23076923  0.38461538  0.15384615       0.011
  -0.38461538  0.46153846  0.15384615       0.011
  -0.30769231  0.46153846  0.15384615       0.011
  -0.30769231  0.46153846  0.23076923       0.011

 position of ions in fractional coordinates (direct lattice)
   0.75000000  0.75000000  0.75000000
   0.25000000  0.25000000  0.25000000
   0.00000000  0.00000000  0.00000000

 position of ions in cartesian coordinates  (Angst):
   4.49825139  4.49825139  4.49825139
   1.49941713  1.49941713  1.49941713
   0.00000000  0.00000000  0.00000000



--------------------------------------------------------------------------------------------------------


 k-point  1 :   0.0000 0.0000 0.0000  plane waves:    2229
 k-point  2 :   0.0769-0.0000 0.0000  plane waves:    2247
 k-point  3 :   0.1538 0.0000 0.0000  plane waves:    2253
 k-point  4 :   0.2308 0.0000 0.0000  plane waves:    2250
 k-point  5 :   0.3077 0.0000 0.0000  plane waves:    2253
 k-point  6 :   0.3846-0.0000 0.0000  plane waves:    2259
 k-point  7 :   0.4615 0.0000 0.0000  plane waves:    2271
 k-point  8 :   0.0769 0.0769 0.0000  plane waves:    2241
 k-point  9 :   0.1538 0.0769 0.0000  plane waves:    2249
 k-point 10 :   0.2308 0.0769 0.0000  plane waves:    2252
 k-point 11 :   0.3077 0.0769 0.0000  plane waves:    2256
 k-point 12 :   0.3846 0.0769-0.0000  plane waves:    2262
 k-point 13 :   0.4615 0.0769 0.0000  plane waves:    2280
 k-point 14 :  -0.4615 0.0769 0.0000  plane waves:    2275
 k-point 15 :  -0.3846 0.0769-0.0000  plane waves:    2267
 k-point 16 :  -0.3077 0.0769-0.0000  plane waves:    2267
 k-point 17 :  -0.2308 0.0769 0.0000  plane waves:    2256
 k-point 18 :  -0.1538 0.0769-0.0000  plane waves:    2251
 k-point 19 :  -0.0769 0.0769-0.0000  plane waves:    2261
 k-point 20 :   0.1538 0.1538 0.0000  plane waves:    2249
 k-point 21 :   0.2308 0.1538 0.0000  plane waves:    2254
 k-point 22 :   0.3077 0.1538 0.0000  plane waves:    2263
 k-point 23 :   0.3846 0.1538 0.0000  plane waves:    2269
 k-point 24 :   0.4615 0.1538 0.0000  plane waves:    2273
 k-point 25 :  -0.4615 0.1538-0.0000  plane waves:    2273
 k-point 26 :  -0.3846 0.1538 0.0000  plane waves:    2267
 k-point 27 :  -0.3077 0.1538 0.0000  plane waves:    2264
 k-point 28 :  -0.2308 0.1538-0.0000  plane waves:    2266
 k-point 29 :  -0.1538 0.1538 0.0000  plane waves:    2247
 k-point 30 :   0.2308 0.2308 0.0000  plane waves:    2269
 k-point 31 :   0.3077 0.2308 0.0000  plane waves:    2266
 k-point 32 :   0.3846 0.2308 0.0000  plane waves:    2279
 k-point 33 :   0.4615 0.2308 0.0000  plane waves:    2284
 k-point 34 :  -0.4615 0.2308 0.0000  plane waves:    2274
 k-point 35 :  -0.3846 0.2308-0.0000  plane waves:    2275
 k-point 36 :  -0.3077 0.2308-0.0000  plane waves:    2280
 k-point 37 :  -0.2308 0.2308 0.0000  plane waves:    2269
 k-point 38 :   0.3077 0.3077 0.0000  plane waves:    2273
 k-point 39 :   0.3846 0.3077 0.0000  plane waves:    2274
 k-point 40 :   0.4615 0.3077 0.0000  plane waves:    2270
 k-point 41 :  -0.4615 0.3077 0.0000  plane waves:    2276
 k-point 42 :  -0.3846 0.3077 0.0000  plane waves:    2281
 k-point 43 :  -0.3077 0.3077 0.0000  plane waves:    2281
 k-point 44 :   0.3846 0.3846 0.0000  plane waves:    2269
 k-point 45 :   0.4615 0.3846 0.0000  plane waves:    2273
 k-point 46 :  -0.4615 0.3846 0.0000  plane waves:    2271
 k-point 47 :  -0.3846 0.3846-0.0000  plane waves:    2269
 k-point 48 :   0.4615 0.4615 0.0000  plane waves:    2273
 k-point 49 :  -0.4615 0.4615 0.0000  plane waves:    2268
 k-point 50 :   0.2308 0.1538 0.0769  plane waves:    2263
 k-point 51 :   0.3077 0.1538 0.0769  plane waves:    2257
 k-point 52 :   0.3846 0.1538 0.0769  plane waves:    2260
 k-point 53 :   0.4615 0.1538 0.0769  plane waves:    2270
 k-point 54 :  -0.4615 0.1538 0.0769  plane waves:    2276
 k-point 55 :   0.3077 0.2308 0.0769  plane waves:    2265
 k-point 56 :   0.3846 0.2308 0.0769  plane waves:    2273
 k-point 57 :   0.4615 0.2308 0.0769  plane waves:    2270
 k-point 58 :  -0.4615 0.2308 0.0769  plane waves:    2271
 k-point 59 :  -0.3846 0.2308 0.0769  plane waves:    2268
 k-point 60 :  -0.3077 0.2308 0.0769  plane waves:    2275
 k-point 61 :  -0.2308 0.2308 0.0769  plane waves:    2271
 k-point 62 :  -0.1538 0.2308 0.0769  plane waves:    2269
 k-point 63 :   0.3846 0.3077 0.0769  plane waves:    2267
 k-point 64 :   0.4615 0.3077 0.0769  plane waves:    2272
 k-point 65 :  -0.4615 0.3077 0.0769  plane waves:    2272
 k-point 66 :  -0.3846 0.3077 0.0769  plane waves:    2265
 k-point 67 :  -0.3077 0.3077 0.0769  plane waves:    2272
 k-point 68 :  -0.2308 0.3077 0.0769  plane waves:    2271
 k-point 69 :   0.4615 0.3846 0.0769  plane waves:    2277
 k-point 70 :  -0.4615 0.3846 0.0769  plane waves:    2267
 k-point 71 :  -0.3846 0.3846 0.0769  plane waves:    2274
 k-point 72 :  -0.3077 0.3846 0.0769  plane waves:    2279
 k-point 73 :  -0.4615 0.4615 0.0769  plane waves:    2267
 k-point 74 :  -0.3846 0.4615 0.0769  plane waves:    2264
 k-point 75 :   0.4615 0.3077 0.1538  plane waves:    2268
 k-point 76 :  -0.4615 0.3077 0.1538  plane waves:    2267
 k-point 77 :  -0.3846 0.3077 0.1538  plane waves:    2265
 k-point 78 :  -0.4615 0.3846 0.1538  plane waves:    2266
 k-point 79 :  -0.3846 0.3846 0.1538  plane waves:    2261
 k-point 80 :  -0.3077 0.3846 0.1538  plane waves:    2263
 k-point 81 :  -0.2308 0.3846 0.1538  plane waves:    2271
 k-point 82 :  -0.3846 0.4615 0.1538  plane waves:    2261
 k-point 83 :  -0.3077 0.4615 0.1538  plane waves:    2267
 k-point 84 :  -0.3077 0.4615 0.2308  plane waves:    2255

 maximum and minimum number of plane-waves per node :       582      540

 maximum number of plane-waves:      2284
 maximum index in each direction:
   IXMAX=    9   IYMAX=    9   IZMAX=    9
   IXMIN=   -9   IYMIN=   -9   IZMIN=   -9


 parallel 3D FFT for wavefunctions:
    minimum data exchange during FFTs selected (reduces bandwidth)
 parallel 3D FFT for charge:
    minimum data exchange during FFTs selected (reduces bandwidth)


 total amount of memory used by VASP MPI-rank0    62082. kBytes
=======================================================================

   base      :      30000. kBytes
   nonl-proj :      20929. kBytes
   fftplans  :       5202. kBytes
   grid      :       2732. kBytes
   one-center:         15. kBytes
   wavefun   :       3204. kBytes

     INWAV:  cpu time    0.0003: real time    0.0017
 Broyden mixing: mesh for mixing (old mesh)
   NGX = 19   NGY = 19   NGZ = 19
  (NGX  = 80   NGY  = 80   NGZ  = 80)
  gives a total of   6859 points

 initial charge density was supplied:
 charge density of overlapping atoms calculated
 number of electron      25.0000000 magnetization
 keeping initial charge density in first step


--------------------------------------------------------------------------------------------------------


 Maximum index for augmentation-charges        35235 (set IRDMAX)


--------------------------------------------------------------------------------------------------------


 First call to EWALD:  gamma=   0.469
 Maximum number of real-space cells 3x 3x 3
 Maximum number of reciprocal cells 3x 3x 3

    FEWALD:  cpu time    0.0056: real time    0.0063


--------------------------------------- Iteration      1(   1)  ---------------------------------------


    POTLOK:  cpu time    0.0476: real time    0.1517
    SETDIJ:  cpu time    0.0931: real time    0.0934
     EDDAV:  cpu time    0.8896: real time    0.9139
       DOS:  cpu time    0.0030: real time    0.0040
    --------------------------------------------
      LOOP:  cpu time    1.0336: real time    1.1641

 eigenvalue-minimisations  :  2696
 total energy-change (2. order) : 0.1478193E+03  (-0.1460351E+04)
 number of electron      25.0000000 magnetization
 augmentation part       25.0000000 magnetization

 Free energy of the ion-electron system (eV)
  ---------------------------------------------------
  alpha Z        PSCENC =       126.30928903
  Ewald energy   TEWEN  =     -1657.99745343
  -Hartree energ DENC   =      -292.49239990
  -exchange      EXHF   =         0.00000000
  -V(xc)+E(xc)   XCENC  =       -17.40360532
  PAW double counting   =      1514.36848356    -1421.27055995
  entropy T*S    EENTRO =        -0.00009596
  eigenvalues    EBANDS =       155.20109556
  atomic energy  EATOM  =      1741.10451121
  Solvation  Ediel_sol  =         0.00000000
  ---------------------------------------------------
  free energy    TOTEN  =       147.81926478 eV

  energy without entropy =      147.81936074  energy(sigma->0) =      147.81931276


--------------------------------------------------------------------------------------------------------




--------------------------------------- Iteration      1(   2)  ---------------------------------------


     EDDAV:  cpu time    1.0656: real time    1.0985
       DOS:  cpu time    0.0025: real time    0.0030
    --------------------------------------------
      LOOP:  cpu time    1.0682: real time    1.1037

 eigenvalue-minimisations  :  3432
 total energy-change (2. order) :-0.1673086E+03  (-0.1658786E+03)
 number of electron      25.0000000 magnetization
 augmentation part       25.0000000 magnetization

 Free energy of the ion-electron system (eV)
  ---------------------------------------------------
  alpha Z        PSCENC =       126.30928903
  Ewald energy   TEWEN  =     -1657.99745343
  -Hartree energ DENC   =      -292.49239990
  -exchange      EXHF   =         0.00000000
  -V(xc)+E(xc)   XCENC  =       -17.40360532
  PAW double counting   =      1514.36848356    -1421.27055995
  entropy T*S    EENTRO =        -0.00012150
  eigenvalues    EBANDS =       -12.10744411
  atomic energy  EATOM  =      1741.10451121
  Solvation  Ediel_sol  =         0.00000000
  ---------------------------------------------------
  free energy    TOTEN  =       -19.48930043 eV

  energy without entropy =      -19.48917892  energy(sigma->0) =      -19.48923968


--------------------------------------------------------------------------------------------------------




--------------------------------------- Iteration      1(   3)  ---------------------------------------


     EDDAV:  cpu time    1.1250: real time    1.1465
       DOS:  cpu time    0.0024: real time    0.0034
    --------------------------------------------
      LOOP:  cpu time    1.1273: real time    1.1491

 eigenvalue-minimisations  :  3504
 total energy-change (2. order) :-0.4247286E+01  (-0.4213197E+01)
 number of electron      25.0000000 magnetization
 augmentation part       25.0000000 magnetization

 Free energy of the ion-electron system (eV)
  ---------------------------------------------------
  alpha Z        PSCENC =       126.30928903
  Ewald energy   TEWEN  =     -1657.99745343
  -Hartree energ DENC   =      -292.49239990
  -exchange      EXHF   =         0.00000000
  -V(xc)+E(xc)   XCENC  =       -17.40360532
  PAW double counting   =      1514.36848356    -1421.27055995
  entropy T*S    EENTRO =        -0.00019316
  eigenvalues    EBANDS =       -16.35465891
  atomic energy  EATOM  =      1741.10451121
  Solvation  Ediel_sol  =         0.00000000
  ---------------------------------------------------
  free energy    TOTEN  =       -23.73658688 eV

  energy without entropy =      -23.73639373  energy(sigma->0) =      -23.73649030


--------------------------------------------------------------------------------------------------------




--------------------------------------- Iteration      1(   4)  ---------------------------------------


     EDDAV:  cpu time    1.0728: real time    1.0909
       DOS:  cpu time    0.0027: real time    0.0028
    --------------------------------------------
      LOOP:  cpu time    1.0755: real time    1.0940

 eigenvalue-minimisations  :  3360
 total energy-change (2. order) :-0.5892177E-01  (-0.5831717E-01)
 number of electron      25.0000000 magnetization
 augmentation part       25.0000000 magnetization

 Free energy of the ion-electron system (eV)
  ---------------------------------------------------
  alpha Z        PSCENC =       126.30928903
  Ewald energy   TEWEN  =     -1657.99745343
  -Hartree energ DENC   =      -292.49239990
  -exchange      EXHF   =         0.00000000
  -V(xc)+E(xc)   XCENC  =       -17.40360532
  PAW double counting   =      1514.36848356    -1421.27055995
  entropy T*S    EENTRO =        -0.00021496
  eigenvalues    EBANDS =       -16.41355888
  atomic energy  EATOM  =      1741.10451121
  Solvation  Ediel_sol  =         0.00000000
  ---------------------------------------------------
  free energy    TOTEN  =       -23.79550865 eV

  energy without entropy =      -23.79529369  energy(sigma->0) =      -23.79540117


--------------------------------------------------------------------------------------------------------




--------------------------------------- Iteration      1(   5)  ---------------------------------------


     EDDAV:  cpu time    1.1265: real time    1.1530
       DOS:  cpu time    0.0026: real time    0.0028
    CHARGE:  cpu time    0.2802: real time    0.2808
    MIXING:  cpu time    0.0065: real time    0.0069
    --------------------------------------------
      LOOP:  cpu time    1.4160: real time    1.4431

 eigenvalue-minimisations  :  3624
 total energy-change (2. order) :-0.1257124E-02  (-0.1256935E-02)
 number of electron      25.0000000 magnetization
 augmentation part        4.8217017 magnetization

 Broyden mixing:
  rms(total) = 0.56823E+01    rms(broyden)= 0.56823E+01
  rms(prec ) = 0.58139E+01
  weight for this iteration     100.00

 Free energy of the ion-electron system (eV)
  ---------------------------------------------------
  alpha Z        PSCENC =       126.30928903
  Ewald energy   TEWEN  =     -1657.99745343
  -Hartree energ DENC   =      -292.49239990
  -exchange      EXHF   =         0.00000000
  -V(xc)+E(xc)   XCENC  =       -17.40360532
  PAW double counting   =      1514.36848356    -1421.27055995
  entropy T*S    EENTRO =        -0.00021564
  eigenvalues    EBANDS =       -16.41481532
  atomic energy  EATOM  =      1741.10451121
  Solvation  Ediel_sol  =         0.00000000
  ---------------------------------------------------
  free energy    TOTEN  =       -23.79676578 eV

  energy without entropy =      -23.79655013  energy(sigma->0) =      -23.79665795


--------------------------------------------------------------------------------------------------------




--------------------------------------- Iteration      1(   6)  ---------------------------------------


    POTLOK:  cpu time    0.0369: real time    0.0693
    SETDIJ:  cpu time    0.0939: real time    0.0940
     EDDAV:  cpu time    1.0431: real time    1.0432
       DOS:  cpu time    0.0025: real time    0.0029
    CHARGE:  cpu time    0.2226: real time    0.2227
    MIXING:  cpu time    0.0050: real time    0.0051
    --------------------------------------------
      LOOP:  cpu time    1.4038: real time    1.4379

 eigenvalue-minimisations  :  3400
 total energy-change (2. order) : 0.5389927E+00  (-0.1110062E+00)
 number of electron      25.0000000 magnetization
 augmentation part        4.9846646 magnetization

 Broyden mixing:
  rms(total) = 0.33426E+01    rms(broyden)= 0.33426E+01
  rms(prec ) = 0.33825E+01
  weight for this iteration     100.00

 eigenvalues of (default mixing * dielectric matrix)
  average eigenvalue GAMMA=   2.4005
  2.4005

 Free energy of the ion-electron system (eV)
  ---------------------------------------------------
  alpha Z        PSCENC =       126.30928903
  Ewald energy   TEWEN  =     -1657.99745343
  -Hartree energ DENC   =      -280.40491634
  -exchange      EXHF   =         0.00000000
  -V(xc)+E(xc)   XCENC  =       -17.77311934
  PAW double counting   =      2224.68214613    -2134.54583151
  entropy T*S    EENTRO =        -0.00016014
  eigenvalues    EBANDS =       -24.63223867
  atomic energy  EATOM  =      1741.10451121
  Solvation  Ediel_sol  =         0.00000000
  ---------------------------------------------------
  free energy    TOTEN  =       -23.25777305 eV

  energy without entropy =      -23.25761291  energy(sigma->0) =      -23.25769298


--------------------------------------------------------------------------------------------------------




--------------------------------------- Iteration      1(   7)  ---------------------------------------


    POTLOK:  cpu time    0.0329: real time    0.0635
    SETDIJ:  cpu time    0.0811: real time    0.0812
     EDDAV:  cpu time    1.0979: real time    1.0981
       DOS:  cpu time    0.0027: real time    0.0031
    CHARGE:  cpu time    0.1744: real time    0.1745
    MIXING:  cpu time    0.0046: real time    0.0048
    --------------------------------------------
      LOOP:  cpu time    1.3937: real time    1.4239

 eigenvalue-minimisations  :  3624
 total energy-change (2. order) : 0.1410887E+00  (-0.6594286E-01)
 number of electron      25.0000000 magnetization
 augmentation part        4.9958030 magnetization

 Broyden mixing:
  rms(total) = 0.41282E+00    rms(broyden)= 0.41282E+00
  rms(prec ) = 0.51570E+00
  weight for this iteration     100.00

 eigenvalues of (default mixing * dielectric matrix)
  average eigenvalue GAMMA=   1.8226
  1.0631  2.5822

 Free energy of the ion-electron system (eV)
  ---------------------------------------------------
  alpha Z        PSCENC =       126.30928903
  Ewald energy   TEWEN  =     -1657.99745343
  -Hartree energ DENC   =      -273.93015565
  -exchange      EXHF   =         0.00000000
  -V(xc)+E(xc)   XCENC  =       -17.88114868
  PAW double counting   =      3432.54030046    -3346.06430507
  entropy T*S    EENTRO =        -0.00028037
  eigenvalues    EBANDS =       -27.19744186
  atomic energy  EATOM  =      1741.10451121
  Solvation  Ediel_sol  =         0.00000000
  ---------------------------------------------------
  free energy    TOTEN  =       -23.11668437 eV

  energy without entropy =      -23.11640400  energy(sigma->0) =      -23.11654418


--------------------------------------------------------------------------------------------------------




--------------------------------------- Iteration      1(   8)  ---------------------------------------


    POTLOK:  cpu time    0.0433: real time    0.0639
    SETDIJ:  cpu time    0.0858: real time    0.0859
     EDDAV:  cpu time    1.0332: real time    1.0334
       DOS:  cpu time    0.0026: real time    0.0028
    CHARGE:  cpu time    0.1838: real time    0.1842
    MIXING:  cpu time    0.0039: real time    0.0041
    --------------------------------------------
      LOOP:  cpu time    1.3523: real time    1.3746

 eigenvalue-minimisations  :  3328
 total energy-change (2. order) : 0.2775028E-01  (-0.2233391E-01)
 number of electron      25.0000000 magnetization
 augmentation part        5.0367735 magnetization

 Broyden mixing:
  rms(total) = 0.94119E-01    rms(broyden)= 0.94119E-01
  rms(prec ) = 0.13359E+00
  weight for this iteration     100.00

 eigenvalues of (default mixing * dielectric matrix)
  average eigenvalue GAMMA=   1.5976
  2.5575  1.5165  0.7188

 Free energy of the ion-electron system (eV)
  ---------------------------------------------------
  alpha Z        PSCENC =       126.30928903
  Ewald energy   TEWEN  =     -1657.99745343
  -Hartree energ DENC   =      -273.55490163
  -exchange      EXHF   =         0.00000000
  -V(xc)+E(xc)   XCENC  =       -17.86233862
  PAW double counting   =      3546.65173428    -3460.37650837
  entropy T*S    EENTRO =        -0.00015919
  eigenvalues    EBANDS =       -27.36310737
  atomic energy  EATOM  =      1741.10451121
  Solvation  Ediel_sol  =         0.00000000
  ---------------------------------------------------
  free energy    TOTEN  =       -23.08893409 eV

  energy without entropy =      -23.08877490  energy(sigma->0) =      -23.08885450


--------------------------------------------------------------------------------------------------------




--------------------------------------- Iteration      1(   9)  ---------------------------------------


    POTLOK:  cpu time    0.0418: real time    0.0631
    SETDIJ:  cpu time    0.0855: real time    0.0856
     EDDAV:  cpu time    1.0361: real time    1.0376
       DOS:  cpu time    0.0025: real time    0.0027
    CHARGE:  cpu time    0.1739: real time    0.1740
    MIXING:  cpu time    0.0047: real time    0.0049
    --------------------------------------------
      LOOP:  cpu time    1.3445: real time    1.3677

 eigenvalue-minimisations  :  3408
 total energy-change (2. order) : 0.2314992E-02  (-0.2397206E-02)
 number of electron      25.0000000 magnetization
 augmentation part        5.0196630 magnetization

 Broyden mixing:
  rms(total) = 0.56199E-01    rms(broyden)= 0.56199E-01
  rms(prec ) = 0.61248E-01
  weight for this iteration     100.00

 eigenvalues of (default mixing * dielectric matrix)
  average eigenvalue GAMMA=   1.4183
  2.4020  1.4081  1.1492  0.7139

 Free energy of the ion-electron system (eV)
  ---------------------------------------------------
  alpha Z        PSCENC =       126.30928903
  Ewald energy   TEWEN  =     -1657.99745343
  -Hartree energ DENC   =      -274.80182502
  -exchange      EXHF   =         0.00000000
  -V(xc)+E(xc)   XCENC  =       -17.81269975
  PAW double counting   =      3532.75695345    -3446.38754483
  entropy T*S    EENTRO =        -0.00016867
  eigenvalues    EBANDS =       -26.25768109
  atomic energy  EATOM  =      1741.10451121
  Solvation  Ediel_sol  =         0.00000000
  ---------------------------------------------------
  free energy    TOTEN  =       -23.08661910 eV

  energy without entropy =      -23.08645042  energy(sigma->0) =      -23.08653476


--------------------------------------------------------------------------------------------------------




--------------------------------------- Iteration      1(  10)  ---------------------------------------


    POTLOK:  cpu time    0.0385: real time    0.0576
    SETDIJ:  cpu time    0.0838: real time    0.0840
     EDDAV:  cpu time    1.0350: real time    1.0352
       DOS:  cpu time    0.0038: real time    0.0040
    CHARGE:  cpu time    0.1735: real time    0.1736
    MIXING:  cpu time    0.0054: real time    0.0056
    --------------------------------------------
      LOOP:  cpu time    1.3402: real time    1.3603

 eigenvalue-minimisations  :  3360
 total energy-change (2. order) : 0.1449190E-03  (-0.1324294E-03)
 number of electron      25.0000000 magnetization
 augmentation part        5.0179299 magnetization

 Broyden mixing:
  rms(total) = 0.17805E-01    rms(broyden)= 0.17805E-01
  rms(prec ) = 0.18912E-01
  weight for this iteration     100.00

 eigenvalues of (default mixing * dielectric matrix)
  average eigenvalue GAMMA=   1.4317
  2.4175  1.8210  0.7239  0.9709  1.2254

 Free energy of the ion-electron system (eV)
  ---------------------------------------------------
  alpha Z        PSCENC =       126.30928903
  Ewald energy   TEWEN  =     -1657.99745343
  -Hartree energ DENC   =      -274.80191463
  -exchange      EXHF   =         0.00000000
  -V(xc)+E(xc)   XCENC  =       -17.81478419
  PAW double counting   =      3518.78082126    -3432.31925586
  entropy T*S    EENTRO =        -0.00017711
  eigenvalues    EBANDS =       -26.34751047
  atomic energy  EATOM  =      1741.10451121
  Solvation  Ediel_sol  =         0.00000000
  ---------------------------------------------------
  free energy    TOTEN  =       -23.08647418 eV

  energy without entropy =      -23.08629707  energy(sigma->0) =      -23.08638562


--------------------------------------------------------------------------------------------------------




--------------------------------------- Iteration      1(  11)  ---------------------------------------


    POTLOK:  cpu time    0.0319: real time    0.0602
    SETDIJ:  cpu time    0.0863: real time    0.0864
     EDDAV:  cpu time    1.0499: real time    1.0501
       DOS:  cpu time    0.0026: real time    0.0031
    CHARGE:  cpu time    0.1732: real time    0.1734
    MIXING:  cpu time    0.0043: real time    0.0051
    --------------------------------------------
      LOOP:  cpu time    1.3482: real time    1.3835

 eigenvalue-minimisations  :  3344
 total energy-change (2. order) :-0.2557169E-05  (-0.5446876E-05)
 number of electron      25.0000000 magnetization
 augmentation part        5.0186654 magnetization

 Broyden mixing:
  rms(total) = 0.68668E-02    rms(broyden)= 0.68668E-02
  rms(prec ) = 0.72628E-02
  weight for this iteration     100.00

 eigenvalues of (default mixing * dielectric matrix)
  average eigenvalue GAMMA=   1.4916
  2.5594  2.3047  1.1990  1.1990  0.7324  0.9554

 Free energy of the ion-electron system (eV)
  ---------------------------------------------------
  alpha Z        PSCENC =       126.30928903
  Ewald energy   TEWEN  =     -1657.99745343
  -Hartree energ DENC   =      -274.81734701
  -exchange      EXHF   =         0.00000000
  -V(xc)+E(xc)   XCENC  =       -17.81201501
  PAW double counting   =      3526.88720502    -3440.40944590
  entropy T*S    EENTRO =        -0.00017589
  eigenvalues    EBANDS =       -26.35104475
  atomic energy  EATOM  =      1741.10451121
  Solvation  Ediel_sol  =         0.00000000
  ---------------------------------------------------
  free energy    TOTEN  =       -23.08647673 eV

  energy without entropy =      -23.08630084  energy(sigma->0) =      -23.08638879


--------------------------------------------------------------------------------------------------------




--------------------------------------- Iteration      1(  12)  ---------------------------------------


    POTLOK:  cpu time    0.0408: real time    0.0695
    SETDIJ:  cpu time    0.0859: real time    0.0860
     EDDAV:  cpu time    1.0998: real time    1.1000
       DOS:  cpu time    0.0026: real time    0.0028
    CHARGE:  cpu time    0.1721: real time    0.1722
    MIXING:  cpu time    0.0055: real time    0.0057
    --------------------------------------------
      LOOP:  cpu time    1.4067: real time    1.4305

 eigenvalue-minimisations  :  3592
 total energy-change (2. order) :-0.1569801E-05  (-0.1406411E-05)
 number of electron      25.0000000 magnetization
 augmentation part        5.0185424 magnetization

 Broyden mixing:
  rms(total) = 0.20619E-02    rms(broyden)= 0.20619E-02
  rms(prec ) = 0.21319E-02
  weight for this iteration     100.00

 eigenvalues of (default mixing * dielectric matrix)
  average eigenvalue GAMMA=   1.5799
  2.5096  2.5096  2.1177  0.7329  1.1201  1.1201  0.9494

 Free energy of the ion-electron system (eV)
  ---------------------------------------------------
  alpha Z        PSCENC =       126.30928903
  Ewald energy   TEWEN  =     -1657.99745343
  -Hartree energ DENC   =      -274.85026788
  -exchange      EXHF   =         0.00000000
  -V(xc)+E(xc)   XCENC  =       -17.80973284
  PAW double counting   =      3530.27816154    -3443.79331279
  entropy T*S    EENTRO =        -0.00017484
  eigenvalues    EBANDS =       -26.32749831
  atomic energy  EATOM  =      1741.10451121
  Solvation  Ediel_sol  =         0.00000000
  ---------------------------------------------------
  free energy    TOTEN  =       -23.08647830 eV

  energy without entropy =      -23.08630346  energy(sigma->0) =      -23.08639088


--------------------------------------------------------------------------------------------------------




--------------------------------------- Iteration      1(  13)  ---------------------------------------


    POTLOK:  cpu time    0.0481: real time    0.0629
    SETDIJ:  cpu time    0.0824: real time    0.0825
     EDDAV:  cpu time    1.0009: real time    1.0011
       DOS:  cpu time    0.0026: real time    0.0029
    CHARGE:  cpu time    0.1728: real time    0.1729
    MIXING:  cpu time    0.0060: real time    0.0061
    --------------------------------------------
      LOOP:  cpu time    1.3129: real time    1.3284

 eigenvalue-minimisations  :  3136
 total energy-change (2. order) : 0.8967238E-06  (-0.1204940E-06)
 number of electron      25.0000000 magnetization
 augmentation part        5.0185991 magnetization

 Broyden mixing:
  rms(total) = 0.20840E-03    rms(broyden)= 0.20839E-03
  rms(prec ) = 0.26372E-03
  weight for this iteration     100.00

 eigenvalues of (default mixing * dielectric matrix)
  average eigenvalue GAMMA=   1.5681
  2.6498  2.4437  2.1910  0.7330  1.3884  0.9571  1.0910  1.0910

 Free energy of the ion-electron system (eV)
  ---------------------------------------------------
  alpha Z        PSCENC =       126.30928903
  Ewald energy   TEWEN  =     -1657.99745343
  -Hartree energ DENC   =      -274.84359174
  -exchange      EXHF   =         0.00000000
  -V(xc)+E(xc)   XCENC  =       -17.80998918
  PAW double counting   =      3530.07562556    -3443.58755891
  entropy T*S    EENTRO =        -0.00017512
  eigenvalues    EBANDS =       -26.33713484
  atomic energy  EATOM  =      1741.10451121
  Solvation  Ediel_sol  =         0.00000000
  ---------------------------------------------------
  free energy    TOTEN  =       -23.08647741 eV

  energy without entropy =      -23.08630229  energy(sigma->0) =      -23.08638985


--------------------------------------------------------------------------------------------------------




--------------------------------------- Iteration      1(  14)  ---------------------------------------


    POTLOK:  cpu time    0.0831: real time    0.1002
    SETDIJ:  cpu time    0.0834: real time    0.0836
     EDDAV:  cpu time    0.8596: real time    0.8597
       DOS:  cpu time    0.0025: real time    0.0028
    --------------------------------------------
      LOOP:  cpu time    1.0285: real time    1.0447

 eigenvalue-minimisations  :  2432
 total energy-change (2. order) :-0.1065018E-07  (-0.9515009E-08)
 number of electron      25.0000000 magnetization
 augmentation part        5.0185991 magnetization

 Free energy of the ion-electron system (eV)
  ---------------------------------------------------
  alpha Z        PSCENC =       126.30928903
  Ewald energy   TEWEN  =     -1657.99745343
  -Hartree energ DENC   =      -274.84576890
  -exchange      EXHF   =         0.00000000
  -V(xc)+E(xc)   XCENC  =       -17.80986443
  PAW double counting   =      3530.23377915    -3443.74553558
  entropy T*S    EENTRO =        -0.00017514
  eigenvalues    EBANDS =       -26.33525933
  atomic energy  EATOM  =      1741.10451121
  Solvation  Ediel_sol  =         0.00000000
  ---------------------------------------------------
  free energy    TOTEN  =       -23.08647742 eV

  energy without entropy =      -23.08630228  energy(sigma->0) =      -23.08638985


--------------------------------------------------------------------------------------------------------




 average (electrostatic) potential at core
  the test charge radii are     1.1707  1.1712  1.2059
  (the norm of the test charge is              1.0000)
       1 -31.7466       2 -82.5456       3 -64.6359



 E-fermi :  11.4887     XC(G=0): -12.2153     alpha+bet :-16.2298


 k-point     1 :       0.0000    0.0000    0.0000
  band No.  band energies     occupation
      1     -20.5217      2.00000
      2     -20.5217      2.00000
      3     -20.5217      2.00000
      4      -2.9104      2.00000
      5       4.1926      2.00000
      6       4.1926      2.00000
      7       4.1926      2.00000
      8       4.9694      2.00000
      9       4.9694      2.00000
     10       9.3029      2.00000
     11       9.3029      2.00000
     12       9.3029      2.00000
     13      11.6558      0.00000
     14      12.5225      0.00000
     15      12.5225      0.00000
     16      12.5225      0.00000

 k-point     2 :       0.0769   -0.0000    0.0000
  band No.  band energies     occupation
      1     -20.5243      2.00000
      2     -20.5214      2.00000
      3     -20.5214      2.00000
      4      -2.8268      2.00000
      5       4.1190      2.00000
      6       4.1337      2.00000
      7       4.1337      2.00000
      8       5.0430      2.00000
      9       5.0430      2.00000
     10       8.8085      2.00000
     11       9.2377      2.00000
     12       9.2377      2.00000
     13      11.5850      0.00000
     14      12.3353      0.00000
     15      12.3353      0.00000
     16      13.1542      0.00000

 k-point     3 :       0.1538    0.0000    0.0000
  band No.  band energies     occupation
      1     -20.5314      2.00000
      2     -20.5206      2.00000
      3     -20.5206      2.00000
      4      -2.5851      2.00000
      5       3.9124      2.00000
      6       4.0198      2.00000
      7       4.0198      2.00000
      8       5.1898      2.00000
      9       5.1898      2.00000
     10       7.8497      2.00000
     11       9.0773      2.00000
     12       9.0773      2.00000
     13      11.5793      0.00000
     14      12.1983      0.00000
     15      12.1983      0.00000
     16      13.9098      0.00000

 k-point     4 :       0.2308    0.0000    0.0000
  band No.  band energies     occupation
      1     -20.5413      2.00000
      2     -20.5194      2.00000
      3     -20.5194      2.00000
      4      -2.2131      2.00000
      5       3.6022      2.00000
      6       3.9245      2.00000
      7       3.9245      2.00000
      8       5.3089      2.00000
      9       5.3089      2.00000
     10       6.9206      2.00000
     11       8.9001      2.00000
     12       8.9001      2.00000
     13      11.6151      0.00000
     14      12.2034      0.00000
     15      12.2034      0.00000
     16      14.6784      0.00000

 k-point     5 :       0.3077    0.0000    0.0000
  band No.  band energies     occupation
      1     -20.5515      2.00000
      2     -20.5181      2.00000
      3     -20.5181      2.00000
      4      -1.7629      2.00000
      5       3.2215      2.00000
      6       3.8736      2.00000
      7       3.8736      2.00000
      8       5.3514      2.00000
      9       5.3514      2.00000
     10       6.1960      2.00000
     11       8.7734      2.00000
     12       8.7734      2.00000
     13      11.6543      0.00000
     14      12.3232      0.00000
     15      12.3232      0.00000
     16      14.1769      0.00000

 k-point     6 :       0.3846   -0.0000    0.0000
  band No.  band energies     occupation
      1     -20.5597      2.00000
      2     -20.5171      2.00000
      3     -20.5171      2.00000
      4      -1.3223      2.00000
      5       2.8326      2.00000
      6       3.8625      2.00000
      7       3.8625      2.00000
      8       5.3269      2.00000
      9       5.3269      2.00000
     10       5.7304      2.00000
     11       8.7142      2.00000
     12       8.7142      2.00000
     13      11.6833      0.00000
     14      12.5060      0.00000
     15      12.5060      0.00000
     16      13.3185      0.00000

 k-point     7 :       0.4615    0.0000    0.0000
  band No.  band energies     occupation
      1     -20.5643      2.00000
      2     -20.5165      2.00000
      3     -20.5165      2.00000
      4      -1.0296      2.00000
      5       2.5644      2.00000
      6       3.8685      2.00000
      7       3.8685      2.00000
      8       5.2894      2.00000
      9       5.2894      2.00000
     10       5.5119      2.00000
     11       8.6981      2.00000
     12       8.6981      2.00000
     13      11.6975      0.00000
     14      12.6557      0.00000
     15      12.6557      0.00000
     16      12.8462      0.00000

 k-point     8 :       0.0769    0.0769    0.0000
  band No.  band energies     occupation
      1     -20.5242      2.00000
      2     -20.5218      2.00000
      3     -20.5218      2.00000
      4      -2.7994      2.00000
      5       3.9054      2.00000
      6       4.2291      2.00000
      7       4.2291      2.00000
      8       5.0100      2.00000
      9       5.0879      2.00000
     10       8.9028      2.00000
     11       9.0886      2.00000
     12       9.0886      2.00000
     13      11.4841      1.49153
     14      12.4054      0.00000
     15      12.8066      0.00000
     16      12.8539      0.00000

 k-point     9 :       0.1538    0.0769    0.0000
  band No.  band energies     occupation
      1     -20.5295      2.00000
      2     -20.5216      2.00000
      3     -20.5211      2.00000
      4      -2.6119      2.00000
      5       3.6623      2.00000
      6       4.1936      2.00000
      7       4.2103      2.00000
      8       5.1085      2.00000
      9       5.1906      2.00000
     10       8.1549      2.00000
     11       8.8866      2.00000
     12       9.0051      2.00000
     13      11.5084      0.00543
     14      12.2104      0.00000
     15      12.5065      0.00000
     16      13.5057      0.00000

 k-point    10 :       0.2308    0.0769    0.0000
  band No.  band energies     occupation
      1     -20.5383      2.00000
      2     -20.5208      2.00000
      3     -20.5200      2.00000
      4      -2.2862      2.00000
      5       3.4254      2.00000
      6       4.0566      2.00000
      7       4.1387      2.00000
      8       5.2393      2.00000
      9       5.3051      2.00000
     10       7.2391      2.00000
     11       8.7132      2.00000
     12       8.8497      2.00000
     13      11.6830      0.00000
     14      12.1348      0.00000
     15      12.3324      0.00000
     16      14.1997      0.00000

 k-point    11 :       0.3077    0.0769    0.0000
  band No.  band energies     occupation
      1     -20.5481      2.00000
      2     -20.5196      2.00000
      3     -20.5190      2.00000
      4      -1.8663      2.00000
      5       3.1765      2.00000
      6       3.9068      2.00000
      7       4.0706      2.00000
      8       5.3104      2.00000
      9       5.3754      2.00000
     10       6.4541      2.00000
     11       8.6177      2.00000
     12       8.6863      2.00000
     13      11.6776      0.00000
     14      12.3058      0.00000
     15      12.3898      0.00000
     16      14.2787      0.00000

 k-point    12 :       0.3846    0.0769   -0.0000
  band No.  band energies     occupation
      1     -20.5567      2.00000
      2     -20.5184      2.00000
      3     -20.5183      2.00000
      4      -1.4270      2.00000
      5       2.8971      2.00000
      6       3.8205      2.00000
      7       4.0144      2.00000
      8       5.3138      2.00000
      9       5.3791      2.00000
     10       5.8994      2.00000
     11       8.5771      2.00000
     12       8.5966      2.00000
     13      11.6450      0.00000
     14      12.4162      0.00000
     15      12.6516      0.00000
     16      13.5320      0.00000

 k-point    13 :       0.4615    0.0769    0.0000
  band No.  band energies     occupation
      1     -20.5623      2.00000
      2     -20.5182      2.00000
      3     -20.5172      2.00000
      4      -1.0857      2.00000
      5       2.6510      2.00000
      6       3.8174      2.00000
      7       3.9533      2.00000
      8       5.3031      2.00000
      9       5.3411      2.00000
     10       5.5908      2.00000
     11       8.5247      2.00000
     12       8.6100      2.00000
     13      11.6771      0.00000
     14      12.4880      0.00000
     15      12.5956      0.00000
     16      13.3007      0.00000

 k-point    14 :      -0.4615    0.0769    0.0000
  band No.  band energies     occupation
      1     -20.5637      2.00000
      2     -20.5186      2.00000
      3     -20.5166      2.00000
      4      -0.9844      2.00000
      5       2.5754      2.00000
      6       3.8729      2.00000
      7       3.8759      2.00000
      8       5.3012      2.00000
[...]
  212              fftbas_plan_mpi                       0.062448                     12   6
  213                dfftw_execute                         0.025313                   36   7
  214                map_backward                          0.004273                   12   7
  215                  map_gather                            0.000726                  6   8
  216                  m_alltoallv_z                         0.002228                  6   8
  217                  map_scatter                           0.001029                  6   8
  218                map_forward                           0.029714                   12   7
  219                  map_gather                            0.017271                  6   8
  220                  m_alltoallv_z                         0.005946                  6   8
  221                  map_scatter                           0.006155                  6   8
  222            M_sumb_d                              0.010717                        6   5
  223          M_sumb_d                              0.000029                          1   4
  224        setdij_                               1.455694                           20   3
  225          fft3d_mpi                             0.214707                         40   4
  226            fftbas_plan_mpi                       0.197595                       40   5
  227              dfftw_execute                         0.086657                    120   6
  228              map_backward                          0.012703                     40   6
  229                map_gather                            0.002547                   20   7
  230                m_alltoallv_z                         0.005375                   20   7
  231                map_scatter                           0.003803                   20   7
  232              map_forward                           0.088083                     40   6
  233                map_gather                            0.049242                   20   7
  234                m_alltoallv_z                         0.017192                   20   7
  235                map_scatter                           0.020555                   20   7
  236          M_sumb_d                              0.023461                         20   4
  237        set_dd_magatom                        0.000004                            1   3
  238        set_dd_paw                            0.004896                            1   3
  239          set_rsgf_all                          0.000003                          1   4
  240          M_sumb_d                              0.004736                          8   4
  241        strkin                                0.001154                            1   3
  242          M_sumb_d                              0.000817                          1   4
  243        strelo                                0.002606                            1   3
  244          M_sumb_d                              0.000152                          2   4
  245        strenl                                0.579043                            1   3
  246          spher                                 0.456904                         19   4
  247          phase                                 0.009832                        189   4
  248          proj1                                 0.099409                        756   4
  249            crexp_mul_wave                        0.015907                     2268   5
  250            M_sumb_d                              0.027305                      756   5
  251          M_sumb_d                              0.001863                          1   4
  252        M_sumb_d                              0.000295                            6   3
  253        fft3d_mpi                             0.015179                           11   3
  254          fftbas_plan_mpi                       0.014170                         11   4
  255            dfftw_execute                         0.004971                       33   5
  256            map_forward                           0.002936                       10   5
  257              map_gather                            0.000612                      5   6
  258              m_alltoallv_z                         0.001376                      5   6
  259              map_scatter                           0.000707                      5   6
  260            map_backward                          0.003629                       12   5
  261              map_gather                            0.000772                      6   6
  262              m_alltoallv_z                         0.001479                      6   6
  263              map_scatter                           0.001084                      6   6
  264        ggaall_grid                           0.001571                            1   3
  265        forhar                                0.006087                            2   3
  266          M_sumb_d                              0.000258                          2   4
  267        strehar                               0.002746                            1   3
  268          M_sumb_d                              0.000265                          1   4
  269        chggra                                0.005721                            1   3
  270          fft3d_mpi                             0.004035                          3   4
  271            fftbas_plan_mpi                       0.003677                        3   5
  272              dfftw_execute                         0.001306                      9   6
  273              map_backward                          0.000625                      2   6
  274                map_gather                            0.000123                    1   7
  275                m_alltoallv_z                         0.000251                    1   7
  276                map_scatter                           0.000193                    1   7
  277              map_forward                           0.001026                      4   6
  278                map_gather                            0.000199                    2   7
  279                m_alltoallv_z                         0.000487                    2   7
  280                map_scatter                           0.000246                    2   7
  281          M_sumb_d                              0.000123                          3   4
  282        brmix                                 0.013000                            1   3
  283          M_sumb_d                              0.000329                          6   4
  284          brpre                                 0.000043                          1   4
  285          setg0                                 0.001087                          1   4
  286          broyd                                 0.001740                          1   4
  287            M_sumb_d                              0.000476                       16   5
  288            brget                                 0.000248                       54   5
  289            brsav                                 0.000092                       14   5
  290          M_bcast_z                             0.008864                          1   4
  291          M_bcast_d                             0.000045                          1   4
  292        M_bcast_d                             0.000272                            2   3
  293      potlok                                0.027275                              1   2
  294        fft3d_mpi                             0.018353                           13   3
  295          fftbas_plan_mpi                       0.017067                         13   4
  296            dfftw_execute                         0.005837                       39   5
  297            map_forward                           0.004497                       14   5
  298              map_gather                            0.000943                      8   6
  299              m_alltoallv_z                         0.002041                      8   6
  300              map_scatter                           0.001140                      8   6
  301            map_backward                          0.003627                       12   5
  302              map_gather                            0.000741                      6   6
  303              m_alltoallv_z                         0.001456                      6   6
  304              map_scatter                           0.001139                      6   6
  305        ggaall_grid                           0.001570                            1   3
  306        M_sumb_d                              0.000428                            6   3
  307        M_bcast_d                             0.000121                            1   3
  308      potlok_metagga                        0.000004                              1   2
  309      set_dd_magatom                        0.000003                              1   2
  310      set_dd_paw                            0.000346                              1   2
  311        set_rsgf_all                          0.000004                            1   3
  312        M_sumb_d                              0.000207                            8   3
  313      densta                                0.002029                              1   2
  314        M_sumb_d                              0.000826                           41   3
  315      lprj_proall                           0.000007                              1   2

 Flat profile
 ============

             routine name                   CPU           calls
 ---------------------------------------------------------------
 total_time                             12.737617           1
 eddav                                   2.853848          14
 dfftw_execute                           2.727357       27330
 setdij_                                 2.441073          38
 fftbas_plan_mpi                         1.813292        9112
 M_sumb_d                                1.388149       25986
 set_charge                              1.084069          10
 m_alltoallv_z                           1.052199        9131
 elmin                                   1.025241           1
 M_alltoall_d                            0.590164       30030
 pdssyex_zheevx                          0.589300         294
 spher                                   0.522560          20
 orth1                                   0.423333        6114
 vhamil                                  0.410905        4062
 map_gather                              0.372964        9131
 map_forward                             0.354680        9834
 fftwav_mpi                              0.344769        4794
 proj1                                   0.339109        3726
 map_scatter                             0.314544        9131
 M_bcast_z                               0.288830        3738
 gemm                                    0.286854       12186
 vnlac0                                  0.264996        4062
 crpa_reader                             0.253877           1
 redis_pw                                0.240106       11640
 hamiltmu                                0.221036        2031
 redis_proj                              0.219668       14547
 fft3d_mpi                               0.169298        9110
 w1_copy                                 0.150027       12186
 map_backward                            0.147270        8386
 work_mul_crexp                          0.122442       12186
 fftext_mpi                              0.121894        4062
 eccp                                    0.105571        1176
 crexp_mul_wave                          0.087700       11178
 kinhamil                                0.078129        4062
 overl                                   0.076044        6969
 potlok                                  0.073494          11
 M_bcast_d                               0.065908        2059
 overl1                                  0.050863        4062
 lincom                                  0.044601         315
 force_and_stress                        0.044518           1
 pw_charge                               0.043613         732
 setup_precond                           0.037572        1176
 apply_precond                           0.035914        2886
 w1_projall                              0.030044        1443
 phase                                   0.027468         526
 soft_charge                             0.019376          10
 ggaall_grid                             0.019042          12
 densta                                  0.017897          15
 truncate_high_frequency_w1              0.017778        5238
 fornl                                   0.017061           1
 setg0                                   0.011788          11
 brmix                                   0.011617          10
 strenl                                  0.011035           1
 forhar                                  0.005829           2
 broyd                                   0.005820          10
 forloc                                  0.003104           1
 set_dd_paw                              0.003099          12
 strehar                                 0.002481           1
 strelo                                  0.002454           1
 depsum                                  0.002289          10
 orthch                                  0.001853           1
 chggra                                  0.001563           1
 brget                                   0.001348         309
 brgrid                                  0.001097           1
 proj                                    0.000906          21
 choleski                                0.000755          21
 brsav                                   0.000722          96
 brpre                                   0.000619          10
 strkin                                  0.000337           1
 fordep                                  0.000129           1
 set_rsgf_all                            0.000058          12
 vectorpot                               0.000057          11
 set_dd_magatom                          0.000045          12
 potlok_metagga                          0.000044          11
 set_kineden                             0.000032           9
 rotate_active_occupied_orbital          0.000015           1
 lprj_proall                             0.000007           1
 redis_pw_over_bands                     0.000003           1
 ---------------------------------------------------------------
  summed up times    34.8331699371338

 Accumulative profile
 ====================

             routine name                   CPU           calls
 ---------------------------------------------------------------
 total_time                             34.833170           1
 elmin                                  18.448446           1
 eddav                                  14.501614          14
 fft3d_mpi                               6.929705        9110
 fftbas_plan_mpi                         6.782306        9112
 hamiltmu                                4.507303        2031
 fftwav_mpi                              3.734110        4794
 setdij_                                 2.937202          38
 kinhamil                                2.901467        4062
 fftext_mpi                              2.823339        4062
 force_and_stress                        2.800122           1
 dfftw_execute                           2.727357       27330
 set_charge                              1.905414          10
 M_sumb_d                                1.388149       25986
 map_forward                             1.305459        9834
 m_alltoallv_z                           1.052199        9131
 map_backward                            0.936198        8386
 vnlac0                                  0.923032        4062
 soft_charge                             0.633612          10
 proj1                                   0.594029        3726
 M_alltoall_d                            0.590164       30030
 pdssyex_zheevx                          0.589300         294
 strenl                                  0.579043           1
 redis_pw                                0.562470       11640
 spher                                   0.522560          20
 w1_projall                              0.513867        1443
 redis_proj                              0.487469       14547
 fordep                                  0.455982           1
 orth1                                   0.423333        6114
 vhamil                                  0.410905        4062
 map_gather                              0.372964        9131
 map_scatter                             0.314544        9131
 potlok                                  0.290424          11
 M_bcast_z                               0.288830        3738
 gemm                                    0.286854       12186
 crpa_reader                             0.253877           1
 eccp                                    0.170917        1176
 w1_copy                                 0.150027       12186
 work_mul_crexp                          0.122442       12186
 crexp_mul_wave                          0.087700       11178
 overl                                   0.076044        6969
 set_dd_paw                              0.073152          12
 M_bcast_d                               0.065908        2059
 setup_precond                           0.065843        1176
 brmix                                   0.057109          10
 overl1                                  0.050863        4062
 lincom                                  0.044601         315
 pw_charge                               0.043613         732
 apply_precond                           0.035914        2886
 densta                                  0.029619          15
 orthch                                  0.027963           1
 phase                                   0.027468         526
 fornl                                   0.025973           1
 ggaall_grid                             0.019042          12
 truncate_high_frequency_w1              0.017778        5238
 depsum                                  0.013588          10
 broyd                                   0.011907          10
 setg0                                   0.011788          11
 proj                                    0.011703          21
 forhar                                  0.006087           2
 chggra                                  0.005721           1
 forloc                                  0.003155           1
 strehar                                 0.002746           1
 strelo                                  0.002606           1
 brget                                   0.001348         309
 strkin                                  0.001154           1
 brgrid                                  0.001097           1
 choleski                                0.000755          21
 brsav                                   0.000722          96
 brpre                                   0.000619          10
 set_rsgf_all                            0.000058          12
 vectorpot                               0.000057          11
 set_dd_magatom                          0.000045          12
 potlok_metagga                          0.000044          11
 set_kineden                             0.000032           9
 rotate_active_occupied_orbital          0.000015           1
 lprj_proall                             0.000007           1
 redis_pw_over_bands                     0.000003           1
 ---------------------------------------------------------------

Profiling took   0.711090  0.868078  0.005759  0.004366 seconds
Profiling took   0.688313 seconds
