<?xml version="1.0" encoding="ISO-8859-1"?>
<modeling>
 <generator>
  <i name="program" type="string">vasp </i>
  <i name="version" type="string">6.0.8  </i>
  <i name="subversion" type="string">29Jun18 (build Jun 13 2019 12:54:44) complex                          parallel </i>
  <i name="platform" type="string">IFC18_CrayMPICH </i>
  <i name="date" type="string">2021 12 05 </i>
  <i name="time" type="string">14:21:50 </i>
 </generator>
 <incar>
  <i type="int" name="KPAR">     4</i>
  <i type="int" name="NPAR">     4</i>
  <i type="int" name="ISTART">     0</i>
  <i type="string" name="PREC"> ACC</i>
  <i type="string" name="ALGO"> Normal</i>
  <i type="logical" name="ADDGRID"> T  </i>
  <i type="int" name="ISPIN">     1</i>
  <i type="int" name="NELMIN">     5</i>
  <i type="int" name="IBRION">    -1</i>
  <i name="EDIFF">      0.00000010</i>
  <i type="int" name="NSW">     0</i>
  <i type="int" name="ISIF">     3</i>
  <i name="ENCUT">    700.00000000</i>
  <i type="logical" name="LREAL"> F  </i>
  <i type="int" name="ISMEAR">     0</i>
  <i name="SIGMA">      0.01000000</i>
  <i type="logical" name="LWAVE"> F  </i>
  <i type="logical" name="LCHARG"> F  </i>
  <i type="logical" name="LVTOT"> F  </i>
  <i type="string" name="ALGO"> Normal</i>
  <i type="string" name="GGA"> PS</i>
  <i name="EDIFF">      0.00000010</i>
  <i type="int" name="ISPIN">     1</i>
 </incar>
 <structure name="primitive_cell" >
  <crystal>
   <varray name="basis" >
    <v>       0.00000000       2.99883426       2.99883426 </v>
    <v>       2.99883426       0.00000000       2.99883426 </v>
    <v>       2.99883426       2.99883426       0.00000000 </v>
   </varray>
   <i name="volume">     53.93707444 </i>
   <varray name="rec_basis" >
    <v>      -0.16673146       0.16673146       0.16673146 </v>
    <v>       0.16673146      -0.16673146       0.16673146 </v>
    <v>       0.16673146       0.16673146      -0.16673146 </v>
   </varray>
  </crystal>
  <varray name="positions" >
   <v>       0.75000000       0.75000000       0.75000000 </v>
   <v>       0.25000000       0.25000000       0.25000000 </v>
   <v>       0.00000000       0.00000000       0.00000000 </v>
  </varray>
 </structure>
 <varray name="primitive_index" >
  <v type="int" >        1 </v>
  <v type="int" >        2 </v>
  <v type="int" >        3 </v>
 </varray>
 <kpoints>
  <generation param="Gamma">
   <v type="int" name="divisions">      13       13       13 </v>
   <v name="usershift">      0.00000000       0.00000000       0.00000000 </v>
   <v name="genvec1">      0.07692308       0.00000000      -0.00000000 </v>
   <v name="genvec2">      0.00000000       0.07692308       0.00000000 </v>
   <v name="genvec3">     -0.00000000      -0.00000000       0.07692308 </v>
   <v name="shift">      0.00000000       0.00000000       0.00000000 </v>
  </generation>
  <varray name="kpointlist" >
   <v>       0.00000000       0.00000000       0.00000000 </v>
   <v>       0.07692308      -0.00000000       0.00000000 </v>
   <v>       0.15384615       0.00000000       0.00000000 </v>
   <v>       0.23076923       0.00000000       0.00000000 </v>
   <v>       0.30769231       0.00000000       0.00000000 </v>
   <v>       0.38461538      -0.00000000       0.00000000 </v>
   <v>       0.46153846       0.00000000       0.00000000 </v>
   <v>       0.07692308       0.07692308       0.00000000 </v>
   <v>       0.15384615       0.07692308       0.00000000 </v>
   <v>       0.23076923       0.07692308       0.00000000 </v>
   <v>       0.30769231       0.07692308       0.00000000 </v>
   <v>       0.38461538       0.07692308      -0.00000000 </v>
   <v>       0.46153846       0.07692308       0.00000000 </v>
   <v>      -0.46153846       0.07692308       0.00000000 </v>
   <v>      -0.38461538       0.07692308      -0.00000000 </v>
   <v>      -0.30769231       0.07692308      -0.00000000 </v>
   <v>      -0.23076923       0.07692308       0.00000000 </v>
   <v>      -0.15384615       0.07692308      -0.00000000 </v>
   <v>      -0.07692308       0.07692308      -0.00000000 </v>
   <v>       0.15384615       0.15384615       0.00000000 </v>
   <v>       0.23076923       0.15384615       0.00000000 </v>
   <v>       0.30769231       0.15384615       0.00000000 </v>
   <v>       0.38461538       0.15384615       0.00000000 </v>
   <v>       0.46153846       0.15384615       0.00000000 </v>
   <v>      -0.46153846       0.15384615      -0.00000000 </v>
   <v>      -0.38461538       0.15384615       0.00000000 </v>
   <v>      -0.30769231       0.15384615       0.00000000 </v>
   <v>      -0.23076923       0.15384615      -0.00000000 </v>
   <v>      -0.15384615       0.15384615       0.00000000 </v>
   <v>       0.23076923       0.23076923       0.00000000 </v>
   <v>       0.30769231       0.23076923       0.00000000 </v>
   <v>       0.38461538       0.23076923       0.00000000 </v>
   <v>       0.46153846       0.23076923       0.00000000 </v>
   <v>      -0.46153846       0.23076923       0.00000000 </v>
   <v>      -0.38461538       0.23076923      -0.00000000 </v>
   <v>      -0.30769231       0.23076923      -0.00000000 </v>
   <v>      -0.23076923       0.23076923       0.00000000 </v>
   <v>       0.30769231       0.30769231       0.00000000 </v>
   <v>       0.38461538       0.30769231       0.00000000 </v>
   <v>       0.46153846       0.30769231       0.00000000 </v>
   <v>      -0.46153846       0.30769231       0.00000000 </v>
   <v>      -0.38461538       0.30769231       0.00000000 </v>
   <v>      -0.30769231       0.30769231       0.00000000 </v>
   <v>       0.38461538       0.38461538       0.00000000 </v>
   <v>       0.46153846       0.38461538       0.00000000 </v>
   <v>      -0.46153846       0.38461538       0.00000000 </v>
   <v>      -0.38461538       0.38461538      -0.00000000 </v>
   <v>       0.46153846       0.46153846       0.00000000 </v>
   <v>      -0.46153846       0.46153846       0.00000000 </v>
   <v>       0.23076923       0.15384615       0.07692308 </v>
   <v>       0.30769231       0.15384615       0.07692308 </v>
   <v>       0.38461538       0.15384615       0.07692308 </v>
   <v>       0.46153846       0.15384615       0.07692308 </v>
   <v>      -0.46153846       0.15384615       0.07692308 </v>
   <v>       0.30769231       0.23076923       0.07692308 </v>
   <v>       0.38461538       0.23076923       0.07692308 </v>
   <v>       0.46153846       0.23076923       0.07692308 </v>
   <v>      -0.46153846       0.23076923       0.07692308 </v>
   <v>      -0.38461538       0.23076923       0.07692308 </v>
   <v>      -0.30769231       0.23076923       0.07692308 </v>
   <v>      -0.23076923       0.23076923       0.07692308 </v>
   <v>      -0.15384615       0.23076923       0.07692308 </v>
   <v>       0.38461538       0.30769231       0.07692308 </v>
   <v>       0.46153846       0.30769231       0.07692308 </v>
   <v>      -0.46153846       0.30769231       0.07692308 </v>
   <v>      -0.38461538       0.30769231       0.07692308 </v>
   <v>      -0.30769231       0.30769231       0.07692308 </v>
   <v>      -0.23076923       0.30769231       0.07692308 </v>
   <v>       0.46153846       0.38461538       0.07692308 </v>
   <v>      -0.46153846       0.38461538       0.07692308 </v>
   <v>      -0.38461538       0.38461538       0.07692308 </v>
   <v>      -0.30769231       0.38461538       0.07692308 </v>
   <v>      -0.46153846       0.46153846       0.07692308 </v>
   <v>      -0.38461538       0.46153846       0.07692308 </v>
   <v>       0.46153846       0.30769231       0.15384615 </v>
   <v>      -0.46153846       0.30769231       0.15384615 </v>
   <v>      -0.38461538       0.30769231       0.15384615 </v>
   <v>      -0.46153846       0.38461538       0.15384615 </v>
   <v>      -0.38461538       0.38461538       0.15384615 </v>
   <v>      -0.30769231       0.38461538       0.15384615 </v>
   <v>      -0.23076923       0.38461538       0.15384615 </v>
   <v>      -0.38461538       0.46153846       0.15384615 </v>
   <v>      -0.30769231       0.46153846       0.15384615 </v>
   <v>      -0.30769231       0.46153846       0.23076923 </v>
  </varray>
  <varray name="weights" >
   <v>       0.00045517 </v>
   <v>       0.00364133 </v>
   <v>       0.00364133 </v>
   <v>       0.00364133 </v>
   <v>       0.00364133 </v>
   <v>       0.00364133 </v>
   <v>       0.00364133 </v>
   <v>       0.00273100 </v>
   <v>       0.01092399 </v>
   <v>       0.01092399 </v>
   <v>       0.01092399 </v>
   <v>       0.01092399 </v>
   <v>       0.01092399 </v>
   <v>       0.01092399 </v>
   <v>       0.01092399 </v>
   <v>       0.01092399 </v>
   <v>       0.01092399 </v>
   <v>       0.01092399 </v>
   <v>       0.00546199 </v>
   <v>       0.00273100 </v>
   <v>       0.01092399 </v>
   <v>       0.01092399 </v>
   <v>       0.01092399 </v>
   <v>       0.01092399 </v>
   <v>       0.01092399 </v>
   <v>       0.01092399 </v>
   <v>       0.01092399 </v>
   <v>       0.01092399 </v>
   <v>       0.00546199 </v>
   <v>       0.00273100 </v>
   <v>       0.01092399 </v>
   <v>       0.01092399 </v>
   <v>       0.01092399 </v>
   <v>       0.01092399 </v>
   <v>       0.01092399 </v>
   <v>       0.01092399 </v>
   <v>       0.00546199 </v>
   <v>       0.00273100 </v>
   <v>       0.01092399 </v>
   <v>       0.01092399 </v>
   <v>       0.01092399 </v>
   <v>       0.01092399 </v>
   <v>       0.00546199 </v>
   <v>       0.00273100 </v>
   <v>       0.01092399 </v>
   <v>       0.01092399 </v>
   <v>       0.00546199 </v>
   <v>       0.00273100 </v>
   <v>       0.00546199 </v>
   <v>       0.01092399 </v>
   <v>       0.02184797 </v>
   <v>       0.02184797 </v>
   <v>       0.02184797 </v>
   <v>       0.02184797 </v>
   <v>       0.01092399 </v>
   <v>       0.02184797 </v>
   <v>       0.02184797 </v>
   <v>       0.02184797 </v>
   <v>       0.02184797 </v>
   <v>       0.02184797 </v>
   <v>       0.02184797 </v>
   <v>       0.01092399 </v>
   <v>       0.01092399 </v>
   <v>       0.02184797 </v>
   <v>       0.02184797 </v>
   <v>       0.02184797 </v>
   <v>       0.02184797 </v>
   <v>       0.01092399 </v>
   <v>       0.01092399 </v>
   <v>       0.02184797 </v>
   <v>       0.02184797 </v>
   <v>       0.01092399 </v>
   <v>       0.01092399 </v>
   <v>       0.01092399 </v>
   <v>       0.01092399 </v>
   <v>       0.02184797 </v>
   <v>       0.02184797 </v>
   <v>       0.01092399 </v>
   <v>       0.02184797 </v>
   <v>       0.02184797 </v>
   <v>       0.01092399 </v>
   <v>       0.01092399 </v>
   <v>       0.01092399 </v>
   <v>       0.01092399 </v>
  </varray>
 </kpoints>
 <parameters>
  <separator name="general" >
   <i type="string" name="SYSTEM">unknown system</i>
   <i type="logical" name="LCOMPAT"> F  </i>
  </separator>
  <separator name="electronic" >
   <i type="string" name="PREC">acc</i>
   <i name="ENMAX">    700.00000000</i>
   <i name="ENAUG">    380.87800000</i>
   <i name="EDIFF">      0.00000010</i>
   <i type="int" name="IALGO">    38</i>
   <i type="int" name="IWAVPR">    10</i>
   <i type="int" name="NBANDS">    16</i>
   <i type="int" name="NBANDSLOW">    -1</i>
   <i type="int" name="NBANDSHIGH">    -1</i>
   <i name="NELECT">     25.00000000</i>
   <i type="int" name="TURBO">     0</i>
   <i type="int" name="IRESTART">     0</i>
   <i type="int" name="NREBOOT">     0</i>
   <i type="int" name="NMIN">     0</i>
   <i name="EREF">      0.00000000</i>
   <separator name="electronic smearing" >
    <i type="int" name="ISMEAR">     0</i>
    <i name="SIGMA">      0.01000000</i>
    <i name="KSPACING">      0.50000000</i>
    <i type="logical" name="KGAMMA"> T  </i>
    <i type="logical" name="KBLOWUP"> T  </i>
   </separator>
   <separator name="electronic projectors" >
    <i type="logical" name="LREAL"> F  </i>
    <v name="ROPT">      0.00000000      0.00000000      0.00000000</v>
    <i type="int" name="LMAXPAW">  -100</i>
    <i type="int" name="LMAXMIX">     2</i>
    <i type="logical" name="NLSPLINE"> F  </i>
   </separator>
   <separator name="electronic startup" >
    <i type="int" name="ISTART">     0</i>
    <i type="int" name="ICHARG">     2</i>
    <i type="int" name="INIWAV">     1</i>
   </separator>
   <separator name="electronic spin" >
    <i type="int" name="ISPIN">     1</i>
    <i type="logical" name="LNONCOLLINEAR"> F  </i>
    <v name="MAGMOM">      1.00000000      1.00000000      1.00000000</v>
    <i name="NUPDOWN">     -1.00000000</i>
    <i type="logical" name="LSORBIT"> F  </i>
    <v name="SAXIS">      0.00000000      0.00000000      1.00000000</v>
    <i type="logical" name="LSPIRAL"> F  </i>
    <v name="QSPIRAL">      0.00000000      0.00000000      0.00000000</v>
    <i type="logical" name="LZEROZ"> F  </i>
   </separator>
   <separator name="electronic exchange-correlation" >
    <i type="logical" name="LASPH"> F  </i>
    <i type="logical" name="LMETAGGA"> F  </i>
   </separator>
   <separator name="electronic convergence" >
    <i type="int" name="NELM">    60</i>
    <i type="int" name="NELMDL">    -5</i>
    <i type="int" name="NELMIN">     5</i>
    <i name="ENINI">    700.00000000</i>
    <separator name="electronic convergence detail" >
     <i type="logical" name="LDIAG"> T  </i>
     <i type="logical" name="LSUBROT"> F  </i>
     <i name="WEIMIN">      0.00000000</i>
     <i name="EBREAK">      0.00000000</i>
     <i name="DEPER">      0.30000000</i>
     <i type="int" name="NRMM">     4</i>
     <i name="TIME">      0.40000000</i>
    </separator>
   </separator>
   <separator name="electronic mixer" >
    <i name="AMIX">      0.40000000</i>
    <i name="BMIX">      1.00000000</i>
    <i name="AMIN">      0.10000000</i>
    <i name="AMIX_MAG">      1.60000000</i>
    <i name="BMIX_MAG">      1.00000000</i>
    <separator name="electronic mixer details" >
     <i type="int" name="IMIX">     4</i>
     <i type="logical" name="MIXFIRST"> F  </i>
     <i type="int" name="MAXMIX">   -45</i>
     <i name="WC">    100.00000000</i>
     <i type="int" name="INIMIX">     1</i>
     <i type="int" name="MIXPRE">     1</i>
     <i type="int" name="MREMOVE">     5</i>
    </separator>
   </separator>
   <separator name="electronic dipolcorrection" >
    <i type="logical" name="LDIPOL"> F  </i>
    <i type="logical" name="LMONO"> F  </i>
    <i type="int" name="IDIPOL">     0</i>
    <i name="EPSILON">      1.00000000</i>
    <v name="DIPOL">   -100.00000000   -100.00000000   -100.00000000</v>
    <i name="EFIELD">      0.00000000</i>
   </separator>
  </separator>
  <separator name="grids" >
   <i type="int" name="NGX">    40</i>
   <i type="int" name="NGY">    40</i>
   <i type="int" name="NGZ">    40</i>
   <i type="int" name="NGXF">    80</i>
   <i type="int" name="NGYF">    80</i>
   <i type="int" name="NGZF">    80</i>
   <i type="logical" name="ADDGRID"> T  </i>
  </separator>
  <separator name="ionic" >
   <i type="int" name="NSW">     0</i>
   <i type="int" name="IBRION">    -1</i>
   <i type="int" name="MDALGO">     0</i>
   <i type="int" name="ISIF">     3</i>
   <i name="PSTRESS">      0.00000000</i>
   <i name="EDIFFG">      0.00000100</i>
   <i type="int" name="NFREE">     0</i>
   <i name="POTIM">      0.50000000</i>
   <i name="SMASS">     -3.00000000</i>
   <i name="SCALEE">      1.00000000</i>
  </separator>
  <separator name="ionic md" >
   <i name="TEBEG">      0.00010000</i>
   <i name="TEEND">      0.00010000</i>
   <i type="int" name="NBLOCK">     1</i>
   <i type="int" name="KBLOCK">     1</i>
   <i type="int" name="NPACO">   256</i>
   <i name="APACO">     16.00000000</i>
  </separator>
  <separator name="symmetry" >
   <i type="int" name="ISYM">     2</i>
   <i name="SYMPREC">      0.00001000</i>
  </separator>
  <separator name="dos" >
   <i type="int" name="LORBIT">     0</i>
   <v name="RWIGS">     -1.00000000     -1.00000000     -1.00000000</v>
   <i type="int" name="NEDOS">   301</i>
   <i name="EMIN">     10.00000000</i>
   <i name="EMAX">    -10.00000000</i>
   <i name="EFERMI">      0.00000000</i>
  </separator>
  <separator name="writing" >
   <i type="int" name="NWRITE">     2</i>
   <i type="logical" name="LWAVE"> F  </i>
   <i type="logical" name="LDOWNSAMPLE"> F  </i>
   <i type="logical" name="LCHARG"> F  </i>
   <i type="logical" name="LPARD"> F  </i>
   <i type="logical" name="LVTOT"> F  </i>
   <i type="logical" name="LVHAR"> F  </i>
   <i type="logical" name="LELF"> F  </i>
   <i type="logical" name="LOPTICS"> F  </i>
   <v name="STM">      0.00000000      0.00000000      0.00000000      0.00000000      0.00000000      0.00000000      0.00000000</v>
  </separator>
  <separator name="performance" >
   <i type="int" name="NPAR">     4</i>
   <i type="int" name="NSIM">     4</i>
   <i type="int" name="NBLK">    -1</i>
   <i type="logical" name="LPLANE"> T  </i>
   <i type="logical" name="LSCALAPACK"> T  </i>
   <i type="logical" name="LSCAAWARE"> F  </i>
   <i type="logical" name="LSCALU"> F  </i>
   <i type="logical" name="LASYNC"> F  </i>
   <i type="logical" name="LORBITALREAL"> F  </i>
  </separator>
  <separator name="miscellaneous" >
   <i type="int" name="IDIOT">     3</i>
   <i type="int" name="PHON_NSTRUCT">    -1</i>
   <i type="logical" name="LMUSIC"> F  </i>
   <v name="POMASS">    178.49000000    121.75000000    195.08000000</v>
   <v name="DARWINR">      0.00000000      0.00000000      0.00000000</v>
   <v name="DARWINV">      1.00000000      1.00000000      1.00000000</v>
   <i type="logical" name="LCORR"> T  </i>
  </separator>
  <i type="logical" name="GGA_COMPAT"> T  </i>
  <i type="logical" name="LBERRY"> F  </i>
  <i type="int" name="ICORELEVEL">     0</i>
  <i type="logical" name="LDAU"> F  </i>
  <i type="int" name="I_CONSTRAINED_M">     0</i>
  <separator name="electronic exchange-correlation" >
   <i type="string" name="GGA">PS</i>
   <i type="int" name="VOSKOWN">     0</i>
   <i type="logical" name="LHFCALC"> F  </i>
   <i type="string" name="PRECFOCK"></i>
   <i type="logical" name="LSYMGRAD"> F  </i>
   <i type="logical" name="LHFONE"> F  </i>
   <i type="logical" name="LRHFCALC"> F  </i>
   <i type="logical" name="LTHOMAS"> F  </i>
   <i type="logical" name="LMODELHF"> F  </i>
   <i type="logical" name="LFOCKACE"> F  </i>
   <i name="ENCUT4O">     -1.00000000</i>
   <i type="int" name="EXXOEP">     0</i>
   <i type="int" name="FOURORBIT">     0</i>
   <i name="AEXX">      0.00000000</i>
   <i name="HFALPHA">      0.00000000</i>
   <i name="MCALPHA">      0.00000000</i>
   <i name="ALDAX">      1.00000000</i>
   <i name="AGGAX">      1.00000000</i>
   <i name="ALDAC">      1.00000000</i>
   <i name="AGGAC">      1.00000000</i>
   <i type="int" name="NKREDX">     1</i>
   <i type="int" name="NKREDY">     1</i>
   <i type="int" name="NKREDZ">     1</i>
   <i type="logical" name="SHIFTRED"> F  </i>
   <i type="logical" name="ODDONLY"> F  </i>
   <i type="logical" name="EVENONLY"> F  </i>
   <i type="int" name="LMAXFOCK">     0</i>
   <i type="int" name="NMAXFOCKAE">     0</i>
   <i type="logical" name="LFOCKAEDFT"> F  </i>
   <i name="HFSCREEN">      0.00000000</i>
   <i name="HFSCREENC">      0.00000000</i>
   <i type="int" name="NBANDSGWLOW">     0</i>
  </separator>
  <separator name="vdW DFT" >
   <i type="logical" name="LUSE_VDW"> F  </i>
   <i name="Zab_VDW">     -0.84910000</i>
   <i name="PARAM1">      0.12340000</i>
   <i name="PARAM2">      1.00000000</i>
   <i name="PARAM3">      0.00000000</i>
  </separator>
  <separator name="model GW" >
   <i type="int" name="MODEL_GW">     0</i>
   <i name="MODEL_EPS0">     10.78741489</i>
   <i name="MODEL_ALPHA">      1.00000000</i>
  </separator>
  <separator name="linear response parameters" >
   <i type="logical" name="LEPSILON"> F  </i>
   <i type="logical" name="LRPA"> F  </i>
   <i type="logical" name="LNABLA"> F  </i>
   <i type="logical" name="LVEL"> F  </i>
   <i type="int" name="KINTER">     0</i>
   <i name="CSHIFT">      0.10000000</i>
   <i name="OMEGAMAX">     -1.00000000</i>
   <i name="DEG_THRESHOLD">      0.00200000</i>
   <i name="RTIME">     -0.10000000</i>
   <i name="WPLASMAI">      0.00000000</i>
   <v name="DFIELD">      0.00000000      0.00000000      0.00000000</v>
   <v name="WPLASMA">      0.00000000      0.00000000      0.00000000      0.00000000      0.00000000      0.00000000      0.00000000      0.00000000      0.00000000</v>
  </separator>
  <separator name="orbital magnetization" >
   <i type="logical" name="NUCIND"> F  </i>
   <v name="MAGPOS">      0.00000000      0.00000000      0.00000000</v>
   <i type="logical" name="LNICSALL"> T  </i>
   <i type="logical" name="ORBITALMAG"> F  </i>
   <i type="logical" name="LMAGBLOCH"> F  </i>
   <i type="logical" name="LCHIMAG"> F  </i>
   <i type="logical" name="LGAUGE"> T  </i>
   <i type="int" name="MAGATOM">     0</i>
   <v name="MAGDIPOL">      0.00000000      0.00000000      0.00000000</v>
   <v name="AVECCONST">      0.00000000      0.00000000      0.00000000</v>
  </separator>
  <separator name="response functions" >
   <i type="logical" name="LFINITE_TEMPERATURE"> F  </i>
   <i type="logical" name="LADDER"> F  </i>
   <i type="logical" name="LRPAFORCE"> F  </i>
   <i type="logical" name="LFXC"> F  </i>
   <i type="logical" name="LHARTREE"> T  </i>
   <i type="int" name="IBSE">     0</i>
   <v type="int" name="KPOINT">    -1     0     0     0</v>
   <i type="logical" name="LTCTC"> F  </i>
   <i type="logical" name="LTCTE"> F  </i>
   <i type="logical" name="LTETE"> F  </i>
   <i type="logical" name="LTRIPLET"> F  </i>
   <i type="logical" name="LFXCEPS"> F  </i>
   <i type="logical" name="LFXHEG"> F  </i>
   <i type="int" name="NATURALO">     2</i>
   <i type="logical" name="L2ORDER"> F  </i>
   <i type="logical" name="LDMP1"> F  </i>
   <i type="logical" name="LMP2LT"> F  </i>
   <i type="logical" name="LSMP2LT"> F  </i>
   <i type="logical" name="LUSEW"> F  </i>
   <i name="ENCUTGW">     -2.00000000</i>
   <i name="ENCUTGWSOFT">     -2.00000000</i>
   <i name="ENCUTLF">     -1.00000000</i>
   <i type="int" name="LMAXMP2">    -1</i>
   <i name="SCISSOR">      0.00000000</i>
   <i type="int" name="NOMEGA">     0</i>
   <i type="int" name="NOMEGAR">     0</i>
   <i type="int" name="NBANDSGW">    -1</i>
   <i type="int" name="NBANDSO">    -1</i>
   <i type="int" name="NBANDSV">    -1</i>
   <i type="int" name="NELM">     1</i>
   <i type="int" name="NELMHF">     1</i>
   <i type="int" name="DIM">     3</i>
   <i type="int" name="IESPILON">     4</i>
   <i type="int" name="ANTIRES">     0</i>
   <i name="OMEGAMAX">    -30.00000000</i>
   <i name="OMEGAMIN">    -30.00000000</i>
   <i name="OMEGATL">   -200.00000000</i>
   <i type="int" name="OMEGAGRID">   145</i>
   <i name="CSHIFT">     -0.10000000</i>
   <i type="logical" name="LSELFENERGY"> F  </i>
   <i type="logical" name="LSPECTRAL"> F  </i>
   <i type="logical" name="LSPECTRALGW"> F  </i>
   <i type="logical" name="LSINGLES"> F  </i>
   <i type="logical" name="LFERMIGW"> F  </i>
   <i type="logical" name="ODDONLYGW"> F  </i>
   <i type="logical" name="EVENONLYGW"> F  </i>
   <i type="int" name="NKREDLFX">     1</i>
   <i type="int" name="NKREDLFY">     1</i>
   <i type="int" name="NKREDLFZ">     1</i>
   <i type="int" name="MAXMEM">  2800</i>
   <i type="int" name="TELESCOPE">     0</i>
   <i type="int" name="NTAUPAR">     1</i>
   <i type="int" name="NOMEGAPAR">    -1</i>
   <i name="LAMBDA">      1.00000000</i>
  </separator>
  <separator name="External order field" >
   <i name="OFIELD_KAPPA">      0.00000000</i>
   <v name="OFIELD_K">      0.00000000      0.00000000      0.00000000</v>
   <i name="OFIELD_Q6_NEAR">      0.00000000</i>
   <i name="OFIELD_Q6_FAR">      0.00000000</i>
   <i name="OFIELD_A">      0.00000000</i>
  </separator>
 </parameters>
 <atominfo>
  <atoms>       3 </atoms>
  <types>       3 </types>
  <array name="atoms" >
   <dimension dim="1">ion</dimension>
   <field type="string">element</field>
   <field type="int">atomtype</field>
   <set>
    <rc><c>Hf</c><c>   1</c></rc>
    <rc><c>Sb</c><c>   2</c></rc>
    <rc><c>Pt</c><c>   3</c></rc>
   </set>
  </array>
  <array name="atomtypes" >
   <dimension dim="1">type</dimension>
   <field type="int">atomspertype</field>
   <field type="string">element</field>
   <field>mass</field>
   <field>valence</field>
   <field type="string">pseudopotential</field>
   <set>
    <rc><c>   1</c><c>Hf</c><c>    178.49000000</c><c>     10.00000000</c><c>  PAW_PBE Hf_pv 06Sep2000               </c></rc>
    <rc><c>   1</c><c>Sb</c><c>    121.75000000</c><c>      5.00000000</c><c>  PAW_PBE Sb 06Sep2000                  </c></rc>
    <rc><c>   1</c><c>Pt</c><c>    195.08000000</c><c>     10.00000000</c><c>  PAW_PBE Pt 04Feb2005                  </c></rc>
   </set>
  </array>
 </atominfo>
 <structure name="initialpos" >
  <crystal>
   <varray name="basis" >
    <v>       0.00000000       2.99883426       2.99883426 </v>
    <v>       2.99883426       0.00000000       2.99883426 </v>
    <v>       2.99883426       2.99883426       0.00000000 </v>
   </varray>
   <i name="volume">     53.93707444 </i>
   <varray name="rec_basis" >
    <v>      -0.16673146       0.16673146       0.16673146 </v>
    <v>       0.16673146      -0.16673146       0.16673146 </v>
    <v>       0.16673146       0.16673146      -0.16673146 </v>
   </varray>
  </crystal>
  <varray name="positions" >
   <v>       0.75000000       0.75000000       0.75000000 </v>
   <v>       0.25000000       0.25000000       0.25000000 </v>
   <v>       0.00000000       0.00000000       0.00000000 </v>
  </varray>
 </structure>
 <calculation>
  <scstep>
   <time name="dav">    0.89    0.91</time>
   <time name="total">    1.03    1.16</time>
   <energy>
    <i name="alphaZ">    126.30928903 </i>
    <i name="ewald">  -1657.99745343 </i>
    <i name="hartreedc">   -292.49239990 </i>
    <i name="XCdc">    -17.40360532 </i>
    <i name="pawpsdc">   1514.36848356 </i>
    <i name="pawaedc">  -1421.27055995 </i>
    <i name="eentropy">     -0.00009596 </i>
    <i name="bandstr">    155.20109556 </i>
    <i name="atom">   1741.10451121 </i>
    <i name="e_fr_energy">    147.81926478 </i>
    <i name="e_wo_entrp">    147.81936074 </i>
    <i name="e_0_energy">    147.81931276 </i>
   </energy>
  </scstep>
  <scstep>
   <time name="dav">    1.07    1.10</time>
   <time name="total">    1.07    1.10</time>
   <energy>
    <i name="e_fr_energy">    -19.48930043 </i>
    <i name="e_wo_entrp">    -19.48917892 </i>
    <i name="e_0_energy">    -19.48923968 </i>
   </energy>
  </scstep>
  <scstep>
   <time name="dav">    1.12    1.15</time>
   <time name="total">    1.13    1.15</time>
   <energy>
    <i name="e_fr_energy">    -23.73658688 </i>
    <i name="e_wo_entrp">    -23.73639373 </i>
    <i name="e_0_energy">    -23.73649030 </i>
   </energy>
  </scstep>
  <scstep>
   <time name="dav">    1.07    1.09</time>
   <time name="total">    1.08    1.09</time>
   <energy>
    <i name="e_fr_energy">    -23.79550865 </i>
    <i name="e_wo_entrp">    -23.79529369 </i>
    <i name="e_0_energy">    -23.79540117 </i>
   </energy>
  </scstep>
  <scstep>
   <time name="dav">    1.13    1.15</time>
   <time name="total">    1.42    1.44</time>
   <energy>
    <i name="e_fr_energy">    -23.79676578 </i>
    <i name="e_wo_entrp">    -23.79655013 </i>
    <i name="e_0_energy">    -23.79665795 </i>
   </energy>
  </scstep>
  <scstep>
   <time name="dav">    1.04    1.04</time>
   <time name="total">    1.40    1.44</time>
   <energy>
    <i name="e_fr_energy">    -23.25777305 </i>
    <i name="e_wo_entrp">    -23.25761291 </i>
    <i name="e_0_energy">    -23.25769298 </i>
   </energy>
  </scstep>
  <scstep>
   <time name="dav">    1.10    1.10</time>
   <time name="total">    1.39    1.42</time>
   <energy>
    <i name="e_fr_energy">    -23.11668437 </i>
    <i name="e_wo_entrp">    -23.11640400 </i>
    <i name="e_0_energy">    -23.11654418 </i>
   </energy>
  </scstep>
  <scstep>
   <time name="dav">    1.03    1.03</time>
   <time name="total">    1.35    1.37</time>
   <energy>
    <i name="e_fr_energy">    -23.08893409 </i>
    <i name="e_wo_entrp">    -23.08877490 </i>
    <i name="e_0_energy">    -23.08885450 </i>
   </energy>
  </scstep>
  <scstep>
   <time name="dav">    1.04    1.04</time>
   <time name="total">    1.34    1.37</time>
   <energy>
    <i name="e_fr_energy">    -23.08661910 </i>
    <i name="e_wo_entrp">    -23.08645042 </i>
    <i name="e_0_energy">    -23.08653476 </i>
   </energy>
  </scstep>
  <scstep>
   <time name="dav">    1.04    1.04</time>
   <time name="total">    1.34    1.36</time>
   <energy>
    <i name="e_fr_energy">    -23.08647418 </i>
    <i name="e_wo_entrp">    -23.08629707 </i>
    <i name="e_0_energy">    -23.08638562 </i>
   </energy>
  </scstep>
  <scstep>
   <time name="dav">    1.05    1.05</time>
   <time name="total">    1.35    1.38</time>
   <energy>
    <i name="e_fr_energy">    -23.08647673 </i>
    <i name="e_wo_entrp">    -23.08630084 </i>
    <i name="e_0_energy">    -23.08638879 </i>
   </energy>
  </scstep>
  <scstep>
   <time name="dav">    1.10    1.10</time>
   <time name="total">    1.41    1.43</time>
   <energy>
    <i name="e_fr_energy">    -23.08647830 </i>
    <i name="e_wo_entrp">    -23.08630346 </i>
    <i name="e_0_energy">    -23.08639088 </i>
   </energy>
  </scstep>
  <scstep>
   <time name="dav">    1.00    1.00</time>
   <time name="total">    1.31    1.33</time>
   <energy>
    <i name="e_fr_energy">    -23.08647741 </i>
    <i name="e_wo_entrp">    -23.08630229 </i>
    <i name="e_0_energy">    -23.08638985 </i>
   </energy>
  </scstep>
  <scstep>
   <time name="dav">    0.86    0.86</time>
   <time name="total">    1.03    1.04</time>
   <energy>
    <i name="alphaZ">    126.30928903 </i>
    <i name="ewald">  -1657.99745343 </i>
    <i name="hartreedc">   -274.84576890 </i>
    <i name="XCdc">    -17.80986443 </i>
    <i name="pawpsdc">   3530.23377915 </i>
    <i name="pawaedc">  -3443.74553558 </i>
    <i name="eentropy">     -0.00017514 </i>
    <i name="bandstr">    -26.33525933 </i>
    <i name="atom">   1741.10451121 </i>
    <i name="e_fr_energy">    -23.08647742 </i>
    <i name="e_wo_entrp">    -23.08630228 </i>
    <i name="e_0_energy">    -23.08638985 </i>
   </energy>
  </scstep>
  <structure>
   <crystal>
    <varray name="basis" >
     <v>       0.00000000       2.99883426       2.99883426 </v>
     <v>       2.99883426       0.00000000       2.99883426 </v>
     <v>       2.99883426       2.99883426       0.00000000 </v>
    </varray>
    <i name="volume">     53.93707444 </i>
    <varray name="rec_basis" >
     <v>      -0.16673146       0.16673146       0.16673146 </v>
     <v>       0.16673146      -0.16673146       0.16673146 </v>
     <v>       0.16673146       0.16673146      -0.16673146 </v>
    </varray>
   </crystal>
   <varray name="positions" >
    <v>       0.75000000       0.75000000       0.75000000 </v>
    <v>       0.25000000       0.25000000       0.25000000 </v>
    <v>       0.00000000       0.00000000       0.00000000 </v>
   </varray>
  </structure>
  <varray name="forces" >
   <v>       0.00000000      -0.00000000       0.00000000 </v>
   <v>      -0.00000000      -0.00000000      -0.00000000 </v>
   <v>       0.00000000       0.00000000       0.00000000 </v>
  </varray>
  <varray name="stress" >
   <v>     355.43024009       0.00000000      -0.00000000 </v>
   <v>       0.00000000     355.43024009      -0.00000000 </v>
   <v>      -0.00000000      -0.00000000     355.43024009 </v>
  </varray>
  <energy>
   <i name="e_fr_energy">    -23.08647742 </i>
   <i name="e_wo_entrp">    -23.08638985 </i>
   <i name="e_0_energy">     -0.00017514 </i>
  </energy>
  <time name="totalsc">   20.68   21.42</time>
  <eigenvalues>
   <array>
    <dimension dim="1">band</dimension>
    <dimension dim="2">kpoint</dimension>
    <dimension dim="3">spin</dimension>
    <field>eigene</field>
    <field>occ</field>
    <set>
     <set comment="spin 1">
      <set comment="kpoint 1">
       <r>  -20.5217    1.0000 </r>
       <r>  -20.5217    1.0000 </r>
       <r>  -20.5217    1.0000 </r>
       <r>   -2.9104    1.0000 </r>
       <r>    4.1926    1.0000 </r>
       <r>    4.1926    1.0000 </r>
       <r>    4.1926    1.0000 </r>
       <r>    4.9694    1.0000 </r>
       <r>    4.9694    1.0000 </r>
       <r>    9.3029    1.0000 </r>
       <r>    9.3029    1.0000 </r>
       <r>    9.3029    1.0000 </r>
       <r>   11.6558    0.0000 </r>
       <r>   12.5225    0.0000 </r>
       <r>   12.5225    0.0000 </r>
       <r>   12.5225    0.0000 </r>
      </set>
      <set comment="kpoint 2">
       <r>  -20.5243    1.0000 </r>
       <r>  -20.5214    1.0000 </r>
       <r>  -20.5214    1.0000 </r>
       <r>   -2.8268    1.0000 </r>
       <r>    4.1190    1.0000 </r>
       <r>    4.1337    1.0000 </r>
       <r>    4.1337    1.0000 </r>
       <r>    5.0430    1.0000 </r>
       <r>    5.0430    1.0000 </r>
       <r>    8.8085    1.0000 </r>
       <r>    9.2377    1.0000 </r>
       <r>    9.2377    1.0000 </r>
       <r>   11.5850    0.0000 </r>
       <r>   12.3353    0.0000 </r>
       <r>   12.3353    0.0000 </r>
       <r>   13.1542    0.0000 </r>
      </set>
      <set comment="kpoint 3">
       <r>  -20.5314    1.0000 </r>
       <r>  -20.5206    1.0000 </r>
       <r>  -20.5206    1.0000 </r>
       <r>   -2.5851    1.0000 </r>
       <r>    3.9124    1.0000 </r>
       <r>    4.0198    1.0000 </r>
       <r>    4.0198    1.0000 </r>
       <r>    5.1898    1.0000 </r>
       <r>    5.1898    1.0000 </r>
       <r>    7.8497    1.0000 </r>
       <r>    9.0773    1.0000 </r>
       <r>    9.0773    1.0000 </r>
       <r>   11.5793    0.0000 </r>
       <r>   12.1983    0.0000 </r>
       <r>   12.1983    0.0000 </r>
       <r>   13.9098    0.0000 </r>
      </set>
      <set comment="kpoint 4">
       <r>  -20.5413    1.0000 </r>
       <r>  -20.5194    1.0000 </r>
       <r>  -20.5194    1.0000 </r>
       <r>   -2.2131    1.0000 </r>
       <r>    3.6022    1.0000 </r>
       <r>    3.9245    1.0000 </r>
       <r>    3.9245    1.0000 </r>
       <r>    5.3089    1.0000 </r>
       <r>    5.3089    1.0000 </r>
       <r>    6.9206    1.0000 </r>
       <r>    8.9001    1.0000 </r>
       <r>    8.9001    1.0000 </r>
       <r>   11.6151    0.0000 </r>
       <r>   12.2034    0.0000 </r>
       <r>   12.2034    0.0000 </r>
       <r>   14.6784    0.0000 </r>
      </set>
      <set comment="kpoint 5">
       <r>  -20.5515    1.0000 </r>
       <r>  -20.5181    1.0000 </r>
       <r>  -20.5181    1.0000 </r>
       <r>   -1.7629    1.0000 </r>
       <r>    3.2215    1.0000 </r>
       <r>    3.8736    1.0000 </r>
       <r>    3.8736    1.0000 </r>
       <r>    5.3514    1.0000 </r>
       <r>    5.3514    1.0000 </r>
       <r>    6.1960    1.0000 </r>
       <r>    8.7734    1.0000 </r>
       <r>    8.7734    1.0000 </r>
       <r>   11.6543    0.0000 </r>
       <r>   12.3232    0.0000 </r>
       <r>   12.3232    0.0000 </r>
       <r>   14.1769    0.0000 </r>
      </set>
      <set comment="kpoint 6">
       <r>  -20.5597    1.0000 </r>
       <r>  -20.5171    1.0000 </r>
       <r>  -20.5171    1.0000 </r>
       <r>   -1.3223    1.0000 </r>
       <r>    2.8326    1.0000 </r>
       <r>    3.8625    1.0000 </r>
       <r>    3.8625    1.0000 </r>
       <r>    5.3269    1.0000 </r>
       <r>    5.3269    1.0000 </r>
       <r>    5.7304    1.0000 </r>
       <r>    8.7142    1.0000 </r>
       <r>    8.7142    1.0000 </r>
       <r>   11.6833    0.0000 </r>
       <r>   12.5060    0.0000 </r>
       <r>   12.5060    0.0000 </r>
       <r>   13.3185    0.0000 </r>
      </set>
      <set comment="kpoint 7">
       <r>  -20.5643    1.0000 </r>
       <r>  -20.5165    1.0000 </r>
       <r>  -20.5165    1.0000 </r>
       <r>   -1.0296    1.0000 </r>
       <r>    2.5644    1.0000 </r>
       <r>    3.8685    1.0000 </r>
       <r>    3.8685    1.0000 </r>
       <r>    5.2894    1.0000 </r>
       <r>    5.2894    1.0000 </r>
       <r>    5.5119    1.0000 </r>
       <r>    8.6981    1.0000 </r>
       <r>    8.6981    1.0000 </r>
       <r>   11.6975    0.0000 </r>
       <r>   12.6557    0.0000 </r>
       <r>   12.6557    0.0000 </r>
       <r>   12.8462    0.0000 </r>
      </set>
      <set comment="kpoint 8">
       <r>  -20.5242    1.0000 </r>
       <r>  -20.5218    1.0000 </r>
       <r>  -20.5218    1.0000 </r>
       <r>   -2.7994    1.0000 </r>
       <r>    3.9054    1.0000 </r>
       <r>    4.2291    1.0000 </r>
       <r>    4.2291    1.0000 </r>
       <r>    5.0100    1.0000 </r>
       <r>    5.0879    1.0000 </r>
       <r>    8.9028    1.0000 </r>
       <r>    9.0886    1.0000 </r>
       <r>    9.0886    1.0000 </r>
       <r>   11.4841    0.7458 </r>
       <r>   12.4054    0.0000 </r>
       <r>   12.8066    0.0000 </r>
       <r>   12.8539    0.0000 </r>
      </set>
      <set comment="kpoint 9">
       <r>  -20.5295    1.0000 </r>
       <r>  -20.5216    1.0000 </r>
       <r>  -20.5211    1.0000 </r>
       <r>   -2.6119    1.0000 </r>
       <r>    3.6623    1.0000 </r>
       <r>    4.1936    1.0000 </r>
       <r>    4.2103    1.0000 </r>
       <r>    5.1085    1.0000 </r>
       <r>    5.1906    1.0000 </r>
       <r>    8.1549    1.0000 </r>
       <r>    8.8866    1.0000 </r>
       <r>    9.0051    1.0000 </r>
       <r>   11.5084    0.0027 </r>
       <r>   12.2104    0.0000 </r>
       <r>   12.5065    0.0000 </r>
       <r>   13.5057    0.0000 </r>
      </set>
      <set comment="kpoint 10">
       <r>  -20.5383    1.0000 </r>
       <r>  -20.5208    1.0000 </r>
       <r>  -20.5200    1.0000 </r>
       <r>   -2.2862    1.0000 </r>
       <r>    3.4254    1.0000 </r>
       <r>    4.0566    1.0000 </r>
       <r>    4.1387    1.0000 </r>
       <r>    5.2393    1.0000 </r>
       <r>    5.3051    1.0000 </r>
       <r>    7.2391    1.0000 </r>
       <r>    8.7132    1.0000 </r>
       <r>    8.8497    1.0000 </r>
       <r>   11.6830    0.0000 </r>
       <r>   12.1348    0.0000 </r>
       <r>   12.3324    0.0000 </r>
       <r>   14.1997    0.0000 </r>
      </set>
      <set comment="kpoint 11">
       <r>  -20.5481    1.0000 </r>
       <r>  -20.5196    1.0000 </r>
       <r>  -20.5190    1.0000 </r>
       <r>   -1.8663    1.0000 </r>
       <r>    3.1765    1.0000 </r>
       <r>    3.9068    1.0000 </r>
       <r>    4.0706    1.0000 </r>
       <r>    5.3104    1.0000 </r>
       <r>    5.3754    1.0000 </r>
       <r>    6.4541    1.0000 </r>
       <r>    8.6177    1.0000 </r>
       <r>    8.6863    1.0000 </r>
       <r>   11.6776    0.0000 </r>
       <r>   12.3058    0.0000 </r>
       <r>   12.3898    0.0000 </r>
       <r>   14.2787    0.0000 </r>
      </set>
      <set comment="kpoint 12">
       <r>  -20.5567    1.0000 </r>
       <r>  -20.5184    1.0000 </r>
       <r>  -20.5183    1.0000 </r>
       <r>   -1.4270    1.0000 </r>
       <r>    2.8971    1.0000 </r>
       <r>    3.8205    1.0000 </r>
       <r>    4.0144    1.0000 </r>
       <r>    5.3138    1.0000 </r>
       <r>    5.3791    1.0000 </r>
       <r>    5.8994    1.0000 </r>
       <r>    8.5771    1.0000 </r>
       <r>    8.5966    1.0000 </r>
       <r>   11.6450    0.0000 </r>
       <r>   12.4162    0.0000 </r>
       <r>   12.6516    0.0000 </r>
       <r>   13.5320    0.0000 </r>
      </set>
      <set comment="kpoint 13">
       <r>  -20.5623    1.0000 </r>
       <r>  -20.5182    1.0000 </r>
       <r>  -20.5172    1.0000 </r>
       <r>   -1.0857    1.0000 </r>
       <r>    2.6510    1.0000 </r>
       <r>    3.8174    1.0000 </r>
       <r>    3.9533    1.0000 </r>
       <r>    5.3031    1.0000 </r>
       <r>    5.3411    1.0000 </r>
       <r>    5.5908    1.0000 </r>
       <r>    8.5247    1.0000 </r>
       <r>    8.6100    1.0000 </r>
       <r>   11.6771    0.0000 </r>
       <r>   12.4880    0.0000 </r>
       <r>   12.5956    0.0000 </r>
       <r>   13.3007    0.0000 </r>
      </set>
      <set comment="kpoint 14">
       <r>  -20.5637    1.0000 </r>
       <r>  -20.5186    1.0000 </r>
       <r>  -20.5166    1.0000 </r>
       <r>   -0.9844    1.0000 </r>
       <r>    2.5754    1.0000 </r>
       <r>    3.8729    1.0000 </r>
       <r>    3.8759    1.0000 </r>
       <r>    5.3012    1.0000 </r>
       <r>    5.3288    1.0000 </r>
       <r>    5.5159    1.0000 </r>
       <r>    8.4947    1.0000 </r>
       <r>    8.6312    1.0000 </r>
       <r>   11.7424    0.0000 </r>
       <r>   12.2872    0.0000 </r>
       <r>   12.6950    0.0000 </r>
       <r>   13.3345    0.0000 </r>
      </set>
      <set comment="kpoint 15">
       <r>  -20.5607    1.0000 </r>
       <r>  -20.5193    1.0000 </r>
       <r>  -20.5165    1.0000 </r>
       <r>   -1.1786    1.0000 </r>
       <r>    2.7325    1.0000 </r>
       <r>    3.7977    1.0000 </r>
       <r>    3.9587    1.0000 </r>
       <r>    5.2811    1.0000 </r>
       <r>    5.3868    1.0000 </r>
       <r>    5.6735    1.0000 </r>
       <r>    8.4568    1.0000 </r>
       <r>    8.6713    1.0000 </r>
       <r>   11.7228    0.0000 </r>
       <r>   12.4832    0.0000 </r>
       <r>   12.6051    0.0000 </r>
       <r>   13.3268    0.0000 </r>
      </set>
      <set comment="kpoint 16">
       <r>  -20.5539    1.0000 </r>
       <r>  -20.5203    1.0000 </r>
       <r>  -20.5170    1.0000 </r>
       <r>   -1.5682    1.0000 </r>
       <r>    3.0311    1.0000 </r>
       <r>    3.7509    1.0000 </r>
       <r>    4.0595    1.0000 </r>
       <r>    5.2831    1.0000 </r>
       <r>    5.4291    1.0000 </r>
       <r>    6.0628    1.0000 </r>
       <r>    8.4196    1.0000 </r>
       <r>    8.7639    1.0000 </r>
       <r>   11.7467    0.0000 </r>
       <r>   12.3898    0.0000 </r>
       <r>   12.5344    0.0000 </r>
       <r>   13.7768    0.0000 </r>
      </set>
      <set comment="kpoint 17">
       <r>  -20.5447    1.0000 </r>
       <r>  -20.5213    1.0000 </r>
       <r>  -20.5180    1.0000 </r>
       <r>   -2.0120    1.0000 </r>
       <r>    3.3559    1.0000 </r>
       <r>    3.7616    1.0000 </r>
       <r>    4.1664    1.0000 </r>
       <r>    5.2567    1.0000 </r>
       <r>    5.4088    1.0000 </r>
       <r>    6.6954    1.0000 </r>
       <r>    8.4341    1.0000 </r>
       <r>    8.9267    1.0000 </r>
       <r>   11.8522    0.0000 </r>
       <r>   12.1637    0.0000 </r>
       <r>   12.3659    0.0000 </r>
       <r>   14.1696    0.0000 </r>
      </set>
      <set comment="kpoint 18">
       <r>  -20.5352    1.0000 </r>
       <r>  -20.5220    1.0000 </r>
       <r>  -20.5193    1.0000 </r>
       <r>   -2.4074    1.0000 </r>
       <r>    3.6553    1.0000 </r>
       <r>    3.8400    1.0000 </r>
       <r>    4.2543    1.0000 </r>
       <r>    5.1708    1.0000 </r>
       <r>    5.3141    1.0000 </r>
       <r>    7.5253    1.0000 </r>
       <r>    8.5582    1.0000 </r>
       <r>    9.1218    1.0000 </r>
       <r>   11.8571    0.0000 </r>
       <r>   12.0211    0.0000 </r>
       <r>   12.3537    0.0000 </r>
       <r>   13.5586    0.0000 </r>
      </set>
      <set comment="kpoint 19">
       <r>  -20.5278    1.0000 </r>
       <r>  -20.5220    1.0000 </r>
       <r>  -20.5205    1.0000 </r>
       <r>   -2.6910    1.0000 </r>
       <r>    3.9171    1.0000 </r>
       <r>    3.9768    1.0000 </r>
       <r>    4.2604    1.0000 </r>
       <r>    5.0736    1.0000 </r>
       <r>    5.1728    1.0000 </r>
       <r>    8.3542    1.0000 </r>
       <r>    8.8490    1.0000 </r>
       <r>    9.2533    1.0000 </r>
       <r>   11.6591    0.0000 </r>
       <r>   12.0562    0.0000 </r>
       <r>   12.5818    0.0000 </r>
       <r>   13.0095    0.0000 </r>
      </set>
      <set comment="kpoint 20">
       <r>  -20.5313    1.0000 </r>
       <r>  -20.5220    1.0000 </r>
       <r>  -20.5220    1.0000 </r>
       <r>   -2.4849    1.0000 </r>
       <r>    3.3615    1.0000 </r>
       <r>    4.3303    1.0000 </r>
       <r>    4.3303    1.0000 </r>
       <r>    5.1269    1.0000 </r>
       <r>    5.1823    1.0000 </r>
       <r>    8.1584    1.0000 </r>
       <r>    8.6499    1.0000 </r>
       <r>    8.6499    1.0000 </r>
       <r>   11.2184    1.0000 </r>
       <r>   12.5077    0.0000 </r>
       <r>   12.5495    0.0000 </r>
       <r>   13.5880    0.0000 </r>
      </set>
      <set comment="kpoint 21">
       <r>  -20.5377    1.0000 </r>
       <r>  -20.5218    1.0000 </r>
       <r>  -20.5217    1.0000 </r>
       <r>   -2.2207    1.0000 </r>
       <r>    3.1104    1.0000 </r>
       <r>    4.3098    1.0000 </r>
       <r>    4.3445    1.0000 </r>
       <r>    5.2214    1.0000 </r>
       <r>    5.2320    1.0000 </r>
       <r>    7.5257    1.0000 </r>
       <r>    8.4589    1.0000 </r>
       <r>    8.5050    1.0000 </r>
       <r>   11.2844    1.0000 </r>
       <r>   12.3450    0.0000 </r>
       <r>   12.5196    0.0000 </r>
       <r>   14.0399    0.0000 </r>
      </set>
      <set comment="kpoint 22">
       <r>  -20.5460    1.0000 </r>
       <r>  -20.5213    1.0000 </r>
       <r>  -20.5211    1.0000 </r>
       <r>   -1.8581    1.0000 </r>
       <r>    2.9250    1.0000 </r>
       <r>    4.1628    1.0000 </r>
       <r>    4.3002    1.0000 </r>
       <r>    5.3013    1.0000 </r>
       <r>    5.3230    1.0000 </r>
       <r>    6.7796    1.0000 </r>
       <r>    8.3434    1.0000 </r>
       <r>    8.3680    1.0000 </r>
       <r>   11.4451    1.0000 </r>
       <r>   12.2184    0.0000 </r>
       <r>   12.7036    0.0000 </r>
       <r>   14.1701    0.0000 </r>
      </set>
      <set comment="kpoint 23">
       <r>  -20.5536    1.0000 </r>
       <r>  -20.5216    1.0000 </r>
       <r>  -20.5199    1.0000 </r>
       <r>   -1.4624    1.0000 </r>
       <r>    2.8035    1.0000 </r>
       <r>    3.9801    1.0000 </r>
       <r>    4.2258    1.0000 </r>
       <r>    5.3555    1.0000 </r>
       <r>    5.3637    1.0000 </r>
       <r>    6.1607    1.0000 </r>
       <r>    8.1940    1.0000 </r>
       <r>    8.3686    1.0000 </r>
       <r>   11.4613    0.9999 </r>
       <r>   12.2629    0.0000 </r>
       <r>   13.0767    0.0000 </r>
       <r>   13.5868    0.0000 </r>
      </set>
      <set comment="kpoint 24">
       <r>  -20.5589    1.0000 </r>
       <r>  -20.5225    1.0000 </r>
       <r>  -20.5185    1.0000 </r>
       <r>   -1.1282    1.0000 </r>
       <r>    2.7337    1.0000 </r>
       <r>    3.8448    1.0000 </r>
       <r>    4.1161    1.0000 </r>
       <r>    5.3693    1.0000 </r>
       <r>    5.3710    1.0000 </r>
       <r>    5.7671    1.0000 </r>
       <r>    8.0924    1.0000 </r>
       <r>    8.4040    1.0000 </r>
       <r>   11.4781    0.9336 </r>
       <r>   12.4712    0.0000 </r>
       <r>   12.6677    0.0000 </r>
       <r>   13.7101    0.0000 </r>
      </set>
      <set comment="kpoint 25">
       <r>  -20.5608    1.0000 </r>
       <r>  -20.5237    1.0000 </r>
       <r>  -20.5174    1.0000 </r>
       <r>   -0.9657    1.0000 </r>
       <r>    2.7127    1.0000 </r>
       <r>    3.8226    1.0000 </r>
       <r>    3.9736    1.0000 </r>
       <r>    5.3148    1.0000 </r>
       <r>    5.4154    1.0000 </r>
       <r>    5.6460    1.0000 </r>
       <r>    8.0218    1.0000 </r>
       <r>    8.4385    1.0000 </r>
       <r>   11.6230    0.0000 </r>
       <r>   12.1870    0.0000 </r>
       <r>   12.7024    0.0000 </r>
       <r>   13.9869    0.0000 </r>
      </set>
      <set comment="kpoint 26">
       <r>  -20.5592    1.0000 </r>
       <r>  -20.5248    1.0000 </r>
       <r>  -20.5166    1.0000 </r>
       <r>   -1.0435    1.0000 </r>
       <r>    2.7626    1.0000 </r>
       <r>    3.8288    1.0000 </r>
       <r>    3.9295    1.0000 </r>
       <r>    5.2739    1.0000 </r>
       <r>    5.4815    1.0000 </r>
       <r>    5.7513    1.0000 </r>
       <r>    7.9398    1.0000 </r>
       <r>    8.4899    1.0000 </r>
       <r>   11.7601    0.0000 </r>
       <r>   12.2024    0.0000 </r>
       <r>   12.7332    0.0000 </r>
       <r>   13.9166    0.0000 </r>
      </set>
      <set comment="kpoint 27">
       <r>  -20.5544    1.0000 </r>
       <r>  -20.5255    1.0000 </r>
       <r>  -20.5165    1.0000 </r>
       <r>   -1.3290    1.0000 </r>
       <r>    2.8972    1.0000 </r>
       <r>    3.7211    1.0000 </r>
       <r>    4.1152    1.0000 </r>
       <r>    5.2560    1.0000 </r>
       <r>    5.5259    1.0000 </r>
       <r>    6.0679    1.0000 </r>
       <r>    7.8366    1.0000 </r>
       <r>    8.5998    1.0000 </r>
       <r>   11.7962    0.0000 </r>
       <r>   12.5497    0.0000 </r>
       <r>   12.7387    0.0000 </r>
       <r>   13.6982    0.0000 </r>
      </set>
      <set comment="kpoint 28">
       <r>  -20.5477    1.0000 </r>
       <r>  -20.5253    1.0000 </r>
       <r>  -20.5170    1.0000 </r>
       <r>   -1.7173    1.0000 </r>
       <r>    3.1052    1.0000 </r>
       <r>    3.6801    1.0000 </r>
       <r>    4.2922    1.0000 </r>
       <r>    5.2263    1.0000 </r>
       <r>    5.5116    1.0000 </r>
       <r>    6.5776    1.0000 </r>
       <r>    7.7854    1.0000 </r>
       <r>    8.7837    1.0000 </r>
       <r>   11.9811    0.0000 </r>
       <r>   12.2906    0.0000 </r>
       <r>   12.8792    0.0000 </r>
       <r>   13.7108    0.0000 </r>
      </set>
      <set comment="kpoint 29">
       <r>  -20.5408    1.0000 </r>
       <r>  -20.5240    1.0000 </r>
       <r>  -20.5180    1.0000 </r>
       <r>   -2.1023    1.0000 </r>
       <r>    3.3665    1.0000 </r>
       <r>    3.7201    1.0000 </r>
       <r>    4.3645    1.0000 </r>
       <r>    5.1819    1.0000 </r>
       <r>    5.4334    1.0000 </r>
       <r>    7.1390    1.0000 </r>
       <r>    7.9745    1.0000 </r>
       <r>    8.9939    1.0000 </r>
       <r>   12.0759    0.0000 </r>
       <r>   12.2319    0.0000 </r>
       <r>   12.4519    0.0000 </r>
       <r>   13.4644    0.0000 </r>
      </set>
      <set comment="kpoint 30">
       <r>  -20.5414    1.0000 </r>
       <r>  -20.5224    1.0000 </r>
       <r>  -20.5224    1.0000 </r>
       <r>   -2.0283    1.0000 </r>
       <r>    2.8575    1.0000 </r>
       <r>    4.4702    1.0000 </r>
       <r>    4.4702    1.0000 </r>
       <r>    5.1136    1.0000 </r>
       <r>    5.3038    1.0000 </r>
       <r>    7.4579    1.0000 </r>
       <r>    8.2378    1.0000 </r>
       <r>    8.2378    1.0000 </r>
       <r>   10.9933    1.0000 </r>
       <r>   12.1787    0.0000 </r>
       <r>   12.7376    0.0000 </r>
       <r>   14.1986    0.0000 </r>
      </set>
      <set comment="kpoint 31">
       <r>  -20.5476    1.0000 </r>
       <r>  -20.5226    1.0000 </r>
       <r>  -20.5222    1.0000 </r>
       <r>   -1.7434    1.0000 </r>
       <r>    2.7059    1.0000 </r>
       <r>    4.4255    1.0000 </r>
       <r>    4.4978    1.0000 </r>
       <r>    5.1248    1.0000 </r>
       <r>    5.3999    1.0000 </r>
       <r>    6.9763    1.0000 </r>
       <r>    8.0617    1.0000 </r>
       <r>    8.1212    1.0000 </r>
       <r>   11.0414    1.0000 </r>
       <r>   12.0082    0.0000 </r>
       <r>   12.9178    0.0000 </r>
       <r>   14.1955    0.0000 </r>
      </set>
      <set comment="kpoint 32">
       <r>  -20.5534    1.0000 </r>
       <r>  -20.5238    1.0000 </r>
       <r>  -20.5214    1.0000 </r>
       <r>   -1.4230    1.0000 </r>
       <r>    2.6754    1.0000 </r>
       <r>    4.2255    1.0000 </r>
       <r>    4.4478    1.0000 </r>
       <r>    5.2460    1.0000 </r>
       <r>    5.4548    1.0000 </r>
       <r>    6.4060    1.0000 </r>
       <r>    7.8456    1.0000 </r>
       <r>    8.1155    1.0000 </r>
       <r>   11.1486    1.0000 </r>
       <r>   11.9956    0.0000 </r>
       <r>   13.3267    0.0000 </r>
       <r>   13.6586    0.0000 </r>
      </set>
      <set comment="kpoint 33">
       <r>  -20.5571    1.0000 </r>
       <r>  -20.5262    1.0000 </r>
       <r>  -20.5201    1.0000 </r>
       <r>   -1.1411    1.0000 </r>
       <r>    2.7625    1.0000 </r>
       <r>    4.0039    1.0000 </r>
       <r>    4.3253    1.0000 </r>
       <r>    5.3337    1.0000 </r>
       <r>    5.4869    1.0000 </r>
       <r>    5.9640    1.0000 </r>
       <r>    7.6405    1.0000 </r>
       <r>    8.1566    1.0000 </r>
       <r>   11.1947    1.0000 </r>
       <r>   12.2174    0.0000 </r>
       <r>   12.9364    0.0000 </r>
       <r>   13.8364    0.0000 </r>
      </set>
      <set comment="kpoint 34">
       <r>  -20.5578    1.0000 </r>
       <r>  -20.5292    1.0000 </r>
       <r>  -20.5187    1.0000 </r>
       <r>   -0.9700    1.0000 </r>
       <r>    2.9078    1.0000 </r>
       <r>    3.8298    1.0000 </r>
       <r>    4.1447    1.0000 </r>
       <r>    5.2679    1.0000 </r>
       <r>    5.5356    1.0000 </r>
       <r>    5.8512    1.0000 </r>
       <r>    7.4780    1.0000 </r>
       <r>    8.1944    1.0000 </r>
       <r>   11.3027    1.0000 </r>
       <r>   12.3906    0.0000 </r>
       <r>   12.6102    0.0000 </r>
       <r>   13.9458    0.0000 </r>
      </set>
      <set comment="kpoint 35">
       <r>  -20.5560    1.0000 </r>
       <r>  -20.5317    1.0000 </r>
       <r>  -20.5175    1.0000 </r>
       <r>   -0.9570    1.0000 </r>
       <r>    2.9696    1.0000 </r>
       <r>    3.8116    1.0000 </r>
       <r>    3.9492    1.0000 </r>
       <r>    5.2100    1.0000 </r>
       <r>    5.5922    1.0000 </r>
       <r>    5.9731    1.0000 </r>
       <r>    7.3479    1.0000 </r>
       <r>    8.2485    1.0000 </r>
       <r>   11.5349    0.0000 </r>
       <r>   12.1509    0.0000 </r>
       <r>   12.8596    0.0000 </r>
       <r>   13.8082    0.0000 </r>
      </set>
      <set comment="kpoint 36">
       <r>  -20.5530    1.0000 </r>
       <r>  -20.5322    1.0000 </r>
       <r>  -20.5167    1.0000 </r>
       <r>   -1.1102    1.0000 </r>
       <r>    2.9304    1.0000 </r>
       <r>    3.7861    1.0000 </r>
       <r>    3.9834    1.0000 </r>
       <r>    5.2333    1.0000 </r>
       <r>    5.6186    1.0000 </r>
       <r>    6.2111    1.0000 </r>
       <r>    7.2503    1.0000 </r>
       <r>    8.3666    1.0000 </r>
       <r>   11.7083    0.0000 </r>
       <r>   12.4650    0.0000 </r>
       <r>   12.7624    0.0000 </r>
       <r>   13.7006    0.0000 </r>
      </set>
      <set comment="kpoint 37">
       <r>  -20.5502    1.0000 </r>
       <r>  -20.5297    1.0000 </r>
       <r>  -20.5165    1.0000 </r>
       <r>   -1.3895    1.0000 </r>
       <r>    2.9542    1.0000 </r>
       <r>    3.6900    1.0000 </r>
       <r>    4.1942    1.0000 </r>
       <r>    5.2427    1.0000 </r>
       <r>    5.5897    1.0000 </r>
       <r>    6.4639    1.0000 </r>
       <r>    7.3282    1.0000 </r>
       <r>    8.5622    1.0000 </r>
       <r>   11.8497    0.0000 </r>
       <r>   12.5241    0.0000 </r>
       <r>   13.1301    0.0000 </r>
       <r>   13.7074    0.0000 </r>
      </set>
      <set comment="kpoint 38">
       <r>  -20.5523    1.0000 </r>
       <r>  -20.5227    1.0000 </r>
       <r>  -20.5227    1.0000 </r>
       <r>   -1.5506    1.0000 </r>
       <r>    2.5973    1.0000 </r>
       <r>    4.6099    1.0000 </r>
       <r>    4.6099    1.0000 </r>
       <r>    4.9286    1.0000 </r>
       <r>    5.5107    1.0000 </r>
       <r>    6.7934    1.0000 </r>
       <r>    7.9612    1.0000 </r>
       <r>    7.9612    1.0000 </r>
       <r>   10.8131    1.0000 </r>
       <r>   11.7704    0.0000 </r>
       <r>   13.0441    0.0000 </r>
       <r>   14.1221    0.0000 </r>
      </set>
      <set comment="kpoint 39">
       <r>  -20.5571    1.0000 </r>
       <r>  -20.5236    1.0000 </r>
       <r>  -20.5225    1.0000 </r>
       <r>   -1.3268    1.0000 </r>
       <r>    2.6303    1.0000 </r>
       <r>    4.4740    1.0000 </r>
       <r>    4.6232    1.0000 </r>
       <r>    5.0207    1.0000 </r>
       <r>    5.5898    1.0000 </r>
       <r>    6.3769    1.0000 </r>
       <r>    7.7824    1.0000 </r>
       <r>    7.9208    1.0000 </r>
       <r>   10.8336    1.0000 </r>
       <r>   11.6644    0.0000 </r>
       <r>   13.3055    0.0000 </r>
       <r>   13.7515    0.0000 </r>
      </set>
      <set comment="kpoint 40">
       <r>  -20.5595    1.0000 </r>
       <r>  -20.5263    1.0000 </r>
       <r>  -20.5216    1.0000 </r>
       <r>   -1.1249    1.0000 </r>
       <r>    2.8016    1.0000 </r>
       <r>    4.2281    1.0000 </r>
       <r>    4.5347    1.0000 </r>
       <r>    5.2060    1.0000 </r>
       <r>    5.6294    1.0000 </r>
       <r>    5.9642    1.0000 </r>
       <r>    7.4795    1.0000 </r>
       <r>    7.9479    1.0000 </r>
       <r>   10.9106    1.0000 </r>
       <r>   11.8245    0.0000 </r>
       <r>   13.1274    0.0000 </r>
       <r>   13.7224    0.0000 </r>
      </set>
      <set comment="kpoint 41">
       <r>  -20.5586    1.0000 </r>
       <r>  -20.5306    1.0000 </r>
       <r>  -20.5203    1.0000 </r>
       <r>   -0.9853    1.0000 </r>
       <r>    3.0529    1.0000 </r>
       <r>    3.9922    1.0000 </r>
       <r>    4.3573    1.0000 </r>
       <r>    5.1753    1.0000 </r>
       <r>    5.6647    1.0000 </r>
       <r>    5.8941    1.0000 </r>
       <r>    7.1579    1.0000 </r>
       <r>    7.9801    1.0000 </r>
       <r>   11.0109    1.0000 </r>
       <r>   12.2898    0.0000 </r>
       <r>   12.6169    0.0000 </r>
       <r>   13.5335    0.0000 </r>
      </set>
      <set comment="kpoint 42">
       <r>  -20.5550    1.0000 </r>
       <r>  -20.5353    1.0000 </r>
       <r>  -20.5188    1.0000 </r>
       <r>   -0.9292    1.0000 </r>
       <r>    3.2439    1.0000 </r>
       <r>    3.7648    1.0000 </r>
       <r>    4.1385    1.0000 </r>
       <r>    5.0866    1.0000 </r>
       <r>    5.6917    1.0000 </r>
       <r>    6.1556    1.0000 </r>
       <r>    6.8824    1.0000 </r>
       <r>    8.0337    1.0000 </r>
       <r>   11.2100    1.0000 </r>
       <r>   12.2753    0.0000 </r>
       <r>   12.9003    0.0000 </r>
       <r>   13.4617    0.0000 </r>
      </set>
      <set comment="kpoint 43">
       <r>  -20.5520    1.0000 </r>
       <r>  -20.5369    1.0000 </r>
       <r>  -20.5175    1.0000 </r>
       <r>   -0.9692    1.0000 </r>
       <r>    3.1253    1.0000 </r>
       <r>    3.7942    1.0000 </r>
       <r>    3.9340    1.0000 </r>
       <r>    5.1497    1.0000 </r>
       <r>    5.6798    1.0000 </r>
       <r>    6.3614    1.0000 </r>
       <r>    6.8226    1.0000 </r>
       <r>    8.1596    1.0000 </r>
       <r>   11.4932    0.2630 </r>
       <r>   12.2105    0.0000 </r>
       <r>   12.9618    0.0000 </r>
       <r>   13.4974    0.0000 </r>
      </set>
      <set comment="kpoint 44">
       <r>  -20.5616    1.0000 </r>
       <r>  -20.5230    1.0000 </r>
       <r>  -20.5230    1.0000 </r>
       <r>   -1.2058    1.0000 </r>
       <r>    2.7117    1.0000 </r>
       <r>    4.7124    1.0000 </r>
       <r>    4.7124    1.0000 </r>
       <r>    4.7544    1.0000 </r>
       <r>    5.7014    1.0000 </r>
       <r>    6.0551    1.0000 </r>
       <r>    7.8355    1.0000 </r>
       <r>    7.8355    1.0000 </r>
       <r>   10.6774    1.0000 </r>
       <r>   11.4162    1.0000 </r>
       <r>   13.2330    0.0000 </r>
       <r>   13.6472    0.0000 </r>
      </set>
      <set comment="kpoint 45">
       <r>  -20.5640    1.0000 </r>
       <r>  -20.5242    1.0000 </r>
       <r>  -20.5227    1.0000 </r>
       <r>   -1.0920    1.0000 </r>
       <r>    2.9040    1.0000 </r>
       <r>    4.4758    1.0000 </r>
       <r>    4.6943    1.0000 </r>
       <r>    4.9900    1.0000 </r>
       <r>    5.6707    1.0000 </r>
       <r>    5.7539    1.0000 </r>
       <r>    7.6703    1.0000 </r>
       <r>    7.8338    1.0000 </r>
       <r>   10.6935    1.0000 </r>
       <r>   11.4196    1.0000 </r>
       <r>   13.1853    0.0000 </r>
       <r>   13.4496    0.0000 </r>
      </set>
      <set comment="kpoint 46">
       <r>  -20.5629    1.0000 </r>
       <r>  -20.5277    1.0000 </r>
       <r>  -20.5218    1.0000 </r>
       <r>   -1.0043    1.0000 </r>
       <r>    3.1283    1.0000 </r>
       <r>    4.2663    1.0000 </r>
       <r>    4.5654    1.0000 </r>
       <r>    5.0593    1.0000 </r>
       <r>    5.5801    1.0000 </r>
       <r>    5.7684    1.0000 </r>
       <r>    7.3180    1.0000 </r>
       <r>    7.8526    1.0000 </r>
       <r>   10.7861    1.0000 </r>
       <r>   11.7657    0.0000 </r>
       <r>   12.8363    0.0000 </r>
       <r>   13.3071    0.0000 </r>
      </set>
      <set comment="kpoint 47">
       <r>  -20.5589    1.0000 </r>
       <r>  -20.5325    1.0000 </r>
       <r>  -20.5204    1.0000 </r>
       <r>   -0.9486    1.0000 </r>
       <r>    3.2820    1.0000 </r>
       <r>    3.9981    1.0000 </r>
       <r>    4.3609    1.0000 </r>
       <r>    4.9892    1.0000 </r>
       <r>    5.7524    1.0000 </r>
       <r>    5.9178    1.0000 </r>
       <r>    6.9562    1.0000 </r>
       <r>    7.9024    1.0000 </r>
       <r>   10.9510    1.0000 </r>
       <r>   12.3950    0.0000 </r>
       <r>   12.5029    0.0000 </r>
       <r>   13.2213    0.0000 </r>
      </set>
      <set comment="kpoint 48">
       <r>  -20.5670    1.0000 </r>
       <r>  -20.5232    1.0000 </r>
       <r>  -20.5232    1.0000 </r>
       <r>   -1.0567    1.0000 </r>
       <r>    3.0455    1.0000 </r>
       <r>    4.7404    1.0000 </r>
       <r>    4.7624    1.0000 </r>
       <r>    4.7624    1.0000 </r>
       <r>    5.3321    1.0000 </r>
       <r>    5.8187    1.0000 </r>
       <r>    7.8071    1.0000 </r>
       <r>    7.8071    1.0000 </r>
       <r>   10.6033    1.0000 </r>
       <r>   11.2079    1.0000 </r>
       <r>   13.1005    0.0000 </r>
       <r>   13.3037    0.0000 </r>
      </set>
      <set comment="kpoint 49">
       <r>  -20.5665    1.0000 </r>
       <r>  -20.5245    1.0000 </r>
       <r>  -20.5228    1.0000 </r>
       <r>   -1.0272    1.0000 </r>
       <r>    3.1367    1.0000 </r>
       <r>    4.5344    1.0000 </r>
       <r>    4.7155    1.0000 </r>
       <r>    4.9813    1.0000 </r>
       <r>    5.2326    1.0000 </r>
       <r>    5.8212    1.0000 </r>
       <r>    7.6488    1.0000 </r>
       <r>    7.8120    1.0000 </r>
       <r>   10.6452    1.0000 </r>
       <r>   11.3333    1.0000 </r>
       <r>   13.0277    0.0000 </r>
       <r>   13.2556    0.0000 </r>
      </set>
      <set comment="kpoint 50">
       <r>  -20.5347    1.0000 </r>
       <r>  -20.5226    1.0000 </r>
       <r>  -20.5201    1.0000 </r>
       <r>   -2.3843    1.0000 </r>
       <r>    3.3983    1.0000 </r>
       <r>    4.0721    1.0000 </r>
       <r>    4.3433    1.0000 </r>
       <r>    5.1539    1.0000 </r>
       <r>    5.2867    1.0000 </r>
       <r>    7.6967    1.0000 </r>
       <r>    8.4015    1.0000 </r>
       <r>    8.9575    1.0000 </r>
       <r>   11.5861    0.0000 </r>
       <r>   12.2680    0.0000 </r>
       <r>   12.4550    0.0000 </r>
       <r>   13.4994    0.0000 </r>
      </set>
      <set comment="kpoint 51">
       <r>  -20.5424    1.0000 </r>
       <r>  -20.5230    1.0000 </r>
       <r>  -20.5188    1.0000 </r>
       <r>   -2.0383    1.0000 </r>
       <r>    3.1679    1.0000 </r>
       <r>    3.9378    1.0000 </r>
       <r>    4.3308    1.0000 </r>
       <r>    5.2209    1.0000 </r>
       <r>    5.3934    1.0000 </r>
       <r>    6.9977    1.0000 </r>
       <r>    8.1399    1.0000 </r>
       <r>    8.8177    1.0000 </r>
       <r>   11.7509    0.0000 </r>
       <r>   12.2641    0.0000 </r>
       <r>   12.4931    0.0000 </r>
       <r>   13.8687    0.0000 </r>
      </set>
      <set comment="kpoint 52">
       <r>  -20.5507    1.0000 </r>
       <r>  -20.5229    1.0000 </r>
       <r>  -20.5179    1.0000 </r>
       <r>   -1.6293    1.0000 </r>
       <r>    2.9679    1.0000 </r>
       <r>    3.8397    1.0000 </r>
       <r>    4.2227    1.0000 </r>
       <r>    5.2715    1.0000 </r>
       <r>    5.4486    1.0000 </r>
       <r>    6.3321    1.0000 </r>
       <r>    8.0920    1.0000 </r>
       <r>    8.6531    1.0000 </r>
       <r>   11.7208    0.0000 </r>
       <r>   12.2732    0.0000 </r>
       <r>   12.8397    0.0000 </r>
       <r>   13.8344    0.0000 </r>
      </set>
      <set comment="kpoint 53">
       <r>  -20.5575    1.0000 </r>
       <r>  -20.5225    1.0000 </r>
       <r>  -20.5173    1.0000 </r>
       <r>   -1.2443    1.0000 </r>
       <r>    2.7960    1.0000 </r>
       <r>    3.7992    1.0000 </r>
       <r>    4.0858    1.0000 </r>
       <r>    5.2916    1.0000 </r>
       <r>    5.4405    1.0000 </r>
       <r>    5.8622    1.0000 </r>
       <r>    8.1231    1.0000 </r>
       <r>    8.5465    1.0000 </r>
       <r>   11.6591    0.0000 </r>
       <r>   12.4075    0.0000 </r>
       <r>   12.7786    0.0000 </r>
       <r>   13.5739    0.0000 </r>
      </set>
      <set comment="kpoint 54">
       <r>  -20.5612    1.0000 </r>
       <r>  -20.5222    1.0000 </r>
       <r>  -20.5171    1.0000 </r>
       <r>   -1.0006    1.0000 </r>
       <r>    2.6830    1.0000 </r>
       <r>    3.8111    1.0000 </r>
       <r>    3.9750    1.0000 </r>
       <r>    5.3147    1.0000 </r>
       <r>    5.3890    1.0000 </r>
       <r>    5.6319    1.0000 </r>
       <r>    8.1524    1.0000 </r>
       <r>    8.5072    1.0000 </r>
       <r>   11.7199    0.0000 </r>
       <r>   12.1727    0.0000 </r>
       <r>   12.6993    0.0000 </r>
       <r>   13.7948    0.0000 </r>
      </set>
      <set comment="kpoint 55">
       <r>  -20.5434    1.0000 </r>
       <r>  -20.5233    1.0000 </r>
       <r>  -20.5206    1.0000 </r>
       <r>   -1.9420    1.0000 </r>
       <r>    2.8960    1.0000 </r>
       <r>    4.2300    1.0000 </r>
       <r>    4.4478    1.0000 </r>
       <r>    5.2058    1.0000 </r>
       <r>    5.3410    1.0000 </r>
       <r>    7.1467    1.0000 </r>
       <r>    8.0094    1.0000 </r>
       <r>    8.4908    1.0000 </r>
       <r>   11.3167    1.0000 </r>
       <r>   12.1874    0.0000 </r>
       <r>   12.7333    0.0000 </r>
       <r>   14.0685    0.0000 </r>
      </set>
      <set comment="kpoint 56">
       <r>  -20.5497    1.0000 </r>
       <r>  -20.5246    1.0000 </r>
       <r>  -20.5197    1.0000 </r>
       <r>   -1.5975    1.0000 </r>
       <r>    2.7776    1.0000 </r>
       <r>    4.0937    1.0000 </r>
       <r>    4.4061    1.0000 </r>
       <r>    5.2692    1.0000 </r>
       <r>    5.4155    1.0000 </r>
       <r>    6.6083    1.0000 </r>
       <r>    7.7868    1.0000 </r>
       <r>    8.3955    1.0000 </r>
       <r>   11.4307    1.0000 </r>
       <r>   12.0915    0.0000 </r>
       <r>   13.1285    0.0000 </r>
       <r>   13.8958    0.0000 </r>
      </set>
      <set comment="kpoint 57">
       <r>  -20.5550    1.0000 </r>
       <r>  -20.5258    1.0000 </r>
       <r>  -20.5191    1.0000 </r>
       <r>   -1.2610    1.0000 </r>
       <r>    2.7614    1.0000 </r>
       <r>    3.9397    1.0000 </r>
       <r>    4.2907    1.0000 </r>
       <r>    5.3334    1.0000 </r>
       <r>    5.4415    1.0000 </r>
       <r>    6.1082    1.0000 </r>
       <r>    7.7063    1.0000 </r>
       <r>    8.3206    1.0000 </r>
       <r>   11.4432    1.0000 </r>
       <r>   12.1886    0.0000 </r>
       <r>   13.0966    0.0000 </r>
       <r>   13.6872    0.0000 </r>
      </set>
      <set comment="kpoint 58">
       <r>  -20.5579    1.0000 </r>
       <r>  -20.5271    1.0000 </r>
       <r>  -20.5185    1.0000 </r>
       <r>   -1.0205    1.0000 </r>
       <r>    2.8202    1.0000 </r>
       <r>    3.8015    1.0000 </r>
       <r>    4.1644    1.0000 </r>
       <r>    5.3328    1.0000 </r>
       <r>    5.4366    1.0000 </r>
       <r>    5.8405    1.0000 </r>
       <r>    7.6483    1.0000 </r>
       <r>    8.3038    1.0000 </r>
       <r>   11.4863    0.6333 </r>
       <r>   12.2796    0.0000 </r>
       <r>   12.6357    0.0000 </r>
       <r>   14.0107    0.0000 </r>
      </set>
      <set comment="kpoint 59">
       <r>  -20.5582    1.0000 </r>
       <r>  -20.5283    1.0000 </r>
       <r>  -20.5178    1.0000 </r>
       <r>   -0.9501    1.0000 </r>
       <r>    2.8679    1.0000 </r>
       <r>    3.7495    1.0000 </r>
       <r>    4.0660    1.0000 </r>
       <r>    5.2752    1.0000 </r>
       <r>    5.4740    1.0000 </r>
       <r>    5.8243    1.0000 </r>
       <r>    7.5935    1.0000 </r>
       <r>    8.3181    1.0000 </r>
       <r>   11.6602    0.0000 </r>
       <r>   12.0164    0.0000 </r>
       <r>   12.7438    0.0000 </r>
       <r>   14.0458    0.0000 </r>
      </set>
      <set comment="kpoint 60">
       <r>  -20.5559    1.0000 </r>
       <r>  -20.5289    1.0000 </r>
       <r>  -20.5173    1.0000 </r>
       <r>   -1.0746    1.0000 </r>
       <r>    2.8563    1.0000 </r>
       <r>    3.7818    1.0000 </r>
       <r>    4.0722    1.0000 </r>
       <r>    5.2693    1.0000 </r>
       <r>    5.5295    1.0000 </r>
       <r>    5.9806    1.0000 </r>
       <r>    7.5327    1.0000 </r>
       <r>    8.3717    1.0000 </r>
       <r>   11.7136    0.0000 </r>
       <r>   12.2166    0.0000 </r>
       <r>   12.7383    0.0000 </r>
       <r>   13.9410    0.0000 </r>
      </set>
      <set comment="kpoint 61">
       <r>  -20.5519    1.0000 </r>
       <r>  -20.5282    1.0000 </r>
       <r>  -20.5172    1.0000 </r>
       <r>   -1.3544    1.0000 </r>
       <r>    2.8712    1.0000 </r>
       <r>    3.7918    1.0000 </r>
       <r>    4.2232    1.0000 </r>
       <r>    5.2663    1.0000 </r>
       <r>    5.5384    1.0000 </r>
       <r>    6.3259    1.0000 </r>
       <r>    7.4895    1.0000 </r>
       <r>    8.4961    1.0000 </r>
       <r>   11.7785    0.0000 </r>
       <r>   12.2745    0.0000 </r>
       <r>   13.1568    0.0000 </r>
       <r>   13.7290    0.0000 </r>
      </set>
      <set comment="kpoint 62">
       <r>  -20.5471    1.0000 </r>
       <r>  -20.5260    1.0000 </r>
       <r>  -20.5178    1.0000 </r>
       <r>   -1.7052    1.0000 </r>
       <r>    2.9752    1.0000 </r>
       <r>    3.8334    1.0000 </r>
       <r>    4.3595    1.0000 </r>
       <r>    5.2323    1.0000 </r>
       <r>    5.4881    1.0000 </r>
       <r>    6.7307    1.0000 </r>
       <r>    7.6273    1.0000 </r>
       <r>    8.6764    1.0000 </r>
       <r>   11.8653    0.0000 </r>
       <r>   12.1685    0.0000 </r>
       <r>   13.0756    0.0000 </r>
       <r>   13.7201    0.0000 </r>
      </set>
      <set comment="kpoint 63">
       <r>  -20.5526    1.0000 </r>
       <r>  -20.5242    1.0000 </r>
       <r>  -20.5215    1.0000 </r>
       <r>   -1.4856    1.0000 </r>
       <r>    2.6414    1.0000 </r>
       <r>    4.3373    1.0000 </r>
       <r>    4.5589    1.0000 </r>
       <r>    5.1416    1.0000 </r>
       <r>    5.4791    1.0000 </r>
       <r>    6.6375    1.0000 </r>
       <r>    7.7322    1.0000 </r>
       <r>    8.1167    1.0000 </r>
       <r>   11.0474    1.0000 </r>
       <r>   11.8660    0.0000 </r>
       <r>   13.2153    0.0000 </r>
       <r>   13.9373    0.0000 </r>
      </set>
      <set comment="kpoint 64">
       <r>  -20.5562    1.0000 </r>
       <r>  -20.5264    1.0000 </r>
       <r>  -20.5210    1.0000 </r>
       <r>   -1.2285    1.0000 </r>
       <r>    2.7197    1.0000 </r>
       <r>    4.1390    1.0000 </r>
       <r>    4.5179    1.0000 </r>
       <r>    5.2678    1.0000 </r>
       <r>    5.5048    1.0000 </r>
       <r>    6.2267    1.0000 </r>
       <r>    7.4605    1.0000 </r>
       <r>    8.0989    1.0000 </r>
       <r>   11.1287    1.0000 </r>
       <r>   11.8890    0.0000 </r>
       <r>   13.2648    0.0000 </r>
       <r>   13.7186    0.0000 </r>
      </set>
      <set comment="kpoint 65">
       <r>  -20.5572    1.0000 </r>
       <r>  -20.5297    1.0000 </r>
       <r>  -20.5202    1.0000 </r>
       <r>   -1.0322    1.0000 </r>
       <r>    2.9165    1.0000 </r>
       <r>    3.9217    1.0000 </r>
       <r>    4.4049    1.0000 </r>
       <r>    5.3040    1.0000 </r>
       <r>    5.5167    1.0000 </r>
       <r>    5.9687    1.0000 </r>
       <r>    7.2252    1.0000 </r>
       <r>    8.1093    1.0000 </r>
       <r>   11.1959    1.0000 </r>
       <r>   12.1700    0.0000 </r>
       <r>   12.6631    0.0000 </r>
       <r>   13.7631    0.0000 </r>
      </set>
      <set comment="kpoint 66">
       <r>  -20.5558    1.0000 </r>
       <r>  -20.5332    1.0000 </r>
       <r>  -20.5192    1.0000 </r>
       <r>   -0.9375    1.0000 </r>
       <r>    3.1225    1.0000 </r>
       <r>    3.7219    1.0000 </r>
       <r>    4.2535    1.0000 </r>
       <r>    5.1814    1.0000 </r>
       <r>    5.5829    1.0000 </r>
       <r>    6.0186    1.0000 </r>
       <r>    7.0380    1.0000 </r>
       <r>    8.1313    1.0000 </r>
       <r>   11.3464    1.0000 </r>
       <r>   12.2079    0.0000 </r>
       <r>   12.6275    0.0000 </r>
       <r>   13.6211    0.0000 </r>
      </set>
      <set comment="kpoint 67">
       <r>  -20.5533    1.0000 </r>
       <r>  -20.5352    1.0000 </r>
       <r>  -20.5181    1.0000 </r>
       <r>   -0.9636    1.0000 </r>
       <r>    3.0973    1.0000 </r>
       <r>    3.7024    1.0000 </r>
       <r>    4.1195    1.0000 </r>
       <r>    5.1782    1.0000 </r>
       <r>    5.6215    1.0000 </r>
       <r>    6.2044    1.0000 </r>
       <r>    6.9366    1.0000 </r>
       <r>    8.1848    1.0000 </r>
       <r>   11.5885    0.0000 </r>
       <r>   12.0834    0.0000 </r>
       <r>   12.7535    0.0000 </r>
       <r>   13.6363    0.0000 </r>
      </set>
      <set comment="kpoint 68">
       <r>  -20.5521    1.0000 </r>
       <r>  -20.5333    1.0000 </r>
       <r>  -20.5174    1.0000 </r>
       <r>   -1.1119    1.0000 </r>
       <r>    2.9291    1.0000 </r>
       <r>    3.7796    1.0000 </r>
       <r>    4.1134    1.0000 </r>
       <r>    5.2454    1.0000 </r>
       <r>    5.6030    1.0000 </r>
       <r>    6.3418    1.0000 </r>
       <r>    7.0486    1.0000 </r>
       <r>    8.3097    1.0000 </r>
       <r>   11.7219    0.0000 </r>
       <r>   12.2924    0.0000 </r>
       <r>   12.7652    0.0000 </r>
       <r>   13.6660    0.0000 </r>
      </set>
      <set comment="kpoint 69">
       <r>  -20.5604    1.0000 </r>
       <r>  -20.5249    1.0000 </r>
       <r>  -20.5223    1.0000 </r>
       <r>   -1.1642    1.0000 </r>
       <r>    2.7615    1.0000 </r>
       <r>    4.3387    1.0000 </r>
       <r>    4.6758    1.0000 </r>
       <r>    5.0856    1.0000 </r>
       <r>    5.6444    1.0000 </r>
       <r>    6.0223    1.0000 </r>
       <r>    7.5475    1.0000 </r>
       <r>    7.9388    1.0000 </r>
       <r>   10.8352    1.0000 </r>
       <r>   11.5919    0.0000 </r>
       <r>   13.2889    0.0000 </r>
       <r>   13.6430    0.0000 </r>
      </set>
      <set comment="kpoint 70">
       <r>  -20.5607    1.0000 </r>
       <r>  -20.5280    1.0000 </r>
       <r>  -20.5218    1.0000 </r>
       <r>   -1.0334    1.0000 </r>
       <r>    2.9978    1.0000 </r>
       <r>    4.1311    1.0000 </r>
       <r>    4.6244    1.0000 </r>
       <r>    5.2049    1.0000 </r>
       <r>    5.5968    1.0000 </r>
       <r>    5.8055    1.0000 </r>
       <r>    7.1996    1.0000 </r>
       <r>    7.9822    1.0000 </r>
       <r>   10.9242    1.0000 </r>
       <r>   11.7647    0.0000 </r>
       <r>   12.8659    0.0000 </r>
       <r>   13.4334    0.0000 </r>
      </set>
      <set comment="kpoint 71">
       <r>  -20.5580    1.0000 </r>
       <r>  -20.5326    1.0000 </r>
       <r>  -20.5208    1.0000 </r>
       <r>   -0.9515    1.0000 </r>
       <r>    3.2444    1.0000 </r>
       <r>    3.9031    1.0000 </r>
       <r>    4.4784    1.0000 </r>
       <r>    5.0748    1.0000 </r>
       <r>    5.6863    1.0000 </r>
       <r>    5.9013    1.0000 </r>
       <r>    6.8527    1.0000 </r>
       <r>    8.0120    1.0000 </r>
       <r>   11.0630    1.0000 </r>
       <r>   12.2050    0.0000 </r>
       <r>   12.5129    0.0000 </r>
       <r>   13.2057    0.0000 </r>
      </set>
      <set comment="kpoint 72">
       <r>  -20.5540    1.0000 </r>
       <r>  -20.5366    1.0000 </r>
       <r>  -20.5194    1.0000 </r>
       <r>   -0.9253    1.0000 </r>
       <r>    3.3585    1.0000 </r>
       <r>    3.6503    1.0000 </r>
       <r>    4.2837    1.0000 </r>
       <r>    5.0610    1.0000 </r>
       <r>    5.6879    1.0000 </r>
       <r>    6.2598    1.0000 </r>
       <r>    6.6023    1.0000 </r>
       <r>    8.0632    1.0000 </r>
       <r>   11.2978    1.0000 </r>
       <r>   12.1743    0.0000 </r>
       <r>   12.7673    0.0000 </r>
       <r>   13.2353    0.0000 </r>
      </set>
      <set comment="kpoint 73">
       <r>  -20.5649    1.0000 </r>
       <r>  -20.5253    1.0000 </r>
       <r>  -20.5228    1.0000 </r>
       <r>   -1.0295    1.0000 </r>
       <r>    3.0891    1.0000 </r>
       <r>    4.3695    1.0000 </r>
       <r>    4.7351    1.0000 </r>
       <r>    5.0748    1.0000 </r>
       <r>    5.3629    1.0000 </r>
       <r>    5.7900    1.0000 </r>
       <r>    7.4496    1.0000 </r>
       <r>    7.9030    1.0000 </r>
       <r>   10.7223    1.0000 </r>
       <r>   11.4393    1.0000 </r>
       <r>   13.0499    0.0000 </r>
       <r>   13.2163    0.0000 </r>
      </set>
      <set comment="kpoint 74">
       <r>  -20.5624    1.0000 </r>
       <r>  -20.5286    1.0000 </r>
       <r>  -20.5221    1.0000 </r>
       <r>   -0.9828    1.0000 </r>
       <r>    3.2165    1.0000 </r>
       <r>    4.1778    1.0000 </r>
       <r>    4.6552    1.0000 </r>
       <r>    5.0674    1.0000 </r>
       <r>    5.4876    1.0000 </r>
       <r>    5.7715    1.0000 </r>
       <r>    7.1022    1.0000 </r>
       <r>    7.9598    1.0000 </r>
       <r>   10.8552    1.0000 </r>
       <r>   11.7232    0.0000 </r>
       <r>   12.8071    0.0000 </r>
       <r>   13.1109    0.0000 </r>
      </set>
      <set comment="kpoint 75">
       <r>  -20.5527    1.0000 </r>
       <r>  -20.5282    1.0000 </r>
       <r>  -20.5191    1.0000 </r>
       <r>   -1.3152    1.0000 </r>
       <r>    2.7635    1.0000 </r>
       <r>    3.9744    1.0000 </r>
       <r>    4.3883    1.0000 </r>
       <r>    5.3117    1.0000 </r>
       <r>    5.4689    1.0000 </r>
       <r>    6.4207    1.0000 </r>
       <r>    7.3444    1.0000 </r>
       <r>    8.3061    1.0000 </r>
       <r>   11.5299    0.0000 </r>
       <r>   11.9985    0.0000 </r>
       <r>   13.3302    0.0000 </r>
       <r>   13.6991    0.0000 </r>
      </set>
      <set comment="kpoint 76">
       <r>  -20.5544    1.0000 </r>
       <r>  -20.5312    1.0000 </r>
       <r>  -20.5190    1.0000 </r>
       <r>   -1.0808    1.0000 </r>
       <r>    2.8876    1.0000 </r>
       <r>    3.8295    1.0000 </r>
       <r>    4.3266    1.0000 </r>
       <r>    5.3141    1.0000 </r>
       <r>    5.4942    1.0000 </r>
       <r>    6.1723    1.0000 </r>
       <r>    7.1313    1.0000 </r>
       <r>    8.2280    1.0000 </r>
       <r>   11.5682    0.0000 </r>
       <r>   12.0722    0.0000 </r>
       <r>   12.6878    0.0000 </r>
       <r>   13.7982    0.0000 </r>
      </set>
      <set comment="kpoint 77">
       <r>  -20.5552    1.0000 </r>
       <r>  -20.5330    1.0000 </r>
       <r>  -20.5191    1.0000 </r>
       <r>   -0.9506    1.0000 </r>
       <r>    3.0713    1.0000 </r>
       <r>    3.6741    1.0000 </r>
       <r>    4.2979    1.0000 </r>
       <r>    5.2474    1.0000 </r>
       <r>    5.4964    1.0000 </r>
       <r>    6.0325    1.0000 </r>
       <r>    7.0465    1.0000 </r>
       <r>    8.2025    1.0000 </r>
       <r>   11.6508    0.0000 </r>
       <r>   11.9505    0.0000 </r>
       <r>   12.5498    0.0000 </r>
       <r>   13.7261    0.0000 </r>
      </set>
      <set comment="kpoint 78">
       <r>  -20.5569    1.0000 </r>
       <r>  -20.5299    1.0000 </r>
       <r>  -20.5209    1.0000 </r>
[...]
       <r>   11.8692    0.0000 </r>
       <r>   12.7440    0.0000 </r>
       <r>   13.6556    0.0000 </r>
      </set>
      <set comment="kpoint 79">
       <r>  -20.5556    1.0000 </r>
       <r>  -20.5337    1.0000 </r>
       <r>  -20.5208    1.0000 </r>
       <r>   -0.9583    1.0000 </r>
       <r>    3.1873    1.0000 </r>
       <r>    3.7691    1.0000 </r>
       <r>    4.5528    1.0000 </r>
       <r>    5.2632    1.0000 </r>
       <r>    5.4993    1.0000 </r>
       <r>    6.0001    1.0000 </r>
       <r>    6.7042    1.0000 </r>
       <r>    8.1382    1.0000 </r>
       <r>   11.3825    1.0000 </r>
       <r>   12.0730    0.0000 </r>
       <r>   12.2878    0.0000 </r>
       <r>   13.3395    0.0000 </r>
      </set>
      <set comment="kpoint 80">
       <r>  -20.5535    1.0000 </r>
       <r>  -20.5365    1.0000 </r>
       <r>  -20.5204    1.0000 </r>
       <r>   -0.9240    1.0000 </r>
       <r>    3.3928    1.0000 </r>
       <r>    3.5694    1.0000 </r>
       <r>    4.4899    1.0000 </r>
       <r>    5.1485    1.0000 </r>
       <r>    5.5802    1.0000 </r>
       <r>    6.1354    1.0000 </r>
       <r>    6.4987    1.0000 </r>
       <r>    8.1535    1.0000 </r>
       <r>   11.5826    0.0000 </r>
       <r>   11.9540    0.0000 </r>
       <r>   12.3604    0.0000 </r>
       <r>   13.1810    0.0000 </r>
      </set>
      <set comment="kpoint 81">
       <r>  -20.5532    1.0000 </r>
       <r>  -20.5357    1.0000 </r>
       <r>  -20.5196    1.0000 </r>
       <r>   -0.9640    1.0000 </r>
       <r>    3.1589    1.0000 </r>
       <r>    3.6775    1.0000 </r>
       <r>    4.3966    1.0000 </r>
       <r>    5.2119    1.0000 </r>
       <r>    5.5603    1.0000 </r>
       <r>    6.2553    1.0000 </r>
       <r>    6.6267    1.0000 </r>
       <r>    8.1686    1.0000 </r>
       <r>   11.7056    0.0000 </r>
       <r>   11.9279    0.0000 </r>
       <r>   12.3804    0.0000 </r>
       <r>   13.5583    0.0000 </r>
      </set>
      <set comment="kpoint 82">
       <r>  -20.5593    1.0000 </r>
       <r>  -20.5309    1.0000 </r>
       <r>  -20.5221    1.0000 </r>
       <r>   -0.9686    1.0000 </r>
       <r>    3.2225    1.0000 </r>
       <r>    3.9810    1.0000 </r>
       <r>    4.6785    1.0000 </r>
       <r>    5.3231    1.0000 </r>
       <r>    5.4079    1.0000 </r>
       <r>    5.7575    1.0000 </r>
       <r>    6.8147    1.0000 </r>
       <r>    8.0859    1.0000 </r>
       <r>   11.0898    1.0000 </r>
       <r>   11.7793    0.0000 </r>
       <r>   12.6040    0.0000 </r>
       <r>   13.1067    0.0000 </r>
      </set>
      <set comment="kpoint 83">
       <r>  -20.5559    1.0000 </r>
       <r>  -20.5347    1.0000 </r>
       <r>  -20.5216    1.0000 </r>
       <r>   -0.9321    1.0000 </r>
       <r>    3.3789    1.0000 </r>
       <r>    3.7877    1.0000 </r>
       <r>    4.6270    1.0000 </r>
       <r>    5.1763    1.0000 </r>
       <r>    5.6677    1.0000 </r>
       <r>    5.7524    1.0000 </r>
       <r>    6.5266    1.0000 </r>
       <r>    8.1376    1.0000 </r>
       <r>   11.3133    1.0000 </r>
       <r>   11.9969    0.0000 </r>
       <r>   12.3445    0.0000 </r>
       <r>   12.9293    0.0000 </r>
      </set>
      <set comment="kpoint 84">
       <r>  -20.5537    1.0000 </r>
       <r>  -20.5366    1.0000 </r>
       <r>  -20.5215    1.0000 </r>
       <r>   -0.9235    1.0000 </r>
       <r>    3.4452    1.0000 </r>
       <r>    3.6507    1.0000 </r>
       <r>    4.6341    1.0000 </r>
       <r>    5.3164    1.0000 </r>
       <r>    5.5257    1.0000 </r>
       <r>    5.8434    1.0000 </r>
       <r>    6.3794    1.0000 </r>
       <r>    8.1881    1.0000 </r>
       <r>   11.6679    0.0000 </r>
       <r>   11.9553    0.0000 </r>
       <r>   12.0295    0.0000 </r>
       <r>   12.9400    0.0000 </r>
      </set>
     </set>
    </set>
   </array>
  </eigenvalues>
  <separator name="orbital magnetization" >
   <v name="MAGDIPOLOUT">      0.00000000      0.00000000      0.00000000</v>
  </separator>
  <dos>
   <i name="efermi">     11.48872642 </i>
   <total>
    <array>
     <dimension dim="1">gridpoints</dimension>
     <dimension dim="2">spin</dimension>
     <field>energy</field>
     <field>total</field>
     <field>integrated</field>
     <set>
      <set comment="spin 1">
       <r>   -22.3292     0.0000     0.0000 </r>
       <r>   -22.2000     0.0000     0.0000 </r>
       <r>   -22.0708     0.0000     0.0000 </r>
       <r>   -21.9415     0.0000     0.0000 </r>
       <r>   -21.8123     0.0000     0.0000 </r>
       <r>   -21.6831     0.0000     0.0000 </r>
       <r>   -21.5538     0.0000     0.0000 </r>
       <r>   -21.4246     0.0000     0.0000 </r>
       <r>   -21.2954     0.0000     0.0000 </r>
       <r>   -21.1661     0.0000     0.0000 </r>
       <r>   -21.0369     0.0000     0.0000 </r>
       <r>   -20.9077     0.0000     0.0000 </r>
       <r>   -20.7784     0.0000     0.0000 </r>
       <r>   -20.6492     0.0000     0.0000 </r>
       <r>   -20.5200    34.8071     4.4982 </r>
       <r>   -20.3907     0.0000     6.0000 </r>
       <r>   -20.2615     0.0000     6.0000 </r>
       <r>   -20.1323     0.0000     6.0000 </r>
       <r>   -20.0030     0.0000     6.0000 </r>
       <r>   -19.8738     0.0000     6.0000 </r>
       <r>   -19.7446     0.0000     6.0000 </r>
       <r>   -19.6153     0.0000     6.0000 </r>
       <r>   -19.4861     0.0000     6.0000 </r>
       <r>   -19.3569     0.0000     6.0000 </r>
       <r>   -19.2276     0.0000     6.0000 </r>
       <r>   -19.0984     0.0000     6.0000 </r>
       <r>   -18.9692     0.0000     6.0000 </r>
       <r>   -18.8399     0.0000     6.0000 </r>
       <r>   -18.7107     0.0000     6.0000 </r>
       <r>   -18.5815     0.0000     6.0000 </r>
       <r>   -18.4522     0.0000     6.0000 </r>
       <r>   -18.3230     0.0000     6.0000 </r>
       <r>   -18.1938     0.0000     6.0000 </r>
       <r>   -18.0645     0.0000     6.0000 </r>
       <r>   -17.9353     0.0000     6.0000 </r>
       <r>   -17.8061     0.0000     6.0000 </r>
       <r>   -17.6768     0.0000     6.0000 </r>
       <r>   -17.5476     0.0000     6.0000 </r>
       <r>   -17.4184     0.0000     6.0000 </r>
       <r>   -17.2891     0.0000     6.0000 </r>
       <r>   -17.1599     0.0000     6.0000 </r>
       <r>   -17.0307     0.0000     6.0000 </r>
       <r>   -16.9014     0.0000     6.0000 </r>
       <r>   -16.7722     0.0000     6.0000 </r>
       <r>   -16.6430     0.0000     6.0000 </r>
       <r>   -16.5137     0.0000     6.0000 </r>
       <r>   -16.3845     0.0000     6.0000 </r>
       <r>   -16.2553     0.0000     6.0000 </r>
       <r>   -16.1261     0.0000     6.0000 </r>
       <r>   -15.9968     0.0000     6.0000 </r>
       <r>   -15.8676     0.0000     6.0000 </r>
       <r>   -15.7384     0.0000     6.0000 </r>
       <r>   -15.6091     0.0000     6.0000 </r>
       <r>   -15.4799     0.0000     6.0000 </r>
       <r>   -15.3507     0.0000     6.0000 </r>
       <r>   -15.2214     0.0000     6.0000 </r>
       <r>   -15.0922     0.0000     6.0000 </r>
       <r>   -14.9630     0.0000     6.0000 </r>
       <r>   -14.8337     0.0000     6.0000 </r>
       <r>   -14.7045     0.0000     6.0000 </r>
       <r>   -14.5753     0.0000     6.0000 </r>
       <r>   -14.4460     0.0000     6.0000 </r>
       <r>   -14.3168     0.0000     6.0000 </r>
       <r>   -14.1876     0.0000     6.0000 </r>
       <r>   -14.0583     0.0000     6.0000 </r>
       <r>   -13.9291     0.0000     6.0000 </r>
       <r>   -13.7999     0.0000     6.0000 </r>
       <r>   -13.6706     0.0000     6.0000 </r>
       <r>   -13.5414     0.0000     6.0000 </r>
       <r>   -13.4122     0.0000     6.0000 </r>
       <r>   -13.2829     0.0000     6.0000 </r>
       <r>   -13.1537     0.0000     6.0000 </r>
       <r>   -13.0245     0.0000     6.0000 </r>
       <r>   -12.8952     0.0000     6.0000 </r>
       <r>   -12.7660     0.0000     6.0000 </r>
       <r>   -12.6368     0.0000     6.0000 </r>
       <r>   -12.5075     0.0000     6.0000 </r>
       <r>   -12.3783     0.0000     6.0000 </r>
       <r>   -12.2491     0.0000     6.0000 </r>
       <r>   -12.1198     0.0000     6.0000 </r>
       <r>   -11.9906     0.0000     6.0000 </r>
       <r>   -11.8614     0.0000     6.0000 </r>
       <r>   -11.7321     0.0000     6.0000 </r>
       <r>   -11.6029     0.0000     6.0000 </r>
       <r>   -11.4737     0.0000     6.0000 </r>
       <r>   -11.3444     0.0000     6.0000 </r>
       <r>   -11.2152     0.0000     6.0000 </r>
       <r>   -11.0860     0.0000     6.0000 </r>
       <r>   -10.9567     0.0000     6.0000 </r>
       <r>   -10.8275     0.0000     6.0000 </r>
       <r>   -10.6983     0.0000     6.0000 </r>
       <r>   -10.5690     0.0000     6.0000 </r>
       <r>   -10.4398     0.0000     6.0000 </r>
       <r>   -10.3106     0.0000     6.0000 </r>
       <r>   -10.1813     0.0000     6.0000 </r>
       <r>   -10.0521     0.0000     6.0000 </r>
       <r>    -9.9229     0.0000     6.0000 </r>
       <r>    -9.7936     0.0000     6.0000 </r>
       <r>    -9.6644     0.0000     6.0000 </r>
       <r>    -9.5352     0.0000     6.0000 </r>
       <r>    -9.4059     0.0000     6.0000 </r>
       <r>    -9.2767     0.0000     6.0000 </r>
       <r>    -9.1475     0.0000     6.0000 </r>
       <r>    -9.0182     0.0000     6.0000 </r>
       <r>    -8.8890     0.0000     6.0000 </r>
       <r>    -8.7598     0.0000     6.0000 </r>
       <r>    -8.6305     0.0000     6.0000 </r>
       <r>    -8.5013     0.0000     6.0000 </r>
       <r>    -8.3721     0.0000     6.0000 </r>
       <r>    -8.2428     0.0000     6.0000 </r>
       <r>    -8.1136     0.0000     6.0000 </r>
       <r>    -7.9844     0.0000     6.0000 </r>
       <r>    -7.8551     0.0000     6.0000 </r>
       <r>    -7.7259     0.0000     6.0000 </r>
       <r>    -7.5967     0.0000     6.0000 </r>
       <r>    -7.4674     0.0000     6.0000 </r>
       <r>    -7.3382     0.0000     6.0000 </r>
       <r>    -7.2090     0.0000     6.0000 </r>
       <r>    -7.0798     0.0000     6.0000 </r>
       <r>    -6.9505     0.0000     6.0000 </r>
       <r>    -6.8213     0.0000     6.0000 </r>
       <r>    -6.6921     0.0000     6.0000 </r>
       <r>    -6.5628     0.0000     6.0000 </r>
       <r>    -6.4336     0.0000     6.0000 </r>
       <r>    -6.3044     0.0000     6.0000 </r>
       <r>    -6.1751     0.0000     6.0000 </r>
       <r>    -6.0459     0.0000     6.0000 </r>
       <r>    -5.9167     0.0000     6.0000 </r>
       <r>    -5.7874     0.0000     6.0000 </r>
       <r>    -5.6582     0.0000     6.0000 </r>
       <r>    -5.5290     0.0000     6.0000 </r>
       <r>    -5.3997     0.0000     6.0000 </r>
       <r>    -5.2705     0.0000     6.0000 </r>
       <r>    -5.1413     0.0000     6.0000 </r>
       <r>    -5.0120     0.0000     6.0000 </r>
       <r>    -4.8828     0.0000     6.0000 </r>
       <r>    -4.7536     0.0000     6.0000 </r>
       <r>    -4.6243     0.0000     6.0000 </r>
       <r>    -4.4951     0.0000     6.0000 </r>
       <r>    -4.3659     0.0000     6.0000 </r>
       <r>    -4.2366     0.0000     6.0000 </r>
       <r>    -4.1074     0.0000     6.0000 </r>
       <r>    -3.9782     0.0000     6.0000 </r>
       <r>    -3.8489     0.0000     6.0000 </r>
       <r>    -3.7197     0.0000     6.0000 </r>
       <r>    -3.5905     0.0000     6.0000 </r>
       <r>    -3.4612     0.0000     6.0000 </r>
       <r>    -3.3320     0.0000     6.0000 </r>
       <r>    -3.2028     0.0000     6.0000 </r>
       <r>    -3.0735     0.0000     6.0000 </r>
       <r>    -2.9443     0.0000     6.0000 </r>
       <r>    -2.8151     0.0542     6.0079 </r>
       <r>    -2.6858     0.0650     6.0221 </r>
       <r>    -2.5566     0.2254     6.0537 </r>
       <r>    -2.4274     0.0427     6.0592 </r>
       <r>    -2.2981     0.0077     6.1039 </r>
       <r>    -2.1689     0.2254     6.1538 </r>
       <r>    -2.0397     0.2304     6.1836 </r>
       <r>    -1.9104     0.1691     6.2576 </r>
       <r>    -1.7812     0.1693     6.3014 </r>
       <r>    -1.6520     0.3383     6.3742 </r>
       <r>    -1.5227     0.5494     6.4888 </r>
       <r>    -1.3935     0.5314     6.5794 </r>
       <r>    -1.2643     0.6732     6.7179 </r>
       <r>    -1.1350     0.5578     6.9069 </r>
       <r>    -1.0058     2.6924     7.3630 </r>
       <r>    -0.8766     2.4514     8.0000 </r>
       <r>    -0.7473     0.0000     8.0000 </r>
       <r>    -0.6181     0.0000     8.0000 </r>
       <r>    -0.4889     0.0000     8.0000 </r>
       <r>    -0.3596     0.0000     8.0000 </r>
       <r>    -0.2304     0.0000     8.0000 </r>
       <r>    -0.1012     0.0000     8.0000 </r>
       <r>     0.0281     0.0000     8.0000 </r>
       <r>     0.1573     0.0000     8.0000 </r>
       <r>     0.2865     0.0000     8.0000 </r>
       <r>     0.4158     0.0000     8.0000 </r>
       <r>     0.5450     0.0000     8.0000 </r>
       <r>     0.6742     0.0000     8.0000 </r>
       <r>     0.8035     0.0000     8.0000 </r>
       <r>     0.9327     0.0000     8.0000 </r>
       <r>     1.0619     0.0000     8.0000 </r>
       <r>     1.1912     0.0000     8.0000 </r>
       <r>     1.3204     0.0000     8.0000 </r>
       <r>     1.4496     0.0000     8.0000 </r>
       <r>     1.5789     0.0000     8.0000 </r>
       <r>     1.7081     0.0000     8.0000 </r>
       <r>     1.8373     0.0000     8.0000 </r>
       <r>     1.9665     0.0000     8.0000 </r>
       <r>     2.0958     0.0000     8.0000 </r>
       <r>     2.2250     0.0000     8.0000 </r>
       <r>     2.3542     0.0000     8.0000 </r>
       <r>     2.4835     0.0000     8.0000 </r>
       <r>     2.6127     0.2682     8.0347 </r>
       <r>     2.7419     1.5299     8.2978 </r>
       <r>     2.8712     1.8460     8.7156 </r>
       <r>     3.0004     1.4863     9.1625 </r>
       <r>     3.1296     1.8098     9.4392 </r>
       <r>     3.2589     1.2300     9.7138 </r>
       <r>     3.3881     0.7163     9.8186 </r>
       <r>     3.5173     0.1691     9.9172 </r>
       <r>     3.6466     0.5131     9.9835 </r>
       <r>     3.7758     2.1846    10.4362 </r>
       <r>     3.9050     2.5072    11.1552 </r>
       <r>     4.0343     2.3079    11.7247 </r>
       <r>     4.1635     3.1781    12.3106 </r>
       <r>     4.2927     2.7525    12.7936 </r>
       <r>     4.4220     2.0744    13.3286 </r>
       <r>     4.5512     1.9476    13.6509 </r>
       <r>     4.6804     1.3315    13.9099 </r>
       <r>     4.8097     0.3381    14.0109 </r>
       <r>     4.9389     0.0392    14.0160 </r>
       <r>     5.0681     1.0714    14.1676 </r>
       <r>     5.1974     2.6932    14.6703 </r>
       <r>     5.3266     7.6466    16.0242 </r>
       <r>     5.4558     3.8270    16.8669 </r>
       <r>     5.5851     2.8646    17.6055 </r>
       <r>     5.7143     1.8165    18.1273 </r>
       <r>     5.8435     1.8137    18.4674 </r>
       <r>     5.9728     1.4318    18.7403 </r>
       <r>     6.1020     1.1212    19.0388 </r>
       <r>     6.2312     1.4896    19.3104 </r>
       <r>     6.3605     0.8849    19.4799 </r>
       <r>     6.4897     0.4571    19.6103 </r>
       <r>     6.6189     0.6762    19.7588 </r>
       <r>     6.7482     0.6751    19.8897 </r>
       <r>     6.8774     0.6321    19.9988 </r>
       <r>     7.0066     0.8949    20.1384 </r>
       <r>     7.1359     0.4575    20.3331 </r>
       <r>     7.2651     1.0112    20.5249 </r>
       <r>     7.3943     0.5917    20.6017 </r>
       <r>     7.5236     1.3917    20.7816 </r>
       <r>     7.6528     0.9801    20.9960 </r>
       <r>     7.7820     0.7262    21.1489 </r>
       <r>     7.9113     1.0562    21.3663 </r>
       <r>     8.0405     1.4929    21.6704 </r>
       <r>     8.1697     4.6008    22.3342 </r>
       <r>     8.2990     0.7145    22.5912 </r>
       <r>     8.4282     1.8027    23.0049 </r>
       <r>     8.5574     1.9378    23.3392 </r>
       <r>     8.6867     1.3467    23.6014 </r>
       <r>     8.8159     0.6342    23.7460 </r>
       <r>     8.9451     0.4991    23.8706 </r>
       <r>     9.0744     0.2092    23.9296 </r>
       <r>     9.2036     0.0000    23.9718 </r>
       <r>     9.3328     0.1057    24.0000 </r>
       <r>     9.4621     0.0000    24.0000 </r>
       <r>     9.5913     0.0000    24.0000 </r>
       <r>     9.7205     0.0000    24.0000 </r>
       <r>     9.8498     0.0000    24.0000 </r>
       <r>     9.9790     0.0000    24.0000 </r>
       <r>    10.1082     0.0000    24.0000 </r>
       <r>    10.2375     0.0000    24.0000 </r>
       <r>    10.3667     0.0000    24.0000 </r>
       <r>    10.4959     0.0000    24.0000 </r>
       <r>    10.6252     0.0424    24.0055 </r>
       <r>    10.7544     0.3804    24.0655 </r>
       <r>    10.8836     0.5494    24.1584 </r>
       <r>    11.0128     0.2297    24.2536 </r>
       <r>    11.1421     0.8656    24.4177 </r>
       <r>    11.2713     0.9353    24.5578 </r>
       <r>    11.4005     0.7602    24.7646 </r>
       <r>    11.5298     1.0953    25.0646 </r>
       <r>    11.6590     2.2727    25.4298 </r>
       <r>    11.7882     3.5681    26.0897 </r>
       <r>    11.9175     1.2799    26.3020 </r>
       <r>    12.0467     1.5280    26.6290 </r>
       <r>    12.1759     1.2896    26.9914 </r>
       <r>    12.3052     3.0229    27.7634 </r>
       <r>    12.4344     1.8174    28.1284 </r>
       <r>    12.5636     2.2340    28.5154 </r>
       <r>    12.6929     2.0450    28.8797 </r>
       <r>    12.8221     1.9044    29.3403 </r>
       <r>    12.9513     1.0079    29.6141 </r>
       <r>    13.0806     0.6322    29.7076 </r>
       <r>    13.2098     1.3020    30.0454 </r>
       <r>    13.3390     1.8740    30.3833 </r>
       <r>    13.4683     0.7056    30.5072 </r>
       <r>    13.5975     1.2108    30.7254 </r>
       <r>    13.7267     2.6805    31.1830 </r>
       <r>    13.8560     1.5329    31.5099 </r>
       <r>    13.9852     0.9703    31.7212 </r>
       <r>    14.1144     0.6821    31.8660 </r>
       <r>    14.2437     0.7749    31.9709 </r>
       <r>    14.3729     0.0000    31.9927 </r>
       <r>    14.5021     0.0000    31.9927 </r>
       <r>    14.6314     0.0000    31.9927 </r>
       <r>    14.7606     0.0000    32.0000 </r>
       <r>    14.8898     0.0000    32.0000 </r>
       <r>    15.0191     0.0000    32.0000 </r>
       <r>    15.1483     0.0000    32.0000 </r>
       <r>    15.2775     0.0000    32.0000 </r>
       <r>    15.4068     0.0000    32.0000 </r>
       <r>    15.5360     0.0000    32.0000 </r>
       <r>    15.6652     0.0000    32.0000 </r>
       <r>    15.7945     0.0000    32.0000 </r>
       <r>    15.9237     0.0000    32.0000 </r>
       <r>    16.0529     0.0000    32.0000 </r>
       <r>    16.1822     0.0000    32.0000 </r>
       <r>    16.3114     0.0000    32.0000 </r>
       <r>    16.4406     0.0000    32.0000 </r>
      </set>
     </set>
    </array>
   </total>
  </dos>
 </calculation>
 <structure name="finalpos" >
  <crystal>
   <varray name="basis" >
    <v>       0.00000000       2.99883426       2.99883426 </v>
    <v>       2.99883426       0.00000000       2.99883426 </v>
    <v>       2.99883426       2.99883426       0.00000000 </v>
   </varray>
   <i name="volume">     53.93707444 </i>
   <varray name="rec_basis" >
    <v>      -0.16673146       0.16673146       0.16673146 </v>
    <v>       0.16673146      -0.16673146       0.16673146 </v>
    <v>       0.16673146       0.16673146      -0.16673146 </v>
   </varray>
  </crystal>
  <varray name="positions" >
   <v>       0.75000000       0.75000000       0.75000000 </v>
   <v>       0.25000000       0.25000000       0.25000000 </v>
   <v>       0.00000000       0.00000000       0.00000000 </v>
  </varray>
 </structure>
</modeling>
