   2   2   0   0
  0.2312162E+02  0.4028912E-09  0.4028912E-09  0.4028912E-09  0.0000000E+00
   1.0000000000000000E-004
  CAR 
 unknown system                          
     21.31822660    -23.86180606  301     -0.90421813      1.00000000
    -23.862  0.0000E+00  0.0000E+00
    -23.711  0.0000E+00  0.0000E+00
    -23.561  0.0000E+00  0.0000E+00
    -23.410  0.0000E+00  0.0000E+00
    -23.259  0.0000E+00  0.0000E+00
    -23.109  0.0000E+00  0.0000E+00
    -22.958  0.0000E+00  0.0000E+00
    -22.808  0.0000E+00  0.0000E+00
    -22.657  0.0000E+00  0.0000E+00
    -22.506  0.0000E+00  0.0000E+00
    -22.356  0.0000E+00  0.0000E+00
    -22.205  0.0000E+00  0.0000E+00
    -22.055  0.0000E+00  0.0000E+00
    -21.904  0.0000E+00  0.0000E+00
    -21.753  0.3984E+02  0.6000E+01
    -21.603  0.0000E+00  0.6000E+01
    -21.452  0.0000E+00  0.6000E+01
    -21.302  0.0000E+00  0.6000E+01
    -21.151  0.0000E+00  0.6000E+01
    -21.000  0.0000E+00  0.6000E+01
    -20.850  0.0000E+00  0.6000E+01
    -20.699  0.0000E+00  0.6000E+01
    -20.549  0.0000E+00  0.6000E+01
    -20.398  0.0000E+00  0.6000E+01
    -20.247  0.0000E+00  0.6000E+01
    -20.097  0.0000E+00  0.6000E+01
    -19.946  0.0000E+00  0.6000E+01
    -19.796  0.0000E+00  0.6000E+01
    -19.645  0.0000E+00  0.6000E+01
    -19.494  0.0000E+00  0.6000E+01
    -19.344  0.0000E+00  0.6000E+01
    -19.193  0.0000E+00  0.6000E+01
    -19.043  0.0000E+00  0.6000E+01
    -18.892  0.0000E+00  0.6000E+01
    -18.741  0.0000E+00  0.6000E+01
    -18.591  0.0000E+00  0.6000E+01
    -18.440  0.0000E+00  0.6000E+01
    -18.290  0.0000E+00  0.6000E+01
    -18.139  0.0000E+00  0.6000E+01
    -17.988  0.0000E+00  0.6000E+01
    -17.838  0.0000E+00  0.6000E+01
    -17.687  0.0000E+00  0.6000E+01
    -17.537  0.0000E+00  0.6000E+01
    -17.386  0.0000E+00  0.6000E+01
    -17.235  0.0000E+00  0.6000E+01
    -17.085  0.0000E+00  0.6000E+01
    -16.934  0.0000E+00  0.6000E+01
    -16.784  0.0000E+00  0.6000E+01
    -16.633  0.0000E+00  0.6000E+01
    -16.482  0.0000E+00  0.6000E+01
    -16.332  0.0000E+00  0.6000E+01
    -16.181  0.0000E+00  0.6000E+01
    -16.031  0.0000E+00  0.6000E+01
    -15.880  0.0000E+00  0.6000E+01
    -15.729  0.0000E+00  0.6000E+01
    -15.579  0.0000E+00  0.6000E+01
    -15.428  0.0000E+00  0.6000E+01
    -15.278  0.0000E+00  0.6000E+01
    -15.127  0.0000E+00  0.6000E+01
    -14.976  0.0000E+00  0.6000E+01
    -14.826  0.0000E+00  0.6000E+01
    -14.675  0.0000E+00  0.6000E+01
    -14.525  0.0000E+00  0.6000E+01
    -14.374  0.0000E+00  0.6000E+01
    -14.223  0.0000E+00  0.6000E+01
    -14.073  0.0000E+00  0.6000E+01
    -13.922  0.0000E+00  0.6000E+01
    -13.772  0.0000E+00  0.6000E+01
    -13.621  0.0000E+00  0.6000E+01
    -13.470  0.5212E+00  0.6007E+01
    -13.320  0.3431E+01  0.6229E+01
    -13.169  0.2101E+02  0.7251E+01
    -13.019  0.3367E+01  0.8000E+01
    -12.868  0.0000E+00  0.8000E+01
    -12.717  0.0000E+00  0.8000E+01
    -12.567  0.0000E+00  0.8000E+01
    -12.416  0.0000E+00  0.8000E+01
    -12.266  0.0000E+00  0.8000E+01
    -12.115  0.0000E+00  0.8000E+01
    -11.964  0.0000E+00  0.8000E+01
    -11.814  0.0000E+00  0.8000E+01
    -11.663  0.0000E+00  0.8000E+01
    -11.513  0.0000E+00  0.8000E+01
    -11.362  0.0000E+00  0.8000E+01
    -11.211  0.0000E+00  0.8000E+01
    -11.061  0.0000E+00  0.8000E+01
    -10.910  0.0000E+00  0.8000E+01
    -10.760  0.0000E+00  0.8000E+01
    -10.609  0.0000E+00  0.8000E+01
    -10.458  0.0000E+00  0.8000E+01
    -10.308  0.0000E+00  0.8000E+01
    -10.157  0.0000E+00  0.8000E+01
    -10.007  0.0000E+00  0.8000E+01
     -9.856  0.0000E+00  0.8000E+01
     -9.705  0.0000E+00  0.8000E+01
     -9.555  0.0000E+00  0.8000E+01
     -9.404  0.0000E+00  0.8000E+01
     -9.254  0.0000E+00  0.8000E+01
     -9.103  0.0000E+00  0.8000E+01
     -8.952  0.0000E+00  0.8000E+01
     -8.802  0.0000E+00  0.8000E+01
     -8.651  0.0000E+00  0.8000E+01
     -8.501  0.0000E+00  0.8000E+01
     -8.350  0.0000E+00  0.8000E+01
     -8.199  0.0000E+00  0.8000E+01
     -8.049  0.0000E+00  0.8000E+01
     -7.898  0.0000E+00  0.8000E+01
     -7.748  0.0000E+00  0.8000E+01
     -7.597  0.0000E+00  0.8000E+01
     -7.446  0.0000E+00  0.8000E+01
     -7.296  0.0000E+00  0.8000E+01
     -7.145  0.0000E+00  0.8000E+01
     -6.995  0.0000E+00  0.8000E+01
     -6.844  0.0000E+00  0.8000E+01
     -6.693  0.0000E+00  0.8000E+01
     -6.543  0.0000E+00  0.8000E+01
     -6.392  0.0000E+00  0.8000E+01
     -6.242  0.0000E+00  0.8000E+01
     -6.091  0.0000E+00  0.8000E+01
     -5.940  0.0000E+00  0.8000E+01
     -5.790  0.0000E+00  0.8000E+01
     -5.639  0.0000E+00  0.8000E+01
     -5.489  0.0000E+00  0.8000E+01
     -5.338  0.0000E+00  0.8000E+01
     -5.187  0.0000E+00  0.8000E+01
     -5.037  0.0000E+00  0.8000E+01
     -4.886  0.0000E+00  0.8000E+01
     -4.736  0.0000E+00  0.8000E+01
     -4.585  0.0000E+00  0.8000E+01
     -4.434  0.0000E+00  0.8000E+01
     -4.284  0.0000E+00  0.8000E+01
     -4.133  0.0000E+00  0.8000E+01
     -3.983  0.0000E+00  0.8000E+01
     -3.832  0.0000E+00  0.8000E+01
     -3.681  0.0000E+00  0.8000E+01
     -3.531  0.0000E+00  0.8000E+01
     -3.380  0.0000E+00  0.8000E+01
     -3.230  0.0000E+00  0.8000E+01
     -3.079  0.0000E+00  0.8000E+01
     -2.928  0.0000E+00  0.8000E+01
     -2.778  0.0000E+00  0.8000E+01
     -2.627  0.9910E+00  0.8052E+01
     -2.477  0.1989E+01  0.8251E+01
     -2.326  0.8083E+01  0.8891E+01
     -2.175  0.3230E+01  0.9554E+01
     -2.025  0.9531E+00  0.9738E+01
     -1.874  0.2289E+01  0.9993E+01
     -1.724  0.2437E+01  0.1034E+02
     -1.573  0.3137E+01  0.1075E+02
     -1.422  0.7382E+01  0.1147E+02
     -1.272  0.7667E+01  0.1244E+02
     -1.121  0.6933E+01  0.1346E+02
     -0.971  0.2954E+01  0.1393E+02
     -0.820  0.7254E-01  0.1400E+02
     -0.669  0.0000E+00  0.1400E+02
     -0.519  0.0000E+00  0.1400E+02
     -0.368  0.0000E+00  0.1400E+02
     -0.218  0.0000E+00  0.1400E+02
     -0.067  0.0000E+00  0.1400E+02
      0.084  0.0000E+00  0.1400E+02
      0.234  0.0000E+00  0.1400E+02
      0.385  0.0000E+00  0.1400E+02
      0.535  0.0000E+00  0.1400E+02
      0.686  0.0000E+00  0.1400E+02
      0.837  0.0000E+00  0.1400E+02
      0.987  0.0000E+00  0.1400E+02
      1.138  0.0000E+00  0.1400E+02
      1.288  0.0000E+00  0.1400E+02
      1.439  0.0000E+00  0.1400E+02
      1.590  0.0000E+00  0.1400E+02
      1.740  0.0000E+00  0.1400E+02
      1.891  0.0000E+00  0.1400E+02
      2.041  0.0000E+00  0.1400E+02
      2.192  0.0000E+00  0.1400E+02
      2.343  0.0000E+00  0.1400E+02
      2.493  0.0000E+00  0.1400E+02
      2.644  0.0000E+00  0.1400E+02
      2.794  0.0000E+00  0.1400E+02
      2.945  0.0000E+00  0.1400E+02
      3.096  0.0000E+00  0.1400E+02
      3.246  0.0000E+00  0.1400E+02
      3.397  0.0000E+00  0.1400E+02
      3.547  0.0000E+00  0.1400E+02
      3.698  0.0000E+00  0.1400E+02
      3.849  0.0000E+00  0.1400E+02
      3.999  0.0000E+00  0.1400E+02
      4.150  0.4252E-02  0.1400E+02
      4.300  0.3990E-01  0.1400E+02
      4.451  0.5268E-01  0.1401E+02
      4.602  0.7252E-01  0.1402E+02
      4.752  0.8894E-01  0.1403E+02
      4.903  0.1074E+00  0.1405E+02
      5.053  0.1275E+00  0.1406E+02
      5.204  0.1492E+00  0.1408E+02
      5.355  0.1737E+00  0.1411E+02
      5.505  0.2022E+00  0.1414E+02
      5.656  0.2340E+00  0.1417E+02
      5.806  0.2729E+00  0.1421E+02
      5.957  0.3265E+00  0.1425E+02
      6.108  0.3958E+00  0.1431E+02
      6.258  0.5212E+00  0.1437E+02
      6.409  0.8017E+00  0.1447E+02
      6.559  0.8018E+00  0.1459E+02
      6.710  0.1339E+01  0.1475E+02
      6.861  0.1210E+01  0.1493E+02
      7.011  0.1237E+01  0.1512E+02
      7.162  0.1227E+01  0.1530E+02
      7.312  0.1326E+01  0.1549E+02
      7.463  0.1347E+01  0.1569E+02
      7.614  0.1343E+01  0.1590E+02
      7.764  0.1268E+01  0.1609E+02
      7.915  0.8232E+00  0.1626E+02
      8.065  0.9238E+00  0.1637E+02
      8.216  0.1531E+01  0.1655E+02
      8.367  0.2043E+01  0.1687E+02
      8.517  0.1366E+01  0.1709E+02
      8.668  0.1862E+01  0.1730E+02
      8.818  0.2146E+01  0.1760E+02
      8.969  0.2579E+01  0.1796E+02
      9.120  0.2758E+01  0.1833E+02
      9.270  0.2410E+01  0.1874E+02
      9.421  0.1837E+01  0.1905E+02
      9.571  0.1328E+01  0.1929E+02
      9.722  0.1089E+01  0.1947E+02
      9.873  0.9583E+00  0.1962E+02
     10.023  0.6512E+00  0.1974E+02
     10.174  0.8340E+00  0.1985E+02
     10.324  0.1302E+01  0.2001E+02
     10.475  0.1678E+01  0.2026E+02
     10.626  0.1460E+01  0.2048E+02
     10.776  0.1969E+01  0.2073E+02
     10.927  0.2052E+01  0.2107E+02
     11.077  0.1368E+01  0.2133E+02
     11.228  0.1169E+01  0.2151E+02
     11.379  0.1164E+01  0.2169E+02
     11.529  0.9988E+00  0.2185E+02
     11.680  0.8887E+00  0.2199E+02
     11.830  0.8255E+00  0.2212E+02
     11.981  0.7579E+00  0.2224E+02
     12.132  0.7467E+00  0.2235E+02
     12.282  0.8909E+00  0.2248E+02
     12.433  0.9219E+00  0.2262E+02
     12.583  0.9870E+00  0.2276E+02
     12.734  0.1233E+01  0.2292E+02
     12.885  0.1723E+01  0.2315E+02
     13.035  0.1903E+01  0.2342E+02
     13.186  0.1646E+01  0.2370E+02
     13.336  0.1289E+01  0.2392E+02
     13.487  0.1038E+01  0.2410E+02
     13.638  0.8930E+00  0.2424E+02
     13.788  0.9060E+00  0.2437E+02
     13.939  0.8872E+00  0.2451E+02
     14.089  0.8945E+00  0.2464E+02
     14.240  0.9515E+00  0.2478E+02
     14.391  0.1782E+01  0.2496E+02
     14.541  0.1863E+01  0.2522E+02
     14.692  0.2130E+01  0.2553E+02
     14.842  0.1631E+01  0.2579E+02
     14.993  0.1570E+01  0.2601E+02
     15.144  0.1108E+01  0.2622E+02
     15.294  0.7710E+00  0.2635E+02
     15.445  0.8489E+00  0.2647E+02
     15.595  0.2242E+01  0.2670E+02
     15.746  0.2590E+01  0.2705E+02
     15.897  0.2112E+01  0.2743E+02
     16.047  0.1644E+01  0.2771E+02
     16.198  0.1920E+01  0.2796E+02
     16.348  0.1692E+01  0.2823E+02
     16.499  0.1695E+01  0.2848E+02
     16.650  0.1937E+01  0.2876E+02
     16.800  0.1842E+01  0.2904E+02
     16.951  0.1945E+01  0.2932E+02
     17.101  0.2020E+01  0.2962E+02
     17.252  0.1929E+01  0.2991E+02
     17.403  0.1836E+01  0.3020E+02
     17.553  0.1468E+01  0.3046E+02
     17.704  0.1409E+01  0.3067E+02
     17.854  0.2066E+01  0.3092E+02
     18.005  0.2351E+01  0.3127E+02
     18.156  0.1971E+01  0.3159E+02
     18.306  0.1130E+01  0.3183E+02
     18.457  0.4244E+00  0.3194E+02
     18.607  0.1283E+00  0.3197E+02
     18.758  0.7508E-01  0.3199E+02
     18.909  0.3843E-01  0.3200E+02
     19.059  0.1294E-01  0.3200E+02
     19.210  0.9201E-03  0.3200E+02
     19.360  0.0000E+00  0.3200E+02
     19.511  0.0000E+00  0.3200E+02
     19.662  0.0000E+00  0.3200E+02
     19.812  0.0000E+00  0.3200E+02
     19.963  0.0000E+00  0.3200E+02
     20.113  0.0000E+00  0.3200E+02
     20.264  0.0000E+00  0.3200E+02
     20.415  0.0000E+00  0.3200E+02
     20.565  0.0000E+00  0.3200E+02
     20.716  0.0000E+00  0.3200E+02
     20.866  0.0000E+00  0.3200E+02
     21.017  0.0000E+00  0.3200E+02
     21.168  0.0000E+00  0.3200E+02
     21.318  0.0000E+00  0.3200E+02
