unknown system                          
            1
    -1.392589    1.392589    1.392589
     1.392589   -1.392589    1.392589
     1.392589    1.392589   -1.392589
   Fe
     1
Direct configuration=     1
   0.00000000  0.00000000  0.00000000
