unknown system                          
            1
    -1.665710    1.665710    1.665710
     1.665710   -1.665710    1.665710
     1.665710    1.665710   -1.665710
   Ti
     1
Direct configuration=     1
   0.00000000  0.00000000  0.00000000
