   3   3   0   0
  0.3213794E+02  0.5146968E-09  0.5146968E-09  0.5146968E-09  0.5000000E-15
  1.000000000000000E-004
  CAR
 unknown system
     10.15058713    -36.26230151  301      6.45938107      1.00000000
    -36.262  0.0000E+00  0.0000E+00
    -36.108  0.0000E+00  0.0000E+00
    -35.953  0.0000E+00  0.0000E+00
    -35.798  0.0000E+00  0.0000E+00
    -35.643  0.0000E+00  0.0000E+00
    -35.489  0.0000E+00  0.0000E+00
    -35.334  0.0000E+00  0.0000E+00
    -35.179  0.0000E+00  0.0000E+00
    -35.025  0.0000E+00  0.0000E+00
    -34.870  0.0000E+00  0.0000E+00
    -34.715  0.0000E+00  0.0000E+00
    -34.560  0.0000E+00  0.0000E+00
    -34.406  0.0000E+00  0.0000E+00
    -34.251  0.0000E+00  0.0000E+00
    -34.096  0.1293E+02  0.2000E+01
    -33.942  0.0000E+00  0.2000E+01
    -33.787  0.0000E+00  0.2000E+01
    -33.632  0.0000E+00  0.2000E+01
    -33.478  0.0000E+00  0.2000E+01
    -33.323  0.0000E+00  0.2000E+01
    -33.168  0.0000E+00  0.2000E+01
    -33.013  0.0000E+00  0.2000E+01
    -32.859  0.0000E+00  0.2000E+01
    -32.704  0.0000E+00  0.2000E+01
    -32.549  0.0000E+00  0.2000E+01
    -32.395  0.0000E+00  0.2000E+01
    -32.240  0.0000E+00  0.2000E+01
    -32.085  0.0000E+00  0.2000E+01
    -31.930  0.0000E+00  0.2000E+01
    -31.776  0.0000E+00  0.2000E+01
    -31.621  0.0000E+00  0.2000E+01
    -31.466  0.0000E+00  0.2000E+01
    -31.312  0.0000E+00  0.2000E+01
    -31.157  0.0000E+00  0.2000E+01
    -31.002  0.0000E+00  0.2000E+01
    -30.847  0.0000E+00  0.2000E+01
    -30.693  0.0000E+00  0.2000E+01
    -30.538  0.0000E+00  0.2000E+01
    -30.383  0.0000E+00  0.2000E+01
    -30.229  0.0000E+00  0.2000E+01
    -30.074  0.0000E+00  0.2000E+01
    -29.919  0.0000E+00  0.2000E+01
    -29.764  0.0000E+00  0.2000E+01
    -29.610  0.0000E+00  0.2000E+01
    -29.455  0.0000E+00  0.2000E+01
    -29.300  0.0000E+00  0.2000E+01
    -29.146  0.0000E+00  0.2000E+01
    -28.991  0.0000E+00  0.2000E+01
    -28.836  0.0000E+00  0.2000E+01
    -28.682  0.0000E+00  0.2000E+01
    -28.527  0.0000E+00  0.2000E+01
    -28.372  0.0000E+00  0.2000E+01
    -28.217  0.0000E+00  0.2000E+01
    -28.063  0.0000E+00  0.2000E+01
    -27.908  0.0000E+00  0.2000E+01
    -27.753  0.0000E+00  0.2000E+01
    -27.599  0.0000E+00  0.2000E+01
    -27.444  0.0000E+00  0.2000E+01
    -27.289  0.0000E+00  0.2000E+01
    -27.134  0.0000E+00  0.2000E+01
    -26.980  0.0000E+00  0.2000E+01
    -26.825  0.0000E+00  0.2000E+01
    -26.670  0.0000E+00  0.2000E+01
    -26.516  0.0000E+00  0.2000E+01
    -26.361  0.0000E+00  0.2000E+01
    -26.206  0.0000E+00  0.2000E+01
    -26.051  0.0000E+00  0.2000E+01
    -25.897  0.0000E+00  0.2000E+01
    -25.742  0.0000E+00  0.2000E+01
    -25.587  0.0000E+00  0.2000E+01
    -25.433  0.0000E+00  0.2000E+01
    -25.278  0.0000E+00  0.2000E+01
    -25.123  0.0000E+00  0.2000E+01
    -24.968  0.0000E+00  0.2000E+01
    -24.814  0.0000E+00  0.2000E+01
    -24.659  0.0000E+00  0.2000E+01
    -24.504  0.0000E+00  0.2000E+01
    -24.350  0.0000E+00  0.2000E+01
    -24.195  0.0000E+00  0.2000E+01
    -24.040  0.0000E+00  0.2000E+01
    -23.886  0.0000E+00  0.2000E+01
    -23.731  0.0000E+00  0.2000E+01
    -23.576  0.0000E+00  0.2000E+01
    -23.421  0.0000E+00  0.2000E+01
    -23.267  0.0000E+00  0.2000E+01
    -23.112  0.0000E+00  0.2000E+01
    -22.957  0.0000E+00  0.2000E+01
    -22.803  0.0000E+00  0.2000E+01
    -22.648  0.0000E+00  0.2000E+01
    -22.493  0.0000E+00  0.2000E+01
    -22.338  0.0000E+00  0.2000E+01
    -22.184  0.0000E+00  0.2000E+01
    -22.029  0.0000E+00  0.2000E+01
    -21.874  0.0000E+00  0.2000E+01
    -21.720  0.0000E+00  0.2000E+01
    -21.565  0.0000E+00  0.2000E+01
    -21.410  0.0000E+00  0.2000E+01
    -21.255  0.0000E+00  0.2000E+01
    -21.101  0.0000E+00  0.2000E+01
    -20.946  0.0000E+00  0.2000E+01
    -20.791  0.0000E+00  0.2000E+01
    -20.637  0.0000E+00  0.2000E+01
    -20.482  0.0000E+00  0.2000E+01
    -20.327  0.0000E+00  0.2000E+01
    -20.173  0.0000E+00  0.2000E+01
    -20.018  0.0000E+00  0.2000E+01
    -19.863  0.0000E+00  0.2000E+01
    -19.708  0.0000E+00  0.2000E+01
    -19.554  0.0000E+00  0.2000E+01
    -19.399  0.0000E+00  0.2000E+01
    -19.244  0.0000E+00  0.2000E+01
    -19.090  0.0000E+00  0.2000E+01
    -18.935  0.0000E+00  0.2000E+01
    -18.780  0.0000E+00  0.2000E+01
    -18.625  0.0000E+00  0.2000E+01
    -18.471  0.0000E+00  0.2000E+01
    -18.316  0.0000E+00  0.2000E+01
    -18.161  0.0000E+00  0.2000E+01
    -18.007  0.0000E+00  0.2000E+01
    -17.852  0.0000E+00  0.2000E+01
    -17.697  0.0000E+00  0.2000E+01
    -17.542  0.0000E+00  0.2000E+01
    -17.388  0.0000E+00  0.2000E+01
    -17.233  0.0000E+00  0.2000E+01
    -17.078  0.0000E+00  0.2000E+01
    -16.924  0.0000E+00  0.2000E+01
    -16.769  0.0000E+00  0.2000E+01
    -16.614  0.0000E+00  0.2000E+01
    -16.459  0.0000E+00  0.2000E+01
    -16.305  0.6505E-10  0.2000E+01
    -16.150  0.2260E+02  0.1200E+02
    -15.995  0.0000E+00  0.1200E+02
    -15.841  0.0000E+00  0.1200E+02
    -15.686  0.0000E+00  0.1200E+02
    -15.531  0.0000E+00  0.1200E+02
    -15.377  0.0000E+00  0.1200E+02
    -15.222  0.0000E+00  0.1200E+02
    -15.067  0.0000E+00  0.1200E+02
    -14.912  0.0000E+00  0.1200E+02
    -14.758  0.0000E+00  0.1200E+02
    -14.603  0.0000E+00  0.1200E+02
    -14.448  0.0000E+00  0.1200E+02
    -14.294  0.0000E+00  0.1200E+02
    -14.139  0.0000E+00  0.1200E+02
    -13.984  0.0000E+00  0.1200E+02
    -13.829  0.0000E+00  0.1200E+02
    -13.675  0.0000E+00  0.1200E+02
    -13.520  0.0000E+00  0.1200E+02
    -13.365  0.0000E+00  0.1200E+02
    -13.211  0.0000E+00  0.1200E+02
    -13.056  0.0000E+00  0.1200E+02
    -12.901  0.0000E+00  0.1200E+02
    -12.746  0.0000E+00  0.1200E+02
    -12.592  0.0000E+00  0.1200E+02
    -12.437  0.0000E+00  0.1200E+02
    -12.282  0.0000E+00  0.1200E+02
    -12.128  0.0000E+00  0.1200E+02
    -11.973  0.1209E+02  0.1387E+02
    -11.818  0.0000E+00  0.1800E+02
    -11.663  0.0000E+00  0.1800E+02
    -11.509  0.0000E+00  0.1800E+02
    -11.354  0.0000E+00  0.1800E+02
    -11.199  0.0000E+00  0.1800E+02
    -11.045  0.0000E+00  0.1800E+02
    -10.890  0.0000E+00  0.1800E+02
    -10.735  0.0000E+00  0.1800E+02
    -10.581  0.0000E+00  0.1800E+02
    -10.426  0.0000E+00  0.1800E+02
    -10.271  0.0000E+00  0.1800E+02
    -10.116  0.0000E+00  0.1800E+02
     -9.962  0.0000E+00  0.1800E+02
     -9.807  0.0000E+00  0.1800E+02
     -9.652  0.0000E+00  0.1800E+02
     -9.498  0.0000E+00  0.1800E+02
     -9.343  0.0000E+00  0.1800E+02
     -9.188  0.0000E+00  0.1800E+02
     -9.033  0.0000E+00  0.1800E+02
     -8.879  0.0000E+00  0.1800E+02
     -8.724  0.0000E+00  0.1800E+02
     -8.569  0.0000E+00  0.1800E+02
     -8.415  0.0000E+00  0.1800E+02
     -8.260  0.0000E+00  0.1800E+02
     -8.105  0.0000E+00  0.1800E+02
     -7.950  0.0000E+00  0.1800E+02
     -7.796  0.0000E+00  0.1800E+02
     -7.641  0.0000E+00  0.1800E+02
     -7.486  0.0000E+00  0.1800E+02
     -7.332  0.0000E+00  0.1800E+02
     -7.177  0.0000E+00  0.1800E+02
     -7.022  0.0000E+00  0.1800E+02
     -6.867  0.0000E+00  0.1800E+02
     -6.713  0.0000E+00  0.1800E+02
     -6.558  0.0000E+00  0.1800E+02
     -6.403  0.0000E+00  0.1800E+02
     -6.249  0.0000E+00  0.1800E+02
     -6.094  0.0000E+00  0.1800E+02
     -5.939  0.0000E+00  0.1800E+02
     -5.785  0.0000E+00  0.1800E+02
     -5.630  0.0000E+00  0.1800E+02
     -5.475  0.0000E+00  0.1800E+02
     -5.320  0.0000E+00  0.1800E+02
     -5.166  0.0000E+00  0.1800E+02
     -5.011  0.0000E+00  0.1800E+02
     -4.856  0.8386E-01  0.1801E+02
     -4.702  0.3515E+00  0.1810E+02
     -4.547  0.8827E+00  0.1829E+02
     -4.392  0.4671E+01  0.1924E+02
     -4.237  0.1883E+00  0.2000E+02
     -4.083  0.0000E+00  0.2000E+02
     -3.928  0.0000E+00  0.2000E+02
     -3.773  0.0000E+00  0.2000E+02
     -3.619  0.0000E+00  0.2000E+02
     -3.464  0.0000E+00  0.2000E+02
     -3.309  0.0000E+00  0.2000E+02
     -3.154  0.0000E+00  0.2000E+02
     -3.000  0.0000E+00  0.2000E+02
     -2.845  0.0000E+00  0.2000E+02
     -2.690  0.0000E+00  0.2000E+02
     -2.536  0.0000E+00  0.2000E+02
     -2.381  0.0000E+00  0.2000E+02
     -2.226  0.0000E+00  0.2000E+02
     -2.071  0.0000E+00  0.2000E+02
     -1.917  0.0000E+00  0.2000E+02
     -1.762  0.0000E+00  0.2000E+02
     -1.607  0.0000E+00  0.2000E+02
     -1.453  0.0000E+00  0.2000E+02
     -1.298  0.0000E+00  0.2000E+02
     -1.143  0.0000E+00  0.2000E+02
     -0.989  0.0000E+00  0.2000E+02
     -0.834  0.0000E+00  0.2000E+02
     -0.679  0.0000E+00  0.2000E+02
     -0.524  0.0000E+00  0.2000E+02
     -0.370  0.0000E+00  0.2000E+02
     -0.215  0.0000E+00  0.2000E+02
     -0.060  0.0000E+00  0.2000E+02
      0.094  0.0000E+00  0.2000E+02
      0.249  0.0000E+00  0.2000E+02
      0.404  0.0000E+00  0.2000E+02
      0.559  0.0000E+00  0.2000E+02
      0.713  0.0000E+00  0.2000E+02
      0.868  0.0000E+00  0.2000E+02
      1.023  0.0000E+00  0.2000E+02
      1.177  0.0000E+00  0.2000E+02
      1.332  0.1870E+00  0.2003E+02
      1.487  0.1073E+01  0.2024E+02
      1.642  0.3015E+01  0.2083E+02
      1.796  0.1832E+01  0.2135E+02
      1.951  0.1101E+01  0.2166E+02
      2.106  0.9801E+00  0.2192E+02
      2.260  0.4188E-03  0.2195E+02
      2.415  0.1229E+00  0.2199E+02
      2.570  0.5553E+01  0.2344E+02
      2.725  0.3711E+01  0.2447E+02
      2.879  0.3602E+01  0.2556E+02
      3.034  0.1337E-01  0.2601E+02
      3.189  0.8164E+00  0.2618E+02
      3.343  0.8309E+01  0.2856E+02
      3.498  0.7266E+01  0.3072E+02
      3.653  0.1419E+01  0.3154E+02
      3.807  0.9411E+00  0.3185E+02
      3.962  0.9213E+00  0.3212E+02
      4.117  0.1292E+01  0.3238E+02
      4.272  0.6103E+00  0.3260E+02
      4.426  0.1465E+01  0.3296E+02
      4.581  0.5954E+00  0.3317E+02
      4.736  0.1091E+01  0.3349E+02
      4.890  0.5074E+00  0.3370E+02
      5.045  0.6166E+01  0.3530E+02
      5.200  0.9697E+00  0.3577E+02
      5.355  0.5648E+00  0.3593E+02
      5.509  0.7059E-01  0.3597E+02
      5.664  0.9656E-01  0.3601E+02
      5.819  0.4748E-01  0.3603E+02
      5.973  0.2289E+00  0.3608E+02
      6.128  0.3761E+00  0.3622E+02
      6.283  0.4538E+00  0.3637E+02
      6.438  0.1558E+01  0.3690E+02
      6.592  0.1761E+01  0.3751E+02
      6.747  0.1502E+01  0.3800E+02
      6.902  0.1063E+01  0.3825E+02
      7.056  0.7749E+00  0.3842E+02
      7.211  0.8551E+00  0.3861E+02
      7.366  0.2861E+01  0.3924E+02
      7.521  0.3897E+01  0.4035E+02
      7.675  0.4168E+01  0.4136E+02
      7.830  0.8504E+01  0.4336E+02
      7.985  0.8584E+01  0.4698E+02
      8.139  0.0000E+00  0.4800E+02
      8.294  0.0000E+00  0.4800E+02
      8.449  0.0000E+00  0.4800E+02
      8.603  0.0000E+00  0.4800E+02
      8.758  0.0000E+00  0.4800E+02
      8.913  0.0000E+00  0.4800E+02
      9.068  0.0000E+00  0.4800E+02
      9.222  0.0000E+00  0.4800E+02
      9.377  0.0000E+00  0.4800E+02
      9.532  0.0000E+00  0.4800E+02
      9.686  0.0000E+00  0.4800E+02
      9.841  0.0000E+00  0.4800E+02
      9.996  0.0000E+00  0.4800E+02
     10.151  0.0000E+00  0.4800E+02
