    3    3    1    1
  0.3213794E+02  0.5146968E-09  0.5146968E-09  0.5146968E-09  0.5000000E-15
  1.000000000000000E-004
  CAR
 unknown system
     37     84     24

  0.0000000E+00  0.0000000E+00  0.0000000E+00  0.4551661E-03
    1      -34.152625   1.000000
    2      -16.253008   1.000000
    3      -16.253008   1.000000
    4      -16.230702   1.000000
    5      -16.230702   1.000000
    6      -16.230702   1.000000
    7      -11.928936   1.000000
    8      -11.928936   1.000000
    9      -11.928936   1.000000
   10       -4.909126   1.000000
   11        2.865423   1.000000
   12        2.865423   1.000000
   13        2.865423   1.000000
   14        3.182199   1.000000
   15        3.182199   1.000000
   16        4.047298   1.000000
   17        5.658222   1.000000
   18        5.658222   1.000000
   19        5.658222   1.000000
   20        6.749625   0.000000
   21        6.749625   0.000000
   22        6.749625   0.000000
   23        7.345082   0.000000
   24        7.953093   0.000000

  0.7692308E-01 -0.1384965E-17  0.2154906E-17  0.3641329E-02
    1      -34.152530   1.000000
    2      -16.253272   1.000000
    3      -16.253272   1.000000
    4      -16.230737   1.000000
    5      -16.230632   1.000000
    6      -16.230632   1.000000
    7      -11.934993   1.000000
    8      -11.928370   1.000000
    9      -11.928370   1.000000
   10       -4.875045   1.000000
   11        2.706670   1.000000
   12        2.807715   1.000000
   13        2.807715   1.000000
   14        3.236891   1.000000
   15        3.236891   1.000000
   16        4.039078   1.000000
   17        5.583191   1.000000
   18        5.583191   1.000000
   19        5.646342   1.000000
   20        6.810601   0.000000
   21        6.827404   0.000000
   22        6.827404   0.000000
   23        7.492288   0.000000
   24        7.958940   0.000000

  0.1538462E+00  0.3036101E-17 -0.1496220E-17  0.3641329E-02
    1      -34.152274   1.000000
    2      -16.254014   1.000000
    3      -16.254014   1.000000
    4      -16.230851   1.000000
    5      -16.230444   1.000000
    6      -16.230444   1.000000
    7      -11.951523   1.000000
    8      -11.926797   1.000000
    9      -11.926797   1.000000
   10       -4.780018   1.000000
   11        2.358615   1.000000
   12        2.707162   1.000000
   13        2.707162   1.000000
   14        3.322164   1.000000
   15        3.322164   1.000000
   16        3.925665   1.000000
   17        5.422178   1.000000
   18        5.422178   1.000000
   19        5.659013   1.000000
   20        7.008282   0.000000
   21        7.008282   0.000000
   22        7.074685   0.000000
   23        7.735355   0.000000
   24        7.987902   0.000000

  0.2307692E+00  0.1651136E-17  0.6586860E-18  0.3641329E-02
    1      -34.151913   1.000000
    2      -16.255067   1.000000
    3      -16.255067   1.000000
    4      -16.231040   1.000000
    5      -16.230172   1.000000
    6      -16.230172   1.000000
    7      -11.974227   1.000000
    8      -11.924589   1.000000
    9      -11.924589   1.000000
   10       -4.644459   1.000000
   11        1.980161   1.000000
   12        2.623619   1.000000
   13        2.623619   1.000000
   14        3.365652   1.000000
   15        3.365652   1.000000
   16        3.711549   1.000000
   17        5.267520   1.000000
   18        5.267520   1.000000
   19        5.730706   1.000000
   20        7.219418   0.000000
   21        7.219418   0.000000
   22        7.477779   0.000000
   23        7.908306   0.000000
   24        7.996842   0.000000

  0.3076923E+00  0.6072202E-17 -0.2992439E-17  0.3641329E-02
    1      -34.151529   1.000000
    2      -16.256187   1.000000
    3      -16.256187   1.000000
    4      -16.231248   1.000000
    5      -16.229872   1.000000
    6      -16.229872   1.000000
    7      -11.997583   1.000000
    8      -11.922253   1.000000
    9      -11.922253   1.000000
   10       -4.498417   1.000000
   11        1.650479   1.000000
   12        2.573340   1.000000
   13        2.573340   1.000000
   14        3.349032   1.000000
   15        3.349032   1.000000
   16        3.500229   1.000000
   17        5.164384   1.000000
   18        5.164384   1.000000
   19        5.847923   1.000000
   20        7.410605   0.000000
   21        7.410605   0.000000
   22        7.831884   0.000000
   23        7.964416   0.000000
   24        7.964849   0.000000

  0.3846154E+00  0.4687237E-17 -0.8375336E-18  0.3641329E-02
    1      -34.151212   1.000000
    2      -16.257127   1.000000
    3      -16.257127   1.000000
    4      -16.231434   1.000000
    5      -16.229611   1.000000
    6      -16.229611   1.000000
    7      -12.016384   1.000000
    8      -11.920322   1.000000
    9      -11.920322   1.000000
   10       -4.375607   1.000000
   11        1.410660   1.000000
   12        2.554504   1.000000
   13        2.554504   1.000000
   14        3.294826   1.000000
   15        3.294827   1.000000
   16        3.350903   1.000000
   17        5.113789   1.000000
   18        5.113789   1.000000
   19        5.990145   1.000000
   20        7.545867   0.000000
   21        7.545867   0.000000
   22        7.929430   0.000000
   23        7.929528   0.000000
   24        7.967857   0.000000

  0.4615385E+00 -0.7271263E-17  0.1189091E-16  0.3641329E-02
    1      -34.151031   1.000000
    2      -16.257658   1.000000
    3      -16.257658   1.000000
    4      -16.231556   1.000000
    5      -16.229471   1.000000
    6      -16.229471   1.000000
    7      -12.026784   1.000000
    8      -11.919234   1.000000
    9      -11.919234   1.000000
   10       -4.305526   1.000000
   11        1.284798   1.000000
   12        2.553155   1.000000
   13        2.553155   1.000000
   14        3.248936   1.000000
   15        3.248936   1.000000
   16        3.277425   1.000000
   17        5.096154   1.000000
   18        5.096154   1.000000
   19        6.104321   1.000000
   20        7.613759   0.000000
   21        7.613759   0.000000
   22        7.907571   0.000000
   23        7.907704   0.000000
   24        7.940317   0.000000

  0.7692308E-01  0.7692308E-01  0.1275817E-17  0.2730997E-02
    1      -34.152500   1.000000
    2      -16.253761   1.000000
    3      -16.252907   1.000000
    4      -16.230812   1.000000
    5      -16.230572   1.000000
    6      -16.230572   1.000000
    7      -11.933414   1.000000
    8      -11.929999   1.000000
    9      -11.929999   1.000000
   10       -4.864572   1.000000
   11        2.549561   1.000000
   12        2.879390   1.000000
   13        2.879390   1.000000
   14        3.196582   1.000000
   15        3.245998   1.000000
   16        4.050050   1.000000
   17        5.484862   1.000000
   18        5.484862   1.000000
   19        5.821594   1.000000
   20        6.595425   0.000000
   21        6.952579   0.000000
   22        6.952579   0.000000
   23        7.518006   0.000000
   24        7.952959   0.000000

  0.1538462E+00  0.7692308E-01 -0.8603545E-18  0.1092399E-01
    1      -34.152299   1.000000
    2      -16.254606   1.000000
    3      -16.253091   1.000000
    4      -16.230935   1.000000
    5      -16.230428   1.000000
    6      -16.230397   1.000000
    7      -11.945716   1.000000
    8      -11.930381   1.000000
    9      -11.927998   1.000000
   10       -4.792456   1.000000
   11        2.279853   1.000000
   12        2.794166   1.000000
   13        2.842246   1.000000
   14        3.250763   1.000000
   15        3.306358   1.000000
   16        3.993602   1.000000
   17        5.302115   1.000000
   18        5.331150   1.000000
   19        5.950643   1.000000
   20        6.606986   0.000000
   21        7.134616   0.000000
   22        7.161436   0.000000
   23        7.700619   0.000000
   24        7.952566   0.000000

  0.2307692E+00  0.7692308E-01 -0.1207227E-17  0.1092399E-01
    1      -34.151974   1.000000
    2      -16.255612   1.000000
    3      -16.253788   1.000000
    4      -16.231063   1.000000
    5      -16.230231   1.000000
    6      -16.230127   1.000000
    7      -11.966218   1.000000
    8      -11.929430   1.000000
    9      -11.925240   1.000000
   10       -4.674542   1.000000
   11        1.984240   1.000000
   12        2.649099   1.000000
   13        2.768992   1.000000
   14        3.306299   1.000000
   15        3.375819   1.000000
   16        3.817765   1.000000
   17        5.121553   1.000000
   18        5.195535   1.000000
   19        6.012434   1.000000
   20        6.866434   0.000000
   21        7.315413   0.000000
   22        7.438484   0.000000
   23        7.871778   0.000000
   24        7.955182   0.000000

  0.3076923E+00  0.7692308E-01  0.1027032E-16  0.1092399E-01
    1      -34.151599   1.000000
    2      -16.256559   1.000000
    3      -16.254834   1.000000
    4      -16.231210   1.000000
    5      -16.229996   1.000000
    6      -16.229827   1.000000
    7      -11.989065   1.000000
    8      -11.927372   1.000000
    9      -11.923121   1.000000
   10       -4.537205   1.000000
   11        1.706329   1.000000
   12        2.548119   1.000000
   13        2.705351   1.000000
   14        3.308600   1.000000
   15        3.392222   1.000000
   16        3.599612   1.000000
   17        5.013425   1.000000
   18        5.111907   1.000000
   19        6.037630   1.000000
   20        7.208112   0.000000
   21        7.468099   0.000000
   22        7.732378   0.000000
   23        7.949454   0.000000
   24        7.959555   0.000000

  0.3846154E+00  0.7692308E-01 -0.1452558E-17  0.1092399E-01
    1      -34.151260   1.000000
    2      -16.257222   1.000000
    3      -16.255996   1.000000
    4      -16.231358   1.000000
    5      -16.229767   1.000000
    6      -16.229563   1.000000
    7      -12.009027   1.000000
    8      -11.924679   1.000000
    9      -11.922107   1.000000
   10       -4.411828   1.000000
   11        1.486492   1.000000
   12        2.507248   1.000000
   13        2.654458   1.000000
   14        3.274044   1.000000
   15        3.350201   1.000000
   16        3.425147   1.000000
   17        4.965184   1.000000
   18        5.075733   1.000000
   19        6.101432   1.000000
   20        7.451969   0.000000
   21        7.575793   0.000000
   22        7.888004   0.000000
   23        7.931431   0.000000
   24        7.991998   0.000000

  0.4615385E+00  0.7692308E-01  0.1377766E-16  0.1092399E-01
    1      -34.151036   1.000000
    2      -16.257468   1.000000
    3      -16.256996   1.000000
    4      -16.231460   1.000000
    5      -16.229598   1.000000
    6      -16.229411   1.000000
    7      -12.021927   1.000000
    8      -11.922396   1.000000
    9      -11.921963   1.000000
   10       -4.327670   1.000000
   11        1.351545   1.000000
   12        2.518720   1.000000
   13        2.603634   1.000000
   14        3.251606   1.000000
   15        3.286523   1.000000
   16        3.320876   1.000000
   17        4.948981   1.000000
   18        5.065500   1.000000
   19        6.192830   1.000000
   20        7.563334   0.000000
   21        7.633288   0.000000
   22        7.886583   0.000000
   23        7.906233   0.000000
   24        7.980148   0.000000

 -0.4615385E+00  0.7692308E-01 -0.1250593E-16  0.1092399E-01
    1      -34.150976   1.000000
    2      -16.257598   1.000000
    3      -16.257212   1.000000
    4      -16.231476   1.000000
    5      -16.229524   1.000000
    6      -16.229399   1.000000
    7      -12.025271   1.000000
    8      -11.923889   1.000000
    9      -11.919840   1.000000
   10       -4.304652   1.000000
   11        1.316209   1.000000
   12        2.546636   1.000000
   13        2.564729   1.000000
   14        3.247180   1.000000
   15        3.275363   1.000000
   16        3.285126   1.000000
   17        4.938949   1.000000
   18        5.068345   1.000000
   19        6.233674   1.000000
   20        7.589735   0.000000
   21        7.633629   0.000000
   22        7.891740   0.000000
   23        7.893709   0.000000
   24        7.962829   0.000000

 -0.3846154E+00  0.7692308E-01  0.2225096E-18  0.1092399E-01
    1      -34.151093   1.000000
    2      -16.257669   1.000000
    3      -16.256527   1.000000
    4      -16.231404   1.000000
    5      -16.229580   1.000000
    6      -16.229539   1.000000
    7      -12.018457   1.000000
    8      -11.926205   1.000000
    9      -11.918795   1.000000
   10       -4.348331   1.000000
   11        1.385295   1.000000
   12        2.497738   1.000000
   13        2.625132   1.000000
   14        3.238401   1.000000
   15        3.337636   1.000000
   16        3.337704   1.000000
   17        4.920512   1.000000
   18        5.088854   1.000000
   19        6.178771   1.000000
   20        7.563335   0.000000
   21        7.589025   0.000000
   22        7.901655   0.000000
   23        7.902935   0.000000
   24        7.980797   0.000000

 -0.3076923E+00  0.7692308E-01  0.2377415E-17  0.1092399E-01
    1      -34.151365   1.000000
    2      -16.257211   1.000000
    3      -16.255562   1.000000
    4      -16.231269   1.000000
    5      -16.229792   1.000000
    6      -16.229747   1.000000
    7      -12.002830   1.000000
    8      -11.928780   1.000000
    9      -11.919070   1.000000
   10       -4.448379   1.000000
   11        1.554549   1.000000
   12        2.478350   1.000000
   13        2.690690   1.000000
   14        3.265822   1.000000
   15        3.402786   1.000000
   16        3.467397   1.000000
   17        4.899059   1.000000
   18        5.145137   1.000000
   19        6.094851   1.000000
   20        7.417170   0.000000
   21        7.514515   0.000000
   22        7.875561   0.000000
   23        7.925967   0.000000
   24        7.996994   0.000000

 -0.2307692E+00  0.7692308E-01 -0.1515150E-16  0.1092399E-01
    1      -34.151726   1.000000
    2      -16.256308   1.000000
    3      -16.254543   1.000000
    4      -16.231098   1.000000
    5      -16.230084   1.000000
    6      -16.229986   1.000000
    7      -11.981587   1.000000
    8      -11.930952   1.000000
    9      -11.920606   1.000000
   10       -4.581157   1.000000
   11        1.810172   1.000000
   12        2.502458   1.000000
   13        2.765939   1.000000
   14        3.287316   1.000000
   15        3.431567   1.000000
   16        3.663762   1.000000
   17        4.910224   1.000000
   18        5.254791   1.000000
   19        6.034764   1.000000
   20        7.211222   0.000000
   21        7.308449   0.000000
   22        7.660363   0.000000
   23        7.945077   0.000000
   24        7.946987   0.000000

 -0.1538462E+00  0.7692308E-01  0.8811955E-18  0.1092399E-01
    1      -34.152093   1.000000
    2      -16.255186   1.000000
    3      -16.253703   1.000000
    4      -16.230944   1.000000
    5      -16.230360   1.000000
    6      -16.230246   1.000000
    7      -11.959516   1.000000
    8      -11.932050   1.000000
    9      -11.923060   1.000000
   10       -4.715747   1.000000
   11        2.125895   1.000000
   12        2.573507   1.000000
   13        2.849896   1.000000
   14        3.261586   1.000000
   15        3.403864   1.000000
   16        3.873671   1.000000
   17        5.020213   1.000000
   18        5.409169   1.000000
   19        5.971297   1.000000
   20        6.981222   0.000000
   21        6.995293   0.000000
   22        7.415574   0.000000
   23        7.824590   0.000000
   24        7.955444   0.000000

 -0.7692308E-01  0.7692308E-01 -0.2769930E-17  0.5461994E-02
    1      -34.152383   1.000000
    2      -16.254094   1.000000
    3      -16.253253   1.000000
    4      -16.230822   1.000000
    5      -16.230556   1.000000
    6      -16.230476   1.000000
    7      -11.942468   1.000000
    8      -11.931177   1.000000
    9      -11.925861   1.000000
   10       -4.821548   1.000000
   11        2.455353   1.000000
   12        2.683674   1.000000
   13        2.891235   1.000000
   14        3.219072   1.000000
   15        3.328104   1.000000
   16        4.004432   1.000000
   17        5.277680   1.000000
   18        5.549944   1.000000
   19        5.818694   1.000000
   20        6.785378   0.000000
   21        6.841682   0.000000
   22        7.144852   0.000000
   23        7.641966   0.000000
   24        7.964824   0.000000

  0.1538462E+00  0.1538462E+00  0.2551634E-17  0.2730997E-02
    1      -34.152162   1.000000
    2      -16.255343   1.000000
    3      -16.252637   1.000000
    4      -16.231139   1.000000
    5      -16.230226   1.000000
    6      -16.230226   1.000000
    7      -11.945864   1.000000
    8      -11.932983   1.000000
    9      -11.932983   1.000000
   10       -4.750476   1.000000
   11        2.049268   1.000000
   12        2.912675   1.000000
   13        2.912675   1.000000
   14        3.237128   1.000000
   15        3.237821   1.000000
   16        4.017297   1.000000
   17        5.198559   1.000000
   18        5.198559   1.000000
   19        6.091551   1.000000
   20        6.444666   0.981285
   21        7.294316   0.000000
   22        7.294316   0.000000
   23        7.766003   0.000000
   24        7.946295   0.000000

  0.2307692E+00  0.1538462E+00  0.7111002E-17  0.1092399E-01
    1      -34.151894   1.000000
    2      -16.256053   1.000000
    3      -16.252770   1.000000
    4      -16.231324   1.000000
    5      -16.230011   1.000000
    6      -16.229964   1.000000
    7      -11.960483   1.000000
    8      -11.934015   1.000000
    9      -11.931777   1.000000
   10       -4.664367   1.000000
   11        1.833983   1.000000
   12        2.822853   1.000000
   13        2.892790   1.000000
   14        3.277765   1.000000
   15        3.279861   1.000000
   16        3.927726   1.000000
   17        5.002359   1.000000
   18        5.086105   1.000000
   19        6.287311   1.000000
   20        6.487731   0.000030
   21        7.435558   0.000000
   22        7.472319   0.000000
   23        7.878744   0.000000
   24        7.941921   0.000000

  0.3076923E+00  0.1538462E+00  0.1583543E-17  0.1092399E-01
    1      -34.151557   1.000000
    2      -16.256576   1.000000
    3      -16.253457   1.000000
    4      -16.231422   1.000000
    5      -16.229836   1.000000
    6      -16.229656   1.000000
    7      -11.980505   1.000000
    8      -11.933246   1.000000
    9      -11.929986   1.000000
   10       -4.554525   1.000000
   11        1.665537   1.000000
   12        2.666648   1.000000
   13        2.838880   1.000000
   14        3.296402   1.000000
   15        3.344522   1.000000
   16        3.747808   1.000000
   17        4.804596   1.000000
   18        5.023431   1.000000
   19        6.318957   1.000000
   20        6.887021   0.000000
   21        7.545864   0.000000
   22        7.668702   0.000000
   23        7.934926   0.000000
   24        7.962940   0.000000

  0.3846154E+00  0.1538462E+00  0.3738449E-17  0.1092399E-01
    1      -34.151229   1.000000
    2      -16.256800   1.000000
    3      -16.254537   1.000000
    4      -16.231441   1.000000
    5      -16.229729   1.000000
    6      -16.229390   1.000000
    7      -11.999246   1.000000
    8      -11.930856   1.000000
    9      -11.930002   1.000000
   10       -4.446443   1.000000
   11        1.550001   1.000000
   12        2.553927   1.000000
   13        2.771651   1.000000
   14        3.284540   1.000000
   15        3.355824   1.000000
   16        3.554982   1.000000
   17        4.697049   1.000000
   18        5.002069   1.000000
   19        6.308518   1.000000
   20        7.312553   0.000000
   21        7.625012   0.000000
   22        7.825156   0.000000
   23        7.920829   0.000000
   24        7.985330   0.000000

  0.4615385E+00  0.1538462E+00  0.2589102E-17  0.1092399E-01
    1      -34.150983   1.000000
    2      -16.256672   1.000000
    3      -16.255753   1.000000
    4      -16.231394   1.000000
    5      -16.229687   1.000000
    6      -16.229231   1.000000
    7      -12.012514   1.000000
    8      -11.931934   1.000000
    9      -11.927392   1.000000
   10       -4.364250   1.000000
   11        1.480526   1.000000
   12        2.513463   1.000000
   13        2.684946   1.000000
   14        3.284951   1.000000
   15        3.311342   1.000000
   16        3.421570   1.000000
   17        4.654285   1.000000
   18        4.997166   1.000000
   19        6.353989   1.000000
   20        7.497573   0.000000
   21        7.674284   0.000000
   22        7.859559   0.000000
   23        7.898731   0.000000
   24        8.005772   0.000000

 -0.4615385E+00  0.1538462E+00  0.4061085E-17  0.1092399E-01
    1      -34.150878   1.000000
    2      -16.256830   1.000000
    3      -16.256230   1.000000
    4      -16.231301   1.000000
    5      -16.229700   1.000000
    6      -16.229215   1.000000
    7      -12.017779   1.000000
    8      -11.935202   1.000000
    9      -11.923639   1.000000
   10       -4.325582   1.000000
   11        1.449212   1.000000
   12        2.545044   1.000000
   13        2.584429   1.000000
   14        3.258130   1.000000
   15        3.324447   1.000000
   16        3.361510   1.000000
   17        4.630366   1.000000
   18        4.997299   1.000000
   19        6.424010   1.000000
   20        7.505110   0.000000
   21        7.684550   0.000000
   22        7.878028   0.000000
   23        7.885935   0.000000
   24        7.987555   0.000000

 -0.3846154E+00  0.1538462E+00 -0.1596961E-16  0.1092399E-01
    1      -34.150935   1.000000
    2      -16.257516   1.000000
    3      -16.255557   1.000000
    4      -16.231193   1.000000
    5      -16.229745   1.000000
    6      -16.229345   1.000000
    7      -12.014294   1.000000
    8      -11.938801   1.000000
    9      -11.920453   1.000000
   10       -4.338751   1.000000
   11        1.458244   1.000000
   12        2.493897   1.000000
   13        2.631237   1.000000
   14        3.227999   1.000000
   15        3.381566   1.000000
   16        3.391858   1.000000
   17        4.591295   1.000000
   18        5.011778   1.000000
   19        6.447364   0.955381
   20        7.525069   0.000000
   21        7.629625   0.000000
   22        7.876131   0.000000
   23        7.898607   0.000000
   24        7.994697   0.000000

 -0.3076923E+00  0.1538462E+00 -0.8811144E-17  0.1092399E-01
    1      -34.151143   1.000000
    2      -16.257659   1.000000
    3      -16.254814   1.000000
    4      -16.231113   1.000000
    5      -16.229811   1.000000
    6      -16.229590   1.000000
    7      -12.003152   1.000000
    8      -11.941496   1.000000
    9      -11.918563   1.000000
   10       -4.401622   1.000000
   11        1.521067   1.000000
   12        2.437169   1.000000
   13        2.746819   1.000000
   14        3.219462   1.000000
   15        3.455926   1.000000
   16        3.490478   1.000000
   17        4.534144   1.000000
   18        5.061760   1.000000
   19        6.431622   0.999957
   20        7.497718   0.000000
   21        7.520809   0.000000
   22        7.886789   0.000000
   23        7.891676   0.000000
   24        8.014427   0.000000

 -0.2307692E+00  0.1538462E+00  0.3917297E-17  0.1092399E-01
    1      -34.151455   1.000000
    2      -16.257237   1.000000
    3      -16.254161   1.000000
    4      -16.231063   1.000000
    5      -16.229905   1.000000
    6      -16.229884   1.000000
    7      -11.987294   1.000000
    8      -11.941925   1.000000
    9      -11.918407   1.000000
   10       -4.501120   1.000000
   11        1.653853   1.000000
   12        2.429245   1.000000
   13        2.859474   1.000000
   14        3.222704   1.000000
   15        3.485151   1.000000
   16        3.657837   1.000000
   17        4.513049   1.000000
   18        5.162439   1.000000
   19        6.410604   1.000000
   20        7.308396   0.000000
   21        7.357517   0.000000
   22        7.795982   0.000000
   23        7.913345   0.000000
   24        7.992947   0.000000

 -0.1538462E+00  0.1538462E+00  0.6072202E-17  0.5461994E-02
    1      -34.151797   1.000000
    2      -16.256352   1.000000
    3      -16.253766   1.000000
    4      -16.231020   1.000000
    5      -16.230168   1.000000
    6      -16.230051   1.000000
    7      -11.971348   1.000000
    8      -11.938703   1.000000
    9      -11.920029   1.000000
   10       -4.614774   1.000000
   11        1.862031   1.000000
   12        2.475861   1.000000
   13        2.920667   1.000000
   14        3.221910   1.000000
   15        3.465195   1.000000
   16        3.802221   1.000000
   17        4.655929   1.000000
   18        5.298222   1.000000
   19        6.302412   1.000000
   20        7.079109   0.000000
   21        7.115635   0.000000
   22        7.644653   0.000000
   23        7.918425   0.000000
   24        7.935190   0.000000

  0.2307692E+00  0.2307692E+00  0.3827451E-17  0.2730997E-02
    1      -34.151693   1.000000
    2      -16.256281   1.000000
    3      -16.252260   1.000000
    4      -16.231613   1.000000
    5      -16.229703   1.000000
    6      -16.229703   1.000000
    7      -11.963583   1.000000
    8      -11.937295   1.000000
    9      -11.937295   1.000000
   10       -4.617820   1.000000
   11        1.689604   1.000000
   12        2.943010   1.000000
   13        2.943010   1.000000
   14        3.154160   1.000000
   15        3.296166   1.000000
   16        3.930117   1.000000
   17        4.994034   1.000000
   18        4.994034   1.000000
   19        6.132911   1.000000
   20        6.599062   0.000000
   21        7.536649   0.000000
   22        7.536649   0.000000
   23        7.917892   0.000000
   24        7.932958   0.000000

  0.3076923E+00  0.2307692E+00  0.8532858E-17  0.1092399E-01
    1      -34.151414   1.000000
    2      -16.256241   1.000000
    3      -16.252375   1.000000
    4      -16.231799   1.000000
    5      -16.229461   1.000000
    6      -16.229402   1.000000
    7      -11.977029   1.000000
    8      -11.938524   1.000000
    9      -11.938038   1.000000
   10       -4.547755   1.000000
   11        1.607776   1.000000
   12        2.829421   1.000000
   13        2.926181   1.000000
   14        3.203374   1.000000
   15        3.322284   1.000000
   16        3.827992   1.000000
   17        4.819276   1.000000
   18        4.948718   1.000000
   19        6.279365   1.000000
   20        6.756837   0.000000
   21        7.612266   0.000000
   22        7.643095   0.000000
   23        7.922517   0.000000
   24        7.938610   0.000000

  0.3846154E+00  0.2307692E+00  0.3123425E-17  0.1092399E-01
    1      -34.151124   1.000000
    2      -16.255946   1.000000
    3      -16.253097   1.000000
    4      -16.231823   1.000000
    5      -16.229363   1.000000
    6      -16.229138   1.000000
    7      -11.991951   1.000000
    8      -11.939473   1.000000
    9      -11.937431   1.000000
   10       -4.471440   1.000000
   11        1.595572   1.000000
   12        2.669773   1.000000
   13        2.868891   1.000000
   14        3.282095   1.000000
   15        3.328380   1.000000
   16        3.672345   1.000000
   17        4.588591   1.000000
   18        4.939043   1.000000
   19        6.382640   1.000000
   20        7.148943   0.000000
   21        7.668761   0.000000
   22        7.763641   0.000000
   23        7.910802   0.000000
   24        7.934919   0.000000

  0.4615385E+00  0.2307692E+00  0.1974078E-17  0.1092399E-01
    1      -34.150890   1.000000
    2      -16.255466   1.000000
    3      -16.254237   1.000000
    4      -16.231671   1.000000
    5      -16.229427   1.000000
    6      -16.228967   1.000000
    7      -12.002796   1.000000
    8      -11.943503   1.000000
    9      -11.934266   1.000000
   10       -4.405364   1.000000
   11        1.627196   1.000000
   12        2.562964   1.000000
   13        2.774694   1.000000
   14        3.302144   1.000000
   15        3.341720   1.000000
   16        3.530697   1.000000
   17        4.427404   1.000000
   18        4.934753   1.000000
   19        6.431755   0.999953
   20        7.447916   0.000000
   21        7.711551   0.000000
   22        7.827963   0.000000
   23        7.895868   0.000000
   24        8.040910   0.000000

 -0.4615385E+00  0.2307692E+00  0.3446061E-17  0.1092399E-01
    1      -34.150759   1.000000
    2      -16.255534   1.000000
    3      -16.254921   1.000000
    4      -16.231375   1.000000
    5      -16.229632   1.000000
    6      -16.228945   1.000000
    7      -12.007151   1.000000
    8      -11.949387   1.000000
    9      -11.929749   1.000000
   10       -4.362008   1.000000
   11        1.651356   1.000000
   12        2.533027   1.000000
   13        2.655984   1.000000
   14        3.257820   1.000000
   15        3.383385   1.000000
   16        3.469934   1.000000
   17        4.336546   1.000000
   18        4.924759   1.000000
   19        6.522546   0.000000
   20        7.456522   0.000000
   21        7.736844   0.000000
   22        7.862376   0.000000
   23        7.873380   0.000000
   24        7.999479   0.000000

 -0.3846154E+00  0.2307692E+00 -0.1158107E-16  0.1092399E-01
    1      -34.150770   1.000000
    2      -16.256687   1.000000
    3      -16.254430   1.000000
    4      -16.231029   1.000000
    5      -16.229894   1.000000
    6      -16.229075   1.000000
    7      -12.004957   1.000000
    8      -11.955040   1.000000
    9      -11.924905   1.000000
   10       -4.349365   1.000000
   11        1.630049   1.000000
   12        2.540177   1.000000
   13        2.582809   1.000000
   14        3.222322   1.000000
   15        3.442683   1.000000
   16        3.481671   1.000000
   17        4.278514   1.000000
   18        4.924635   1.000000
   19        6.623747   0.000000
   20        7.429853   0.000000
   21        7.715904   0.000000
   22        7.857104   0.000000