 vasp.6.0.8 29Jun18 (build Jun 13 2019 12:54:44) complex

 executed on      IFC18_CrayMPICH date 2021.12.05  13:51:01
 running   64 mpi-ranks, with    1 threads/rank
 distrk:  each k-point on   16 cores,    4 groups
 distr:  one band on NCORES_PER_BAND=   4 cores,    4 groups


--------------------------------------------------------------------------------------------------------


 INCAR:
 POTCAR:    PAW_PBE Th 07Sep2000
 POTCAR:    PAW_PBE Bi_d 06Sep2000
 POTCAR:    PAW_PBE Pt 04Feb2005
 POTCAR:    PAW_PBE Th 07Sep2000
   VRHFIN =Th:  [Xe,5d,4f]
   LEXCH  = PE
   EATOM  =   984.7553 eV,   72.3775 Ry

   TITEL  = PAW_PBE Th 07Sep2000
   LULTRA =        F    use ultrasoft PP ?
   IUNSCR =        1    unscreen: 0-lin 1-nonlin 2-no
   RPACOR =    2.200    partial core radius
   POMASS =  232.039; ZVAL   =   12.000    mass and valenz
   RCORE  =    2.800    outmost cutoff radius
   RWIGS  =    3.000; RWIGS  =    1.588    wigner-seitz radius (au A)
   ENMAX  =  247.306; ENMIN  =  185.480 eV
   RCLOC  =    2.211    cutoff for local pot
   LCOR   =        T    correct aug charges
   LPAW   =        T    paw PP
   EAUG   =  535.431
   DEXC   =    0.000
   RMAX   =    2.862    core radius for proj-oper
   RAUG   =    1.300    factor for augmentation sphere
   RDEP   =    2.926    radius for radial grids
   RDEPT  =    2.250    core radius for aug-charge

   Atomic configuration
   18 entries
     n  l   j            E        occ.
     1  0  0.50   -109990.1879   2.0000
     2  0  0.50    -20388.0147   2.0000
     2  1  1.50    -17049.6156   6.0000
     3  0  0.50     -5106.5436   2.0000
     3  1  1.50     -4175.1262   6.0000
     3  2  2.50     -3342.8437  10.0000
     4  0  0.50     -1280.8211   2.0000
     4  1  1.50      -976.4859   6.0000
     4  2  2.50      -661.8358  10.0000
     4  3  3.50      -324.9124  14.0000
     5  0  0.50      -278.7726   2.0000
     5  1  1.50      -186.2212   6.0000
     5  2  2.50       -86.9031  10.0000
     6  0  0.50       -43.3059   2.0000
     7  0  0.50        -4.0783   2.0000
     6  1  1.50       -21.4071   6.0000
     6  2  1.50        -2.3664   1.0000
     5  3  2.50        -1.2804   1.0000
   Description
     l       E           TYP  RCUT    TYP  RCUT
     0    -43.3059201     23  2.800
     0     -4.0782900     23  2.800
     1    -21.4071032     23  2.500
     1    -22.7676858     23  2.500
     2     -2.3664170     23  2.500
     2      3.0546543     23  2.500
     3     -1.2803910     23  2.800
     3      0.1360583     23  2.800
  local pseudopotential read in
  partial core-charges read in
  partial kinetic energy density read in
  atomic valenz-charges read in
  non local Contribution for L=           0  read in
    real space projection operators read in
  non local Contribution for L=           0  read in
    real space projection operators read in
  non local Contribution for L=           1  read in
    real space projection operators read in
  non local Contribution for L=           1  read in
    real space projection operators read in
  non local Contribution for L=           2  read in
    real space projection operators read in
  non local Contribution for L=           2  read in
    real space projection operators read in
  non local Contribution for L=           3  read in
    real space projection operators read in
  non local Contribution for L=           3  read in
    real space projection operators read in
    PAW grid and wavefunctions read in

   number of l-projection  operators is LMAX  =           8
   number of lm-projection operators is LMMAX =          32

 POTCAR:    PAW_PBE Bi_d 06Sep2000
   VRHFIN =Bi:
   LEXCH  = PE
   EATOM  =  1959.2045 eV,  143.9975 Ry

   TITEL  = PAW_PBE Bi_d 06Sep2000
   LULTRA =        F    use ultrasoft PP ?
   IUNSCR =        1    unscreen: 0-lin 1-nonlin 2-no
   RPACOR =    2.200    partial core radius
   POMASS =  208.980; ZVAL   =   15.000    mass and valenz
   RCORE  =    2.500    outmost cutoff radius
   RWIGS  =    3.090; RWIGS  =    1.635    wigner-seitz radius (au A)
   ENMAX  =  242.839; ENMIN  =  182.129 eV
   ICORE  =        3    local potential
   LCOR   =        T    correct aug charges
   LPAW   =        T    paw PP
   EAUG   =  442.899
   DEXC   =    0.000
   RMAX   =    2.551    core radius for proj-oper
   RAUG   =    1.300    factor for augmentation sphere
   RDEP   =    2.650    radius for radial grids
   RDEPT  =    2.039    core radius for aug-charge

   Atomic configuration
   16 entries
     n  l   j            E        occ.
     1  0  0.50    -90639.6581   2.0000
     2  0  0.50    -16282.4666   2.0000
     2  1  1.50    -13922.8286   6.0000
     3  0  0.50     -3930.4763   2.0000
     3  1  1.50     -3256.7013   6.0000
     3  2  2.50     -2581.6168  10.0000
     4  0  0.50      -902.2614   2.0000
     4  1  1.50      -681.5915   6.0000
     4  2  2.50      -429.8249  10.0000
     4  3  3.50      -152.6004  14.0000
     5  0  0.50      -157.7156   2.0000
     5  1  1.50       -95.8054   6.0000
     5  2  2.50       -27.0806  10.0000
     6  0  0.50       -14.4732   2.0000
     6  1  1.50        -4.5702   3.0000
     5  3  2.50        -2.7212   0.0000
   Description
     l       E           TYP  RCUT    TYP  RCUT
     2    -27.0805982     23  2.500
     2     -1.3605826     23  2.500
     0    -14.4732271     23  2.500
     0      6.8029130     23  2.500
     1     -4.5701651     23  2.500
     1     13.6058260     23  2.500
     3     -1.3605826      7  2.500
  local pseudopotential read in
  partial core-charges read in
  partial kinetic energy density read in
  atomic valenz-charges read in
  non local Contribution for L=           2  read in
    real space projection operators read in
  non local Contribution for L=           2  read in
    real space projection operators read in
  non local Contribution for L=           0  read in
    real space projection operators read in
  non local Contribution for L=           0  read in
    real space projection operators read in
  non local Contribution for L=           1  read in
    real space projection operators read in
  non local Contribution for L=           1  read in
    real space projection operators read in
    PAW grid and wavefunctions read in

   number of l-projection  operators is LMAX  =           6
   number of lm-projection operators is LMMAX =          18

 POTCAR:    PAW_PBE Pt 04Feb2005
   VRHFIN =Pt: s1d9
   LEXCH  = PE
   EATOM  =   729.1176 eV,   53.5886 Ry

   TITEL  = PAW_PBE Pt 04Feb2005
   LULTRA =        F    use ultrasoft PP ?
   IUNSCR =        1    unscreen: 0-lin 1-nonlin 2-no
   RPACOR =    2.330    partial core radius
   POMASS =  195.080; ZVAL   =   10.000    mass and valenz
   RCORE  =    2.600    outmost cutoff radius
   RWIGS  =    2.750; RWIGS  =    1.455    wigner-seitz radius (au A)
   ENMAX  =  230.283; ENMIN  =  172.712 eV
   ICORE  =        3    local potential
   LCOR   =        T    correct aug charges
   LPAW   =        T    paw PP
   EAUG   =  358.966
   DEXC   =    0.000
   RMAX   =    2.658    core radius for proj-oper
   RAUG   =    1.300    factor for augmentation sphere
   RDEP   =    2.761    radius for radial grids
   RDEPT  =    2.203    core radius for aug-charge

   Atomic configuration
   16 entries
     n  l   j            E        occ.
     1  0  0.50    -78401.1885   2.0000
     2  0  0.50    -13770.7750   2.0000
     2  1  1.50    -11931.0468   6.0000
     3  0  0.50     -3234.7234   2.0000
     3  1  1.50     -2699.2216   6.0000
     3  2  2.50     -2119.5714  10.0000
     4  0  0.50      -695.1528   2.0000
     4  1  1.50      -519.6034   6.0000
     4  2  2.50      -306.6786  10.0000
     4  3  3.50       -70.1041  14.0000
     5  0  0.50      -101.7747   2.0000
     5  1  1.50       -55.9873   6.0000
     5  2  2.50        -6.1423   9.0000
     6  0  0.50        -5.6573   1.0000
     6  1  1.50        -6.8029   0.0000
     5  3  2.50        -1.3606   0.0000
   Description
     l       E           TYP  RCUT    TYP  RCUT
     2     -6.1423404     23  2.500
     2     -7.5029230     23  2.500
     0     -5.6573207     23  2.500
     0      0.7416693     23  2.500
     1     -2.7211652     23  2.600
     1     20.4087390     23  2.600
     3     -1.3605826     23  2.500
  local pseudopotential read in
  partial core-charges read in
  partial kinetic energy density read in
  atomic valenz-charges read in
  non local Contribution for L=           2  read in
    real space projection operators read in
  non local Contribution for L=           2  read in
    real space projection operators read in
  non local Contribution for L=           0  read in
    real space projection operators read in
  non local Contribution for L=           0  read in
    real space projection operators read in
  non local Contribution for L=           1  read in
    real space projection operators read in
  non local Contribution for L=           1  read in
    real space projection operators read in
    PAW grid and wavefunctions read in

   number of l-projection  operators is LMAX  =           6
   number of lm-projection operators is LMMAX =          18

 WARNING: PSMAXN for non-local potential too small
          PSMAXN should be >   13.5545592237991       NTYP=           1

 -----------------------------------------------------------------------------
|                                                                             |
|  ADVICE TO THIS USER RUNNING 'VASP/VAMP'   (HEAR YOUR MASTER'S VOICE ...):  |
|                                                                             |
|      You enforced a specific xc-type in the INCAR file,                     |
|      a different type was found on the POTCAR file                          |
|          I HOPE YOU KNOW, WHAT YOU ARE  DOING                               |
|                                                                             |
 -----------------------------------------------------------------------------

  PAW_PBE Th 07Sep2000                  :
 energy of atom  1       EATOM= -984.7553
 kinetic energy error for atom=    0.0005 (will be added to EATOM!!)
  PAW_PBE Bi_d 06Sep2000                :
 energy of atom  2       EATOM=-1959.2045
 kinetic energy error for atom=    0.0012 (will be added to EATOM!!)
  PAW_PBE Pt 04Feb2005                  :
 energy of atom  3       EATOM= -729.1176
 kinetic energy error for atom=    0.0010 (will be added to EATOM!!)


 POSCAR: Th1 Bi1 Pt1
  positions in direct lattice
  No initial velocities read in
 exchange correlation table for  LEXCH =       14
   RHO(1)=    0.500       N(1)  =     2000
   RHO(2)=  100.500       N(2)  =     4000



--------------------------------------------------------------------------------------------------------


 ion  position               nearest neighbor table
   1  0.250  0.250  0.250-   3 3.15   3 3.15   3 3.15   3 3.15   2 3.64   2 3.64   2 3.64   2 3.64
                             2 3.64   2 3.64
   2  0.750  0.750  0.750-   3 3.15   3 3.15   3 3.15   3 3.15   1 3.64   1 3.64   1 3.64   1 3.64
                             1 3.64   1 3.64
   3  0.000  0.000  0.000-   2 3.15   2 3.15   2 3.15   1 3.15   2 3.15   1 3.15   1 3.15   1 3.15


  LATTYP: Found a face centered cubic cell.
 ALAT       =     7.2789115292

  Lattice vectors:

 A1 = (   0.0000000000,   3.6394557646,   3.6394557646)
 A2 = (   3.6394557646,   0.0000000000,   3.6394557646)
 A3 = (   3.6394557646,   3.6394557646,   0.0000000000)


Analysis of symmetry for initial positions (statically):
=====================================================================
 Subroutine PRICEL returns:
 Original cell was already a primitive cell.


 Routine SETGRP: Setting up the symmetry group for a
 face centered cubic supercell.


 Subroutine GETGRP returns: Found 24 space group operations
 (whereof 24 operations were pure point group operations)
 out of a pool of 48 trial point group operations.


The static configuration has the point symmetry T_d .


Analysis of symmetry for dynamics (positions and initial velocities):
=====================================================================
 Subroutine PRICEL returns:
 Original cell was already a primitive cell.


 Routine SETGRP: Setting up the symmetry group for a
 face centered cubic supercell.


 Subroutine GETGRP returns: Found 24 space group operations
 (whereof 24 operations were pure point group operations)
 out of a pool of 48 trial point group operations.


The dynamic configuration has the point symmetry T_d .


 Subroutine INISYM returns: Found 24 space group operations
 (whereof 24 operations are pure point group operations),
 and found     1 'primitive' translations


----------------------------------------------------------------------------------------

                                     Primitive cell

  volume of cell :      96.4138

  direct lattice vectors                    reciprocal lattice vectors
     0.000000000  3.639455765  3.639455765    -0.137383178  0.137383178  0.137383178
     3.639455765  0.000000000  3.639455765     0.137383178 -0.137383178  0.137383178
     3.639455765  3.639455765  0.000000000     0.137383178  0.137383178 -0.137383178

  length of vectors
     5.146967702  5.146967702  5.146967702     0.237954645  0.237954645  0.237954645

  position of ions in fractional coordinates (direct lattice)
     0.250000000  0.250000000  0.250000000
     0.750000000  0.750000000  0.750000000
     0.000000000  0.000000000  0.000000000

  ion indices of the primitive-cell ions
   primitive index   ion index
                 1           1
                 2           2
                 3           3

----------------------------------------------------------------------------------------



 KPOINTS: KPOINTS

Automatic generation of k-mesh.
Space group operators:
 irot       det(A)        alpha          n_x          n_y          n_z        tau_x        tau_y        tau_z
    1     1.000000     0.000001     1.000000     0.000000     0.000000     0.000000     0.000000     0.000000
    2     1.000000   120.000000    -0.577350    -0.577350    -0.577350     0.000000     0.000000     0.000000
    3     1.000000   120.000000     0.577350     0.577350     0.577350     0.000000     0.000000     0.000000
    4    -1.000000    90.000000     0.000000     0.000000    -1.000000     0.000000     0.000000     0.000000
    5    -1.000000   180.000000     0.000000     0.707107     0.707107     0.000000     0.000000     0.000000
    6    -1.000000    90.000000     0.000000     1.000000     0.000000     0.000000     0.000000     0.000000
    7     1.000000   180.000000     0.000000     0.000000     1.000000     0.000000     0.000000     0.000000
    8     1.000000   120.000000    -0.577350     0.577350     0.577350     0.000000     0.000000     0.000000
    9     1.000000   120.000000    -0.577350     0.577350    -0.577350     0.000000     0.000000     0.000000
   10    -1.000000    90.000000     0.000000     0.000000     1.000000     0.000000     0.000000     0.000000
   11    -1.000000    90.000000    -1.000000    -0.000000    -0.000000     0.000000     0.000000     0.000000
   12    -1.000000   180.000000     0.707107     0.000000     0.707107     0.000000     0.000000     0.000000
   13     1.000000   120.000000     0.577350    -0.577350     0.577350     0.000000     0.000000     0.000000
   14     1.000000   120.000000    -0.577350    -0.577350     0.577350     0.000000     0.000000     0.000000
   15     1.000000   180.000000     1.000000     0.000000     0.000000     0.000000     0.000000     0.000000
   16    -1.000000    90.000000     0.000000    -1.000000     0.000000     0.000000     0.000000     0.000000
   17    -1.000000   180.000000     0.707107     0.707107     0.000000     0.000000     0.000000     0.000000
   18    -1.000000    90.000000     1.000000     0.000000    -0.000000     0.000000     0.000000     0.000000
   19     1.000000   120.000000     0.577350    -0.577350    -0.577350     0.000000     0.000000     0.000000
   20     1.000000   180.000000     0.000000    -1.000000     0.000000     0.000000     0.000000     0.000000
   21     1.000000   120.000000     0.577350     0.577350    -0.577350     0.000000     0.000000     0.000000
   22    -1.000000   180.000000     0.000000    -0.707107     0.707107     0.000000     0.000000     0.000000
   23    -1.000000   180.000000     0.707107    -0.707107    -0.000000     0.000000     0.000000     0.000000
   24    -1.000000   180.000000     0.707107     0.000000    -0.707107     0.000000     0.000000     0.000000

 Subroutine IBZKPT returns following result:
 ===========================================

 Found     84 irreducible k-points:

 Following reciprocal coordinates:
            Coordinates               Weight
  0.000000  0.000000  0.000000      1.000000
  0.076923 -0.000000  0.000000      8.000000
  0.153846  0.000000 -0.000000      8.000000
  0.230769  0.000000  0.000000      8.000000
  0.307692  0.000000 -0.000000      8.000000
  0.384615  0.000000 -0.000000      8.000000
  0.461538 -0.000000  0.000000      8.000000
  0.076923  0.076923  0.000000      6.000000
  0.153846  0.076923 -0.000000     24.000000
  0.230769  0.076923 -0.000000     24.000000
  0.307692  0.076923  0.000000     24.000000
  0.384615  0.076923 -0.000000     24.000000
  0.461538  0.076923  0.000000     24.000000
 -0.461538  0.076923 -0.000000     24.000000
 -0.384615  0.076923  0.000000     24.000000
 -0.307692  0.076923  0.000000     24.000000
 -0.230769  0.076923 -0.000000     24.000000
 -0.153846  0.076923  0.000000     24.000000
 -0.076923  0.076923 -0.000000     12.000000
  0.153846  0.153846  0.000000      6.000000
  0.230769  0.153846  0.000000     24.000000
  0.307692  0.153846  0.000000     24.000000
  0.384615  0.153846  0.000000     24.000000
  0.461538  0.153846  0.000000     24.000000
 -0.461538  0.153846  0.000000     24.000000
 -0.384615  0.153846 -0.000000     24.000000
 -0.307692  0.153846 -0.000000     24.000000
 -0.230769  0.153846  0.000000     24.000000
 -0.153846  0.153846  0.000000     12.000000
  0.230769  0.230769  0.000000      6.000000
  0.307692  0.230769  0.000000     24.000000
  0.384615  0.230769  0.000000     24.000000
  0.461538  0.230769  0.000000     24.000000
 -0.461538  0.230769  0.000000     24.000000
 -0.384615  0.230769 -0.000000     24.000000
 -0.307692  0.230769 -0.000000     24.000000
 -0.230769  0.230769  0.000000     12.000000
  0.307692  0.307692  0.000000      6.000000
  0.384615  0.307692  0.000000     24.000000
  0.461538  0.307692  0.000000     24.000000
 -0.461538  0.307692  0.000000     24.000000
 -0.384615  0.307692  0.000000     24.000000
 -0.307692  0.307692  0.000000     12.000000
  0.384615  0.384615  0.000000      6.000000
  0.461538  0.384615  0.000000     24.000000
 -0.461538  0.384615  0.000000     24.000000
 -0.384615  0.384615  0.000000     12.000000
  0.461538  0.461538  0.000000      6.000000
 -0.461538  0.461538 -0.000000     12.000000
  0.230769  0.153846  0.076923     24.000000
  0.307692  0.153846  0.076923     48.000000
  0.384615  0.153846  0.076923     48.000000
  0.461538  0.153846  0.076923     48.000000
 -0.461538  0.153846  0.076923     48.000000
  0.307692  0.230769  0.076923     24.000000
  0.384615  0.230769  0.076923     48.000000
  0.461538  0.230769  0.076923     48.000000
 -0.461538  0.230769  0.076923     48.000000
 -0.384615  0.230769  0.076923     48.000000
 -0.307692  0.230769  0.076923     48.000000
 -0.230769  0.230769  0.076923     48.000000
 -0.153846  0.230769  0.076923     24.000000
  0.384615  0.307692  0.076923     24.000000
  0.461538  0.307692  0.076923     48.000000
 -0.461538  0.307692  0.076923     48.000000
 -0.384615  0.307692  0.076923     48.000000
 -0.307692  0.307692  0.076923     48.000000
 -0.230769  0.307692  0.076923     24.000000
  0.461538  0.384615  0.076923     24.000000
 -0.461538  0.384615  0.076923     48.000000
 -0.384615  0.384615  0.076923     48.000000
 -0.307692  0.384615  0.076923     24.000000
 -0.461538  0.461538  0.076923     24.000000
 -0.384615  0.461538  0.076923     24.000000
  0.461538  0.307692  0.153846     24.000000
 -0.461538  0.307692  0.153846     48.000000
 -0.384615  0.307692  0.153846     48.000000
 -0.461538  0.384615  0.153846     24.000000
 -0.384615  0.384615  0.153846     48.000000
 -0.307692  0.384615  0.153846     48.000000
 -0.230769  0.384615  0.153846     24.000000
 -0.384615  0.461538  0.153846     24.000000
 -0.307692  0.461538  0.153846     24.000000
 -0.307692  0.461538  0.230769     24.000000

 Following cartesian coordinates:
            Coordinates               Weight
  0.000000  0.000000  0.000000      1.000000
 -0.011230  0.011230  0.011230      8.000000
 -0.022460  0.022460  0.022460      8.000000
 -0.033690  0.033690  0.033690      8.000000
 -0.044920  0.044920  0.044920      8.000000
 -0.056151  0.056151  0.056151      8.000000
 -0.067381  0.067381  0.067381      8.000000
 -0.000000  0.000000  0.022460      6.000000
 -0.011230  0.011230  0.033690     24.000000
 -0.022460  0.022460  0.044920     24.000000
 -0.033690  0.033690  0.056151     24.000000
 -0.044920  0.044920  0.067381     24.000000
 -0.056151  0.056151  0.078611     24.000000
  0.078611 -0.078611 -0.056151     24.000000
  0.067381 -0.067381 -0.044920     24.000000
  0.056151 -0.056151 -0.033690     24.000000
  0.044920 -0.044920 -0.022460     24.000000
  0.033690 -0.033690 -0.011230     24.000000
  0.022460 -0.022460 -0.000000     12.000000
  0.000000  0.000000  0.044920      6.000000
 -0.011230  0.011230  0.056151     24.000000
 -0.022460  0.022460  0.067381     24.000000
 -0.033690  0.033690  0.078611     24.000000
 -0.044920  0.044920  0.089841     24.000000
  0.089841 -0.089841 -0.044920     24.000000
  0.078611 -0.078611 -0.033690     24.000000
  0.067381 -0.067381 -0.022460     24.000000
  0.056151 -0.056151 -0.011230     24.000000
  0.044920 -0.044920 -0.000000     12.000000
 -0.000000  0.000000  0.067381      6.000000
 -0.011230  0.011230  0.078611     24.000000
 -0.022460  0.022460  0.089841     24.000000
 -0.033690  0.033690  0.101071     24.000000
  0.101071 -0.101071 -0.033690     24.000000
  0.089841 -0.089841 -0.022460     24.000000
  0.078611 -0.078611 -0.011230     24.000000
  0.067381 -0.067381 -0.000000     12.000000
  0.000000  0.000000  0.089841      6.000000
 -0.011230  0.011230  0.101071     24.000000
 -0.022460  0.022460  0.112301     24.000000
  0.112301 -0.112301 -0.022460     24.000000
  0.101071 -0.101071 -0.011230     24.000000
  0.089841 -0.089841 -0.000000     12.000000
  0.000000 -0.000000  0.112301      6.000000
 -0.011230  0.011230  0.123531     24.000000
  0.123531 -0.123531 -0.011230     24.000000
  0.112301 -0.112301  0.000000     12.000000
  0.000000 -0.000000  0.134761      6.000000
  0.134761 -0.134761  0.000000     12.000000
 -0.000000  0.022460  0.044920     24.000000
 -0.011230  0.033690  0.056151     48.000000
 -0.022460  0.044920  0.067381     48.000000
 -0.033690  0.056151  0.078611     48.000000
  0.101071 -0.078611 -0.056151     48.000000
  0.000000  0.022460  0.067381     24.000000
 -0.011230  0.033690  0.078611     48.000000
 -0.022460  0.044920  0.089841     48.000000
  0.112301 -0.089841 -0.044920     48.000000
  0.101071 -0.078611 -0.033690     48.000000
  0.089841 -0.067381 -0.022460     48.000000
  0.078611 -0.056151 -0.011230     48.000000
  0.067381 -0.044920 -0.000000     24.000000
  0.000000  0.022460  0.089841     24.000000
 -0.011230  0.033690  0.101071     48.000000
  0.123531 -0.101071 -0.033690     48.000000
  0.112301 -0.089841 -0.022460     48.000000
  0.101071 -0.078611 -0.011230     48.000000
  0.089841 -0.067381 -0.000000     24.000000
  0.000000  0.022460  0.112301     24.000000
  0.134761 -0.112301 -0.022460     48.000000
  0.123531 -0.101071 -0.011230     48.000000
  0.112301 -0.089841 -0.000000     24.000000
  0.145991 -0.123531 -0.011230     24.000000
  0.134761 -0.112301 -0.000000     24.000000
  0.000000  0.044920  0.089841     24.000000
  0.134761 -0.089841 -0.044920     48.000000
  0.123531 -0.078611 -0.033690     48.000000
  0.145991 -0.101071 -0.033690     24.000000
  0.134761 -0.089841 -0.022460     48.000000
  0.123531 -0.078611 -0.011230     48.000000
  0.112301 -0.067381 -0.000000     24.000000
  0.145991 -0.101071 -0.011230     24.000000
  0.134761 -0.089841  0.000000     24.000000
  0.145991 -0.078611 -0.011230     24.000000



--------------------------------------------------------------------------------------------------------




 Dimension of arrays:
   k-points           NKPTS =     84   k-points in BZ     NKDIM =     84   number of bands    NBANDS=     24
   number of dos      NEDOS =    301   number of ions     NIONS =      3
   non local maximal  LDIM  =      8   non local SUM 2l+1 LMDIM =     32
   total plane-waves  NPLWV = 110592
   max r-space proj   IRMAX =      1   max aug-charges    IRDMAX= 555928
   dimension x,y,z NGX =    48 NGY =   48 NGZ =   48
   dimension x,y,z NGXF=    96 NGYF=   96 NGZF=   96
   support grid    NGXF=   192 NGYF=  192 NGZF=  192
   ions per type =               1   1   1
   NGX,Y,Z   is equivalent  to a cutoff of  15.50, 15.50, 15.50 a.u.
   NGXF,Y,Z  is equivalent  to a cutoff of  31.01, 31.01, 31.01 a.u.

 SYSTEM =  unknown system
 POSCAR =  Th1 Bi1 Pt1

 Startparameter for this run:
   NWRITE =      2    write-flag & timer
   PREC   = acc       normal or accurate (medium, high low for compatibility)
   ISTART =      0    job   : 0-new  1-cont  2-samecut
   ICHARG =      2    charge: 1-file 2-atom 10-const
   ISPIN  =      1    spin polarized calculation?
   LNONCOLLINEAR =      F non collinear calculations
   LSORBIT =      F    spin-orbit coupling
   INIWAV =      1    electr: 0-lowe 1-rand  2-diag
   LASPH  =      F    aspherical Exc in radial PAW
   METAGGA=      F    non-selfconsistent MetaGGA calc.

 Electronic Relaxation 1
   ENCUT  =  700.0 eV  51.45 Ry    7.17 a.u.  11.10 11.10 11.10*2*pi/ulx,y,z
   ENINI  =  700.0     initial cutoff
   ENAUG  =  535.4 eV  augmentation charge cutoff
   NELM   =     60;   NELMIN=  5; NELMDL= -5     # of ELM steps
   EDIFF  = 0.1E-06   stopping-criterion for ELM
   LREAL  =      F    real-space projection
   NLSPLINE    = F    spline interpolate recip. space projectors
   LCOMPAT=      F    compatible to vasp.4.4
   GGA_COMPAT  = T    GGA compatible to vasp.4.4-vasp.4.6
   LMAXPAW     = -100 max onsite density
   LMAXMIX     =    2 max onsite mixed and CHGCAR
   VOSKOWN=      0    Vosko Wilk Nusair interpolation
   ROPT   =    0.00000   0.00000   0.00000
 Ionic relaxation
   EDIFFG = 0.1E-05   stopping-criterion for IOM
   NSW    =      0    number of steps for IOM
   NBLOCK =      1;   KBLOCK =      1    inner block; outer block
   IBRION =     -1    ionic relax: 0-MD 1-quasi-New 2-CG
   NFREE  =      0    steps in history (QN), initial steepest desc. (CG)
   ISIF   =      3    stress and relaxation
   IWAVPR =     10    prediction:  0-non 1-charg 2-wave 3-comb
   ISYM   =      2    0-nonsym 1-usesym 2-fastsym
   LCORR  =      T    Harris-Foulkes like correction to forces

   POTIM  = 0.5000    time-step for ionic-motion
   TEIN   =    0.0    initial temperature
   TEBEG  =    0.0;   TEEND  =   0.0 temperature during run
   SMASS  =  -3.00    Nose mass-parameter (am)
   estimated Nose-frequenzy (Omega)   =  0.10E-29 period in steps = 0.13E+47 mass=  -0.605E-27a.u.
   SCALEE = 1.0000    scale energy and forces
   NPACO  =    256;   APACO  = 16.0  distance and # of slots for P.C.
   PSTRESS=    0.0 pullay stress

  Mass of Ions in am
   POMASS = 232.04208.98195.08
  Ionic Valenz
   ZVAL   =  12.00 15.00 10.00
  Atomic Wigner-Seitz radii
   RWIGS  =  -1.00 -1.00 -1.00
  virtual crystal weights
   VCA    =   1.00  1.00  1.00
   NELECT =      37.0000    total number of electrons
   NUPDOWN=      -1.0000    fix difference up-down

 DOS related values:
   EMIN   =  10.00;   EMAX   =-10.00  energy-range for DOS
   EFERMI =   0.00
   ISMEAR =     0;   SIGMA  =   0.01  broadening in eV -4-tet -1-fermi 0-gaus

 Electronic relaxation 2 (details)
   IALGO  =     38    algorithm
   LDIAG  =      T    sub-space diagonalisation (order eigenvalues)
   LSUBROT=      F    optimize rotation matrix (better conditioning)
   TURBO    =      0    0=normal 1=particle mesh
   IRESTART =      0    0=no restart 2=restart with 2 vectors
   NREBOOT  =      0    no. of reboots
   NMIN     =      0    reboot dimension
   EREF     =   0.00    reference energy to select bands
   IMIX   =      4    mixing-type and parameters
     AMIX     =   0.40;   BMIX     =  1.00
     AMIX_MAG =   1.60;   BMIX_MAG =  1.00
     AMIN     =   0.10
     WC   =   100.;   INIMIX=   1;  MIXPRE=   1;  MAXMIX= -45

 Intra band minimization:
   WEIMIN = 0.0000     energy-eigenvalue tresh-hold
   EBREAK =  0.10E-08  absolut break condition
   DEPER  =   0.30     relativ break condition

   TIME   =   0.40     timestep for ELM

  volume/ion in A,a.u.               =      32.14       216.88
  Fermi-wavevector in a.u.,A,eV,Ry     =   1.189677  2.248163 19.256743  1.415331
  Thomas-Fermi vector in A             =   2.325779

 Write flags
   LWAVE        =      F    write WAVECAR
   LDOWNSAMPLE  =      F    k-point downsampling of WAVECAR
   LCHARG       =      F    write CHGCAR
   LVTOT        =      F    write LOCPOT, total local potential
   LVHAR        =      F    write LOCPOT, Hartree potential only
   LELF         =      F    write electronic localiz. function (ELF)
   LORBIT       =      0    0 simple, 1 ext, 2 COOP (PROOUT), +10 PAW based schemes


 Dipole corrections
   LMONO  =      F    monopole corrections only (constant potential shift)
   LDIPOL =      F    correct potential (dipole corrections)
   IDIPOL =      0    1-x, 2-y, 3-z, 4-all directions
   EPSILON=  1.0000000 bulk dielectric constant

 Exchange correlation treatment:
   GGA     =    PS    GGA type
   LEXCH   =    14    internal setting for exchange type
   VOSKOWN=      0    Vosko Wilk Nusair interpolation
   LHFCALC =     F    Hartree Fock is set to
   LHFONE  =     F    Hartree Fock one center treatment
   AEXX    =    0.0000 exact exchange contribution

 Linear response parameters
   LEPSILON=     F    determine dielectric tensor
   LRPA    =     F    only Hartree local field effects (RPA)
   LNABLA  =     F    use nabla operator in PAW spheres
   LVEL    =     F    velocity operator in full k-point grid
   LINTERFAST=   F  fast interpolation
   KINTER  =     0    interpolate to denser k-point grid
   CSHIFT  =0.1000    complex shift for real part using Kramers Kronig
   OMEGAMAX=  -1.0    maximum frequency
   DEG_THRESHOLD= 0.2000000E-02 threshold for treating states as degnerate
   RTIME   =   -0.100 relaxation time in fs
  (WPLASMAI=    0.000 imaginary part of plasma frequency in eV, 0.658/RTIME)
   DFIELD  = 0.0000000 0.0000000 0.0000000 field for delta impulse in time

 Orbital magnetization related:
   ORBITALMAG=     F  switch on orbital magnetization
   LCHIMAG   =     F  perturbation theory with respect to B field
   DQ        =  0.001000  dq finite difference perturbation B field
   LLRAUG    =     F  two centre corrections for induced B field



--------------------------------------------------------------------------------------------------------


 Static calculation
 charge density and potential will be updated during run
 non-spin polarized calculation
 Variant of blocked Davidson
 Davidson routine will perform the subspace rotation
 perform sub-space diagonalisation
    after iterative eigenvector-optimisation
 modified Broyden-mixing scheme, WC =      100.0
 initial mixing is a Kerker type mixing with AMIX =  0.4000 and BMIX =      1.0000
 Hartree-type preconditioning will be used
 using additional bands            5
 reciprocal scheme for non local part
 use partial core corrections
 calculate Harris-corrections to forces
   (improved forces if not selfconsistent)
 use gradient corrections
 use of overlap-Matrix (Vanderbilt PP)
 Gauss-broadening in eV      SIGMA  =   0.01


--------------------------------------------------------------------------------------------------------


  energy-cutoff  :      700.00
  volume of cell :       96.41
      direct lattice vectors                 reciprocal lattice vectors
     0.000000000  3.639455765  3.639455765    -0.137383178  0.137383178  0.137383178
     3.639455765  0.000000000  3.639455765     0.137383178 -0.137383178  0.137383178
     3.639455765  3.639455765  0.000000000     0.137383178  0.137383178 -0.137383178

  length of vectors
     5.146967702  5.146967702  5.146967702     0.237954645  0.237954645  0.237954645



 k-points in units of 2pi/SCALE and weight: KPOINTS
   0.00000000  0.00000000  0.00000000       0.000
  -0.01123011  0.01123011  0.01123011       0.004
  -0.02246022  0.02246022  0.02246022       0.004
  -0.03369033  0.03369033  0.03369033       0.004
  -0.04492043  0.04492043  0.04492043       0.004
  -0.05615054  0.05615054  0.05615054       0.004
  -0.06738065  0.06738065  0.06738065       0.004
  -0.00000000  0.00000000  0.02246022       0.003
  -0.01123011  0.01123011  0.03369033       0.011
  -0.02246022  0.02246022  0.04492043       0.011
  -0.03369033  0.03369033  0.05615054       0.011
  -0.04492043  0.04492043  0.06738065       0.011
  -0.05615054  0.05615054  0.07861076       0.011
   0.07861076 -0.07861076 -0.05615054       0.011
   0.06738065 -0.06738065 -0.04492043       0.011
   0.05615054 -0.05615054 -0.03369033       0.011
   0.04492043 -0.04492043 -0.02246022       0.011
   0.03369033 -0.03369033 -0.01123011       0.011
   0.02246022 -0.02246022 -0.00000000       0.005
   0.00000000  0.00000000  0.04492043       0.003
  -0.01123011  0.01123011  0.05615054       0.011
  -0.02246022  0.02246022  0.06738065       0.011
  -0.03369033  0.03369033  0.07861076       0.011
  -0.04492043  0.04492043  0.08984087       0.011
   0.08984087 -0.08984087 -0.04492043       0.011
   0.07861076 -0.07861076 -0.03369033       0.011
   0.06738065 -0.06738065 -0.02246022       0.011
   0.05615054 -0.05615054 -0.01123011       0.011
   0.04492043 -0.04492043 -0.00000000       0.005
  -0.00000000  0.00000000  0.06738065       0.003
  -0.01123011  0.01123011  0.07861076       0.011
  -0.02246022  0.02246022  0.08984087       0.011
  -0.03369033  0.03369033  0.10107098       0.011
   0.10107098 -0.10107098 -0.03369033       0.011
   0.08984087 -0.08984087 -0.02246022       0.011
   0.07861076 -0.07861076 -0.01123011       0.011
   0.06738065 -0.06738065 -0.00000000       0.005
   0.00000000  0.00000000  0.08984087       0.003
  -0.01123011  0.01123011  0.10107098       0.011
  -0.02246022  0.02246022  0.11230109       0.011
   0.11230109 -0.11230109 -0.02246022       0.011
   0.10107098 -0.10107098 -0.01123011       0.011
   0.08984087 -0.08984087 -0.00000000       0.005
   0.00000000 -0.00000000  0.11230109       0.003
  -0.01123011  0.01123011  0.12353119       0.011
   0.12353119 -0.12353119 -0.01123011       0.011
   0.11230109 -0.11230109  0.00000000       0.005
   0.00000000 -0.00000000  0.13476130       0.003
   0.13476130 -0.13476130  0.00000000       0.005
  -0.00000000  0.02246022  0.04492043       0.011
  -0.01123011  0.03369033  0.05615054       0.022
  -0.02246022  0.04492043  0.06738065       0.022
  -0.03369033  0.05615054  0.07861076       0.022
   0.10107098 -0.07861076 -0.05615054       0.022
   0.00000000  0.02246022  0.06738065       0.011
  -0.01123011  0.03369033  0.07861076       0.022
  -0.02246022  0.04492043  0.08984087       0.022
   0.11230109 -0.08984087 -0.04492043       0.022
   0.10107098 -0.07861076 -0.03369033       0.022
   0.08984087 -0.06738065 -0.02246022       0.022
   0.07861076 -0.05615054 -0.01123011       0.022
   0.06738065 -0.04492043 -0.00000000       0.011
   0.00000000  0.02246022  0.08984087       0.011
  -0.01123011  0.03369033  0.10107098       0.022
   0.12353119 -0.10107098 -0.03369033       0.022
   0.11230109 -0.08984087 -0.02246022       0.022
   0.10107098 -0.07861076 -0.01123011       0.022
   0.08984087 -0.06738065 -0.00000000       0.011
   0.00000000  0.02246022  0.11230109       0.011
   0.13476130 -0.11230109 -0.02246022       0.022
   0.12353119 -0.10107098 -0.01123011       0.022
   0.11230109 -0.08984087 -0.00000000       0.011
   0.14599141 -0.12353119 -0.01123011       0.011
   0.13476130 -0.11230109 -0.00000000       0.011
   0.00000000  0.04492043  0.08984087       0.011
   0.13476130 -0.08984087 -0.04492043       0.022
   0.12353119 -0.07861076 -0.03369033       0.022
   0.14599141 -0.10107098 -0.03369033       0.011
   0.13476130 -0.08984087 -0.02246022       0.022
   0.12353119 -0.07861076 -0.01123011       0.022
   0.11230109 -0.06738065 -0.00000000       0.011
   0.14599141 -0.10107098 -0.01123011       0.011
   0.13476130 -0.08984087  0.00000000       0.011
   0.14599141 -0.07861076 -0.01123011       0.011

 k-points in reciprocal lattice and weights: KPOINTS
   0.00000000  0.00000000  0.00000000       0.000
   0.07692308 -0.00000000  0.00000000       0.004
   0.15384615  0.00000000 -0.00000000       0.004
   0.23076923  0.00000000  0.00000000       0.004
   0.30769231  0.00000000 -0.00000000       0.004
   0.38461538  0.00000000 -0.00000000       0.004
   0.46153846 -0.00000000  0.00000000       0.004
   0.07692308  0.07692308  0.00000000       0.003
   0.15384615  0.07692308 -0.00000000       0.011
   0.23076923  0.07692308 -0.00000000       0.011
   0.30769231  0.07692308  0.00000000       0.011
   0.38461538  0.07692308 -0.00000000       0.011
   0.46153846  0.07692308  0.00000000       0.011
  -0.46153846  0.07692308 -0.00000000       0.011
  -0.38461538  0.07692308  0.00000000       0.011
  -0.30769231  0.07692308  0.00000000       0.011
  -0.23076923  0.07692308 -0.00000000       0.011
  -0.15384615  0.07692308  0.00000000       0.011
  -0.07692308  0.07692308 -0.00000000       0.005
   0.15384615  0.15384615  0.00000000       0.003
   0.23076923  0.15384615  0.00000000       0.011
   0.30769231  0.15384615  0.00000000       0.011
   0.38461538  0.15384615  0.00000000       0.011
   0.46153846  0.15384615  0.00000000       0.011
  -0.46153846  0.15384615  0.00000000       0.011
  -0.38461538  0.15384615 -0.00000000       0.011
  -0.30769231  0.15384615 -0.00000000       0.011
  -0.23076923  0.15384615  0.00000000       0.011
  -0.15384615  0.15384615  0.00000000       0.005
   0.23076923  0.23076923  0.00000000       0.003
   0.30769231  0.23076923  0.00000000       0.011
   0.38461538  0.23076923  0.00000000       0.011
   0.46153846  0.23076923  0.00000000       0.011
  -0.46153846  0.23076923  0.00000000       0.011
  -0.38461538  0.23076923 -0.00000000       0.011
  -0.30769231  0.23076923 -0.00000000       0.011
  -0.23076923  0.23076923  0.00000000       0.005
   0.30769231  0.30769231  0.00000000       0.003
   0.38461538  0.30769231  0.00000000       0.011
   0.46153846  0.30769231  0.00000000       0.011
  -0.46153846  0.30769231  0.00000000       0.011
  -0.38461538  0.30769231  0.00000000       0.011
  -0.30769231  0.30769231  0.00000000       0.005
   0.38461538  0.38461538  0.00000000       0.003
   0.46153846  0.38461538  0.00000000       0.011
  -0.46153846  0.38461538  0.00000000       0.011
  -0.38461538  0.38461538  0.00000000       0.005
   0.46153846  0.46153846  0.00000000       0.003
  -0.46153846  0.46153846 -0.00000000       0.005
   0.23076923  0.15384615  0.07692308       0.011
   0.30769231  0.15384615  0.07692308       0.022
   0.38461538  0.15384615  0.07692308       0.022
   0.46153846  0.15384615  0.07692308       0.022
  -0.46153846  0.15384615  0.07692308       0.022
   0.30769231  0.23076923  0.07692308       0.011
   0.38461538  0.23076923  0.07692308       0.022
   0.46153846  0.23076923  0.07692308       0.022
  -0.46153846  0.23076923  0.07692308       0.022
  -0.38461538  0.23076923  0.07692308       0.022
  -0.30769231  0.23076923  0.07692308       0.022
  -0.23076923  0.23076923  0.07692308       0.022
  -0.15384615  0.23076923  0.07692308       0.011
   0.38461538  0.30769231  0.07692308       0.011
   0.46153846  0.30769231  0.07692308       0.022
  -0.46153846  0.30769231  0.07692308       0.022
  -0.38461538  0.30769231  0.07692308       0.022
  -0.30769231  0.30769231  0.07692308       0.022
  -0.23076923  0.30769231  0.07692308       0.011
   0.46153846  0.38461538  0.07692308       0.011
  -0.46153846  0.38461538  0.07692308       0.022
  -0.38461538  0.38461538  0.07692308       0.022
  -0.30769231  0.38461538  0.07692308       0.011
  -0.46153846  0.46153846  0.07692308       0.011
  -0.38461538  0.46153846  0.07692308       0.011
   0.46153846  0.30769231  0.15384615       0.011
  -0.46153846  0.30769231  0.15384615       0.022
  -0.38461538  0.30769231  0.15384615       0.022
  -0.46153846  0.38461538  0.15384615       0.011
  -0.38461538  0.38461538  0.15384615       0.022
  -0.30769231  0.38461538  0.15384615       0.022
  -0.23076923  0.38461538  0.15384615       0.011
  -0.38461538  0.46153846  0.15384615       0.011
  -0.30769231  0.46153846  0.15384615       0.011
  -0.30769231  0.46153846  0.23076923       0.011

 position of ions in fractional coordinates (direct lattice)
   0.25000000  0.25000000  0.25000000
   0.75000000  0.75000000  0.75000000
   0.00000000  0.00000000  0.00000000

 position of ions in cartesian coordinates  (Angst):
   1.81972788  1.81972788  1.81972788
   5.45918365  5.45918365  5.45918365
   0.00000000  0.00000000  0.00000000



--------------------------------------------------------------------------------------------------------


 k-point  1 :   0.0000 0.0000 0.0000  plane waves:    4015
 k-point  2 :   0.0769-0.0000 0.0000  plane waves:    4026
 k-point  3 :   0.1538 0.0000-0.0000  plane waves:    4029
 k-point  4 :   0.2308 0.0000 0.0000  plane waves:    4038
 k-point  5 :   0.3077 0.0000-0.0000  plane waves:    4053
 k-point  6 :   0.3846 0.0000-0.0000  plane waves:    4056
 k-point  7 :   0.4615-0.0000 0.0000  plane waves:    4065
 k-point  8 :   0.0769 0.0769 0.0000  plane waves:    4027
 k-point  9 :   0.1538 0.0769-0.0000  plane waves:    4030
 k-point 10 :   0.2308 0.0769-0.0000  plane waves:    4037
 k-point 11 :   0.3077 0.0769 0.0000  plane waves:    4044
 k-point 12 :   0.3846 0.0769-0.0000  plane waves:    4050
 k-point 13 :   0.4615 0.0769 0.0000  plane waves:    4056
 k-point 14 :  -0.4615 0.0769-0.0000  plane waves:    4057
 k-point 15 :  -0.3846 0.0769 0.0000  plane waves:    4050
 k-point 16 :  -0.3077 0.0769 0.0000  plane waves:    4059
 k-point 17 :  -0.2308 0.0769-0.0000  plane waves:    4042
 k-point 18 :  -0.1538 0.0769 0.0000  plane waves:    4044
 k-point 19 :  -0.0769 0.0769-0.0000  plane waves:    4031
 k-point 20 :   0.1538 0.1538 0.0000  plane waves:    4040
 k-point 21 :   0.2308 0.1538 0.0000  plane waves:    4040
 k-point 22 :   0.3077 0.1538 0.0000  plane waves:    4047
 k-point 23 :   0.3846 0.1538 0.0000  plane waves:    4061
 k-point 24 :   0.4615 0.1538 0.0000  plane waves:    4049
 k-point 25 :  -0.4615 0.1538 0.0000  plane waves:    4045
 k-point 26 :  -0.3846 0.1538-0.0000  plane waves:    4045
 k-point 27 :  -0.3077 0.1538-0.0000  plane waves:    4050
 k-point 28 :  -0.2308 0.1538 0.0000  plane waves:    4046
 k-point 29 :  -0.1538 0.1538 0.0000  plane waves:    4041
 k-point 30 :   0.2308 0.2308 0.0000  plane waves:    4044
 k-point 31 :   0.3077 0.2308 0.0000  plane waves:    4047
 k-point 32 :   0.3846 0.2308 0.0000  plane waves:    4063
 k-point 33 :   0.4615 0.2308 0.0000  plane waves:    4054
 k-point 34 :  -0.4615 0.2308 0.0000  plane waves:    4054
 k-point 35 :  -0.3846 0.2308-0.0000  plane waves:    4056
 k-point 36 :  -0.3077 0.2308-0.0000  plane waves:    4048
 k-point 37 :  -0.2308 0.2308 0.0000  plane waves:    4053
 k-point 38 :   0.3077 0.3077 0.0000  plane waves:    4056
 k-point 39 :   0.3846 0.3077 0.0000  plane waves:    4051
 k-point 40 :   0.4615 0.3077 0.0000  plane waves:    4062
 k-point 41 :  -0.4615 0.3077 0.0000  plane waves:    4066
 k-point 42 :  -0.3846 0.3077 0.0000  plane waves:    4065
 k-point 43 :  -0.3077 0.3077 0.0000  plane waves:    4045
 k-point 44 :   0.3846 0.3846 0.0000  plane waves:    4064
 k-point 45 :   0.4615 0.3846 0.0000  plane waves:    4060
 k-point 46 :  -0.4615 0.3846 0.0000  plane waves:    4067
 k-point 47 :  -0.3846 0.3846 0.0000  plane waves:    4069
 k-point 48 :   0.4615 0.4615 0.0000  plane waves:    4060
 k-point 49 :  -0.4615 0.4615-0.0000  plane waves:    4064
 k-point 50 :   0.2308 0.1538 0.0769  plane waves:    4046
 k-point 51 :   0.3077 0.1538 0.0769  plane waves:    4045
 k-point 52 :   0.3846 0.1538 0.0769  plane waves:    4054
 k-point 53 :   0.4615 0.1538 0.0769  plane waves:    4053
 k-point 54 :  -0.4615 0.1538 0.0769  plane waves:    4054
 k-point 55 :   0.3077 0.2308 0.0769  plane waves:    4040
 k-point 56 :   0.3846 0.2308 0.0769  plane waves:    4057
 k-point 57 :   0.4615 0.2308 0.0769  plane waves:    4057
 k-point 58 :  -0.4615 0.2308 0.0769  plane waves:    4048
 k-point 59 :  -0.3846 0.2308 0.0769  plane waves:    4053
 k-point 60 :  -0.3077 0.2308 0.0769  plane waves:    4049
 k-point 61 :  -0.2308 0.2308 0.0769  plane waves:    4055
 k-point 62 :  -0.1538 0.2308 0.0769  plane waves:    4044
 k-point 63 :   0.3846 0.3077 0.0769  plane waves:    4055
 k-point 64 :   0.4615 0.3077 0.0769  plane waves:    4054
 k-point 65 :  -0.4615 0.3077 0.0769  plane waves:    4058
 k-point 66 :  -0.3846 0.3077 0.0769  plane waves:    4061
 k-point 67 :  -0.3077 0.3077 0.0769  plane waves:    4055
 k-point 68 :  -0.2308 0.3077 0.0769  plane waves:    4065
 k-point 69 :   0.4615 0.3846 0.0769  plane waves:    4055
 k-point 70 :  -0.4615 0.3846 0.0769  plane waves:    4056
 k-point 71 :  -0.3846 0.3846 0.0769  plane waves:    4058
 k-point 72 :  -0.3077 0.3846 0.0769  plane waves:    4058
 k-point 73 :  -0.4615 0.4615 0.0769  plane waves:    4064
 k-point 74 :  -0.3846 0.4615 0.0769  plane waves:    4061
 k-point 75 :   0.4615 0.3077 0.1538  plane waves:    4062
 k-point 76 :  -0.4615 0.3077 0.1538  plane waves:    4057
 k-point 77 :  -0.3846 0.3077 0.1538  plane waves:    4056
 k-point 78 :  -0.4615 0.3846 0.1538  plane waves:    4061
 k-point 79 :  -0.3846 0.3846 0.1538  plane waves:    4064
 k-point 80 :  -0.3077 0.3846 0.1538  plane waves:    4068
 k-point 81 :  -0.2308 0.3846 0.1538  plane waves:    4060
 k-point 82 :  -0.3846 0.4615 0.1538  plane waves:    4066
 k-point 83 :  -0.3077 0.4615 0.1538  plane waves:    4067
 k-point 84 :  -0.3077 0.4615 0.2308  plane waves:    4067

 maximum and minimum number of plane-waves per node :      1027      996

 maximum number of plane-waves:      4069
 maximum index in each direction:
   IXMAX=   11   IYMAX=   11   IZMAX=   11
   IXMIN=  -11   IYMIN=  -11   IZMIN=  -11


 parallel 3D FFT for wavefunctions:
    minimum data exchange during FFTs selected (reduces bandwidth)
 parallel 3D FFT for charge:
    minimum data exchange during FFTs selected (reduces bandwidth)


 total amount of memory used by VASP MPI-rank0   118626. kBytes
=======================================================================

   base      :      30000. kBytes
   nonl-proj :      66367. kBytes
   fftplans  :       8954. kBytes
   grid      :       4709. kBytes
   one-center:         49. kBytes
   wavefun   :       8547. kBytes

     INWAV:  cpu time    0.0002: real time    0.0003
 Broyden mixing: mesh for mixing (old mesh)
   NGX = 23   NGY = 23   NGZ = 23
  (NGX  = 96   NGY  = 96   NGZ  = 96)
  gives a total of  12167 points

 initial charge density was supplied:
 charge density of overlapping atoms calculated
 number of electron      37.0000000 magnetization
 keeping initial charge density in first step


--------------------------------------------------------------------------------------------------------


 Maximum index for augmentation-charges        34053 (set IRDMAX)


--------------------------------------------------------------------------------------------------------


 First call to EWALD:  gamma=   0.387
 Maximum number of real-space cells 3x 3x 3
 Maximum number of reciprocal cells 3x 3x 3

    FEWALD:  cpu time    0.0053: real time    0.0090


--------------------------------------- Iteration      1(   1)  ---------------------------------------


    POTLOK:  cpu time    0.0589: real time    0.1511
    SETDIJ:  cpu time    0.1238: real time    0.1239
     EDDAV:  cpu time    1.7286: real time    1.8336
       DOS:  cpu time    0.0037: real time    0.0044
    --------------------------------------------
      LOOP:  cpu time    1.9154: real time    2.1140

 eigenvalue-minimisations  :  4032
 total energy-change (2. order) : 0.4325484E+03  (-0.2005936E+04)
 number of electron      37.0000000 magnetization
 augmentation part       37.0000000 magnetization

 Free energy of the ion-electron system (eV)
  ---------------------------------------------------
  alpha Z        PSCENC =       178.20641651
  Ewald energy   TEWEN  =     -2943.34675878
  -Hartree energ DENC   =      -839.86999328
  -exchange      EXHF   =         0.00000000
  -V(xc)+E(xc)   XCENC  =        66.52754716
  PAW double counting   =      3147.30828992    -3070.62761383
  entropy T*S    EENTRO =        -0.00011006
  eigenvalues    EBANDS =       219.67716262
  atomic energy  EATOM  =      3674.67342263
  Solvation  Ediel_sol  =         0.00000000
  ---------------------------------------------------
  free energy    TOTEN  =       432.54836289 eV

  energy without entropy =      432.54847296  energy(sigma->0) =      432.54841793


--------------------------------------------------------------------------------------------------------




--------------------------------------- Iteration      1(   2)  ---------------------------------------


     EDDAV:  cpu time    1.8045: real time    1.8288
       DOS:  cpu time    0.0030: real time    0.0032
    --------------------------------------------
      LOOP:  cpu time    1.8076: real time    1.8333

 eigenvalue-minimisations  :  4344
 total energy-change (2. order) :-0.3890110E+03  (-0.3822455E+03)
 number of electron      37.0000000 magnetization
 augmentation part       37.0000000 magnetization

 Free energy of the ion-electron system (eV)
  ---------------------------------------------------
  alpha Z        PSCENC =       178.20641651
  Ewald energy   TEWEN  =     -2943.34675878
  -Hartree energ DENC   =      -839.86999328
  -exchange      EXHF   =         0.00000000
  -V(xc)+E(xc)   XCENC  =        66.52754716
  PAW double counting   =      3147.30828992    -3070.62761383
  entropy T*S    EENTRO =        -0.00024244
  eigenvalues    EBANDS =      -169.33374803
  atomic energy  EATOM  =      3674.67342263
  Solvation  Ediel_sol  =         0.00000000
  ---------------------------------------------------
  free energy    TOTEN  =        43.53731987 eV

  energy without entropy =       43.53756231  energy(sigma->0) =       43.53744109


--------------------------------------------------------------------------------------------------------




--------------------------------------- Iteration      1(   3)  ---------------------------------------


     EDDAV:  cpu time    2.1666: real time    2.1942
       DOS:  cpu time    0.0029: real time    0.0033
    --------------------------------------------
      LOOP:  cpu time    2.1694: real time    2.1974

 eigenvalue-minimisations  :  5472
 total energy-change (2. order) :-0.6161168E+02  (-0.6085180E+02)
 number of electron      37.0000000 magnetization
 augmentation part       37.0000000 magnetization

 Free energy of the ion-electron system (eV)
  ---------------------------------------------------
  alpha Z        PSCENC =       178.20641651
  Ewald energy   TEWEN  =     -2943.34675878
  -Hartree energ DENC   =      -839.86999328
  -exchange      EXHF   =         0.00000000
  -V(xc)+E(xc)   XCENC  =        66.52754716
  PAW double counting   =      3147.30828992    -3070.62761383
  entropy T*S    EENTRO =        -0.00014985
  eigenvalues    EBANDS =      -230.94552186
  atomic energy  EATOM  =      3674.67342263
  Solvation  Ediel_sol  =         0.00000000
  ---------------------------------------------------
  free energy    TOTEN  =       -18.07436136 eV

  energy without entropy =      -18.07421151  energy(sigma->0) =      -18.07428644


--------------------------------------------------------------------------------------------------------




--------------------------------------- Iteration      1(   4)  ---------------------------------------


     EDDAV:  cpu time    2.7208: real time    2.7492
       DOS:  cpu time    0.0029: real time    0.0032
    --------------------------------------------
      LOOP:  cpu time    2.7237: real time    2.7539

 eigenvalue-minimisations  :  7320
 total energy-change (2. order) :-0.4229895E+01  (-0.4204733E+01)
 number of electron      37.0000000 magnetization
 augmentation part       37.0000000 magnetization

 Free energy of the ion-electron system (eV)
  ---------------------------------------------------
  alpha Z        PSCENC =       178.20641651
  Ewald energy   TEWEN  =     -2943.34675878
  -Hartree energ DENC   =      -839.86999328
  -exchange      EXHF   =         0.00000000
  -V(xc)+E(xc)   XCENC  =        66.52754716
  PAW double counting   =      3147.30828992    -3070.62761383
  entropy T*S    EENTRO =        -0.00021668
  eigenvalues    EBANDS =      -235.17535018
  atomic energy  EATOM  =      3674.67342263
  Solvation  Ediel_sol  =         0.00000000
  ---------------------------------------------------
  free energy    TOTEN  =       -22.30425652 eV

  energy without entropy =      -22.30403984  energy(sigma->0) =      -22.30414818


--------------------------------------------------------------------------------------------------------




--------------------------------------- Iteration      1(   5)  ---------------------------------------


     EDDAV:  cpu time    2.1937: real time    2.2161
       DOS:  cpu time    0.0031: real time    0.0038
    CHARGE:  cpu time    0.4438: real time    0.4593
    MIXING:  cpu time    0.0090: real time    0.0094
    --------------------------------------------
      LOOP:  cpu time    2.6497: real time    2.6854

 eigenvalue-minimisations  :  5512
 total energy-change (2. order) :-0.1330980E+00  (-0.1330559E+00)
 number of electron      37.0000000 magnetization
 augmentation part        6.0662454 magnetization

 Broyden mixing:
  rms(total) = 0.24419E+01    rms(broyden)= 0.24419E+01
  rms(prec ) = 0.28698E+01
  weight for this iteration     100.00

 Free energy of the ion-electron system (eV)
  ---------------------------------------------------
  alpha Z        PSCENC =       178.20641651
  Ewald energy   TEWEN  =     -2943.34675878
  -Hartree energ DENC   =      -839.86999328
  -exchange      EXHF   =         0.00000000
  -V(xc)+E(xc)   XCENC  =        66.52754716
  PAW double counting   =      3147.30828992    -3070.62761383
  entropy T*S    EENTRO =        -0.00019715
  eigenvalues    EBANDS =      -235.30846766
  atomic energy  EATOM  =      3674.67342263
  Solvation  Ediel_sol  =         0.00000000
  ---------------------------------------------------
  free energy    TOTEN  =       -22.43735448 eV

  energy without entropy =      -22.43715732  energy(sigma->0) =      -22.43725590


--------------------------------------------------------------------------------------------------------




--------------------------------------- Iteration      1(   6)  ---------------------------------------


    POTLOK:  cpu time    0.1211: real time    0.2304
    SETDIJ:  cpu time    0.0902: real time    0.0965
     EDDAV:  cpu time    2.0782: real time    2.0786
       DOS:  cpu time    0.0030: real time    0.0038
    CHARGE:  cpu time    0.3966: real time    0.3968
    MIXING:  cpu time    0.0066: real time    0.0071
    --------------------------------------------
      LOOP:  cpu time    2.6959: real time    2.8184

 eigenvalue-minimisations  :  5184
 total energy-change (2. order) : 0.1157216E+01  (-0.2487008E+00)
 number of electron      37.0000000 magnetization
 augmentation part        6.0692698 magnetization

 Broyden mixing:
  rms(total) = 0.16329E+01    rms(broyden)= 0.16329E+01
  rms(prec ) = 0.17706E+01
  weight for this iteration     100.00

 eigenvalues of (default mixing * dielectric matrix)
  average eigenvalue GAMMA=   2.8589
  2.8589

 Free energy of the ion-electron system (eV)
  ---------------------------------------------------
  alpha Z        PSCENC =       178.20641651
  Ewald energy   TEWEN  =     -2943.34675878
  -Hartree energ DENC   =      -825.48505076
  -exchange      EXHF   =         0.00000000
  -V(xc)+E(xc)   XCENC  =        66.07300374
  PAW double counting   =      3308.44531018    -3235.51727545
  entropy T*S    EENTRO =        -0.00044813
  eigenvalues    EBANDS =      -244.32875878
  atomic energy  EATOM  =      3674.67342263
  Solvation  Ediel_sol  =         0.00000000
  ---------------------------------------------------
  free energy    TOTEN  =       -21.28013883 eV

  energy without entropy =      -21.27969071  energy(sigma->0) =      -21.27991477


--------------------------------------------------------------------------------------------------------




--------------------------------------- Iteration      1(   7)  ---------------------------------------


    POTLOK:  cpu time    0.0489: real time    0.0946
    SETDIJ:  cpu time    0.1095: real time    0.1110
     EDDAV:  cpu time    2.3493: real time    2.3497
       DOS:  cpu time    0.0031: real time    0.0034
    CHARGE:  cpu time    0.3691: real time    0.3694
    MIXING:  cpu time    0.0052: real time    0.0055
    --------------------------------------------
      LOOP:  cpu time    2.8851: real time    2.9300

 eigenvalue-minimisations  :  6160
 total energy-change (2. order) : 0.1083893E+00  (-0.2914998E+00)
 number of electron      37.0000000 magnetization
 augmentation part        6.0726579 magnetization

 Broyden mixing:
  rms(total) = 0.64034E+00    rms(broyden)= 0.64034E+00
  rms(prec ) = 0.76033E+00
  weight for this iteration     100.00

 eigenvalues of (default mixing * dielectric matrix)
  average eigenvalue GAMMA=   2.1600
  1.0497  3.2703

 Free energy of the ion-electron system (eV)
  ---------------------------------------------------
  alpha Z        PSCENC =       178.20641651
  Ewald energy   TEWEN  =     -2943.34675878
  -Hartree energ DENC   =      -810.03241572
  -exchange      EXHF   =         0.00000000
  -V(xc)+E(xc)   XCENC  =        65.75802739
  PAW double counting   =      3508.93163127    -3439.68046250
  entropy T*S    EENTRO =        -0.00021396
  eigenvalues    EBANDS =      -255.68139634
  atomic energy  EATOM  =      3674.67342263
  Solvation  Ediel_sol  =         0.00000000
  ---------------------------------------------------
  free energy    TOTEN  =       -21.17174950 eV

  energy without entropy =      -21.17153554  energy(sigma->0) =      -21.17164252


--------------------------------------------------------------------------------------------------------




--------------------------------------- Iteration      1(   8)  ---------------------------------------


    POTLOK:  cpu time    0.0483: real time    0.0826
    SETDIJ:  cpu time    0.1100: real time    0.1102
     EDDAV:  cpu time    2.0322: real time    2.0528
       DOS:  cpu time    0.0030: real time    0.0036
    CHARGE:  cpu time    0.3621: real time    0.3626
    MIXING:  cpu time    0.0122: real time    0.0123
    --------------------------------------------
      LOOP:  cpu time    2.5679: real time    2.6226

 eigenvalue-minimisations  :  5104
 total energy-change (2. order) : 0.5188104E-01  (-0.1400050E+00)
 number of electron      37.0000000 magnetization
 augmentation part        5.9755515 magnetization

 Broyden mixing:
  rms(total) = 0.15566E+00    rms(broyden)= 0.15566E+00
  rms(prec ) = 0.26247E+00
  weight for this iteration     100.00

 eigenvalues of (default mixing * dielectric matrix)
  average eigenvalue GAMMA=   1.7194
  2.7651  1.1965  1.1965

 Free energy of the ion-electron system (eV)
  ---------------------------------------------------
  alpha Z        PSCENC =       178.20641651
  Ewald energy   TEWEN  =     -2943.34675878
  -Hartree energ DENC   =      -814.85578899
  -exchange      EXHF   =         0.00000000
  -V(xc)+E(xc)   XCENC  =        65.88800370
  PAW double counting   =      3526.07538047    -3456.32674709
  entropy T*S    EENTRO =        -0.00036162
  eigenvalues    EBANDS =      -251.43343529
  atomic energy  EATOM  =      3674.67342263
  Solvation  Ediel_sol  =         0.00000000
  ---------------------------------------------------
  free energy    TOTEN  =       -21.11986846 eV

  energy without entropy =      -21.11950684  energy(sigma->0) =      -21.11968765


--------------------------------------------------------------------------------------------------------




--------------------------------------- Iteration      1(   9)  ---------------------------------------


    POTLOK:  cpu time    0.0610: real time    0.0800
    SETDIJ:  cpu time    0.1105: real time    0.1107
     EDDAV:  cpu time    2.1642: real time    2.1644
       DOS:  cpu time    0.0032: real time    0.0033
    CHARGE:  cpu time    0.3708: real time    0.3710
    MIXING:  cpu time    0.0054: real time    0.0061
    --------------------------------------------
      LOOP:  cpu time    2.7150: real time    2.7393

 eigenvalue-minimisations  :  5560
 total energy-change (2. order) :-0.2343160E-02  (-0.5856079E-01)
 number of electron      37.0000000 magnetization
 augmentation part        5.9828390 magnetization

 Broyden mixing:
  rms(total) = 0.14642E+00    rms(broyden)= 0.14642E+00
  rms(prec ) = 0.29105E+00
  weight for this iteration     100.00

 eigenvalues of (default mixing * dielectric matrix)
  average eigenvalue GAMMA=   1.4541
  2.8000  1.2496  1.2496  0.5172

 Free energy of the ion-electron system (eV)
  ---------------------------------------------------
  alpha Z        PSCENC =       178.20641651
  Ewald energy   TEWEN  =     -2943.34675878
  -Hartree energ DENC   =      -813.16045579
  -exchange      EXHF   =         0.00000000
  -V(xc)+E(xc)   XCENC  =        65.82329921
  PAW double counting   =      3556.70514866    -3487.42237863
  entropy T*S    EENTRO =        -0.00024012
  eigenvalues    EBANDS =      -252.60066531
  atomic energy  EATOM  =      3674.67342263
  Solvation  Ediel_sol  =         0.00000000
  ---------------------------------------------------
  free energy    TOTEN  =       -21.12221162 eV

  energy without entropy =      -21.12197150  energy(sigma->0) =      -21.12209156


--------------------------------------------------------------------------------------------------------




--------------------------------------- Iteration      1(  10)  ---------------------------------------


    POTLOK:  cpu time    0.0562: real time    0.0967
    SETDIJ:  cpu time    0.0984: real time    0.0985
     EDDAV:  cpu time    2.2019: real time    2.2022
       DOS:  cpu time    0.0032: real time    0.0034
    CHARGE:  cpu time    0.3721: real time    0.3726
    MIXING:  cpu time    0.0055: real time    0.0056
    --------------------------------------------
      LOOP:  cpu time    2.7373: real time    2.7767

 eigenvalue-minimisations  :  5664
 total energy-change (2. order) : 0.2180277E-01  (-0.9231398E-02)
 number of electron      37.0000000 magnetization
 augmentation part        5.9719511 magnetization

 Broyden mixing:
  rms(total) = 0.90971E-01    rms(broyden)= 0.90971E-01
  rms(prec ) = 0.13127E+00
  weight for this iteration     100.00

 eigenvalues of (default mixing * dielectric matrix)
  average eigenvalue GAMMA=   1.6063
  3.3707  1.9288  1.1729  0.9029  0.6564

 Free energy of the ion-electron system (eV)
  ---------------------------------------------------
  alpha Z        PSCENC =       178.20641651
  Ewald energy   TEWEN  =     -2943.34675878
  -Hartree energ DENC   =      -813.89754910
  -exchange      EXHF   =         0.00000000
  -V(xc)+E(xc)   XCENC  =        65.83060534
  PAW double counting   =      3558.44134199    -3488.95914850
  entropy T*S    EENTRO =        -0.00032089
  eigenvalues    EBANDS =      -252.04841806
  atomic energy  EATOM  =      3674.67342263
  Solvation  Ediel_sol  =         0.00000000
  ---------------------------------------------------
  free energy    TOTEN  =       -21.10040885 eV

  energy without entropy =      -21.10008796  energy(sigma->0) =      -21.10024841


--------------------------------------------------------------------------------------------------------




--------------------------------------- Iteration      1(  11)  ---------------------------------------


    POTLOK:  cpu time    0.0667: real time    0.1047
    SETDIJ:  cpu time    0.1058: real time    0.1060
     EDDAV:  cpu time    2.3964: real time    2.3967
       DOS:  cpu time    0.0031: real time    0.0036
    CHARGE:  cpu time    0.3704: real time    0.3704
    MIXING:  cpu time    0.0060: real time    0.0061
    --------------------------------------------
      LOOP:  cpu time    2.9484: real time    2.9885

 eigenvalue-minimisations  :  6264
 total energy-change (2. order) : 0.2387713E-02  (-0.2490426E-02)
 number of electron      37.0000000 magnetization
 augmentation part        5.9843342 magnetization

 Broyden mixing:
  rms(total) = 0.60508E-01    rms(broyden)= 0.60508E-01
  rms(prec ) = 0.61271E-01
  weight for this iteration     100.00

 eigenvalues of (default mixing * dielectric matrix)
  average eigenvalue GAMMA=   1.3716
  2.4921  2.0843  1.1407  1.1407  0.6859  0.6859

 Free energy of the ion-electron system (eV)
  ---------------------------------------------------
  alpha Z        PSCENC =       178.20641651
  Ewald energy   TEWEN  =     -2943.34675878
  -Hartree energ DENC   =      -814.65812906
  -exchange      EXHF   =         0.00000000
  -V(xc)+E(xc)   XCENC  =        65.82252040
  PAW double counting   =      3569.20606896    -3499.46610496
  entropy T*S    EENTRO =        -0.00043676
  eigenvalues    EBANDS =      -251.53502008
  atomic energy  EATOM  =      3674.67342263
  Solvation  Ediel_sol  =         0.00000000
  ---------------------------------------------------
  free energy    TOTEN  =       -21.09802114 eV

  energy without entropy =      -21.09758438  energy(sigma->0) =      -21.09780276


--------------------------------------------------------------------------------------------------------




--------------------------------------- Iteration      1(  12)  ---------------------------------------


    POTLOK:  cpu time    0.0597: real time    0.0861
    SETDIJ:  cpu time    0.1122: real time    0.1123
     EDDAV:  cpu time    2.2731: real time    2.2734
       DOS:  cpu time    0.0030: real time    0.0036
    CHARGE:  cpu time    0.3707: real time    0.3714
    MIXING:  cpu time    0.0059: real time    0.0060
    --------------------------------------------
      LOOP:  cpu time    2.8246: real time    2.8503

 eigenvalue-minimisations  :  5864
 total energy-change (2. order) :-0.4166826E-04  (-0.1621435E-03)
 number of electron      37.0000000 magnetization
 augmentation part        5.9863280 magnetization

 Broyden mixing:
  rms(total) = 0.61536E-02    rms(broyden)= 0.61536E-02
  rms(prec ) = 0.11291E-01
  weight for this iteration     100.00

 eigenvalues of (default mixing * dielectric matrix)
  average eigenvalue GAMMA=   1.3698
  2.4324  2.1725  1.3315  1.3315  0.8564  0.8564  0.6077

 Free energy of the ion-electron system (eV)
  ---------------------------------------------------
  alpha Z        PSCENC =       178.20641651
  Ewald energy   TEWEN  =     -2943.34675878
  -Hartree energ DENC   =      -814.73255798
  -exchange      EXHF   =         0.00000000
  -V(xc)+E(xc)   XCENC  =        65.82960391
  PAW double counting   =      3560.92054440    -3491.13092605
  entropy T*S    EENTRO =        -0.00044045
  eigenvalues    EBANDS =      -251.51736699
  atomic energy  EATOM  =      3674.67342263
  Solvation  Ediel_sol  =         0.00000000
  ---------------------------------------------------
  free energy    TOTEN  =       -21.09806281 eV

  energy without entropy =      -21.09762236  energy(sigma->0) =      -21.09784258


--------------------------------------------------------------------------------------------------------




--------------------------------------- Iteration      1(  13)  ---------------------------------------


    POTLOK:  cpu time    0.0628: real time    0.0905
    SETDIJ:  cpu time    0.1107: real time    0.1108
     EDDAV:  cpu time    2.1423: real time    2.1425
       DOS:  cpu time    0.0032: real time    0.0034
    CHARGE:  cpu time    0.3608: real time    0.3613
    MIXING:  cpu time    0.0171: real time    0.0172
    --------------------------------------------
      LOOP:  cpu time    2.6969: real time    2.7295

 eigenvalue-minimisations  :  5360
 total energy-change (2. order) : 0.2147888E-04  (-0.8929003E-05)
 number of electron      37.0000000 magnetization
 augmentation part        5.9864472 magnetization

 Broyden mixing:
  rms(total) = 0.56788E-02    rms(broyden)= 0.56787E-02
  rms(prec ) = 0.79109E-02
  weight for this iteration     100.00

 eigenvalues of (default mixing * dielectric matrix)
  average eigenvalue GAMMA=   1.4702
  2.6919  2.1632  1.9923  1.2945  1.1781  0.9095  0.9095  0.6230

 Free energy of the ion-electron system (eV)
  ---------------------------------------------------
  alpha Z        PSCENC =       178.20641651
  Ewald energy   TEWEN  =     -2943.34675878
  -Hartree energ DENC   =      -814.73483718
  -exchange      EXHF   =         0.00000000
  -V(xc)+E(xc)   XCENC  =        65.82994934
  PAW double counting   =      3561.32340025    -3491.53391469
  entropy T*S    EENTRO =        -0.00043253
  eigenvalues    EBANDS =      -251.51528688
  atomic energy  EATOM  =      3674.67342263
  Solvation  Ediel_sol  =         0.00000000
  ---------------------------------------------------
  free energy    TOTEN  =       -21.09804133 eV

  energy without entropy =      -21.09760880  energy(sigma->0) =      -21.09782506


--------------------------------------------------------------------------------------------------------




--------------------------------------- Iteration      1(  14)  ---------------------------------------


    POTLOK:  cpu time    0.0575: real time    0.0787
    SETDIJ:  cpu time    0.1101: real time    0.1101
     EDDAV:  cpu time    2.4409: real time    2.4411
       DOS:  cpu time    0.0030: real time    0.0033
    CHARGE:  cpu time    0.3628: real time    0.3631
    MIXING:  cpu time    0.0139: real time    0.0140
    --------------------------------------------
      LOOP:  cpu time    2.9884: real time    3.0085

 eigenvalue-minimisations  :  6424
 total energy-change (2. order) : 0.8078667E-05  (-0.1494251E-04)
 number of electron      37.0000000 magnetization
 augmentation part        5.9853388 magnetization

 Broyden mixing:
  rms(total) = 0.39225E-02    rms(broyden)= 0.39224E-02
  rms(prec ) = 0.45843E-02
  weight for this iteration     100.00

 eigenvalues of (default mixing * dielectric matrix)
  average eigenvalue GAMMA=   1.4009
  2.6770  2.4772  1.6010  1.2612  1.2612  0.9628  0.9628  0.6319  0.7729

 Free energy of the ion-electron system (eV)
  ---------------------------------------------------
  alpha Z        PSCENC =       178.20641651
  Ewald energy   TEWEN  =     -2943.34675878
  -Hartree energ DENC   =      -814.71602586
  -exchange      EXHF   =         0.00000000
  -V(xc)+E(xc)   XCENC  =        65.83126478
  PAW double counting   =      3561.15567785    -3491.37046534
  entropy T*S    EENTRO =        -0.00042028
  eigenvalues    EBANDS =      -251.53114476
  atomic energy  EATOM  =      3674.67342263
  Solvation  Ediel_sol  =         0.00000000
  ---------------------------------------------------
  free energy    TOTEN  =       -21.09803325 eV

  energy without entropy =      -21.09761297  energy(sigma->0) =      -21.09782311


--------------------------------------------------------------------------------------------------------




--------------------------------------- Iteration      1(  15)  ---------------------------------------


    POTLOK:  cpu time    0.0579: real time    0.0791
    SETDIJ:  cpu time    0.1113: real time    0.1115
     EDDAV:  cpu time    2.2397: real time    2.2404
       DOS:  cpu time    0.0030: real time    0.0038
    CHARGE:  cpu time    0.3647: real time    0.3651
    MIXING:  cpu time    0.0094: real time    0.0095
    --------------------------------------------
      LOOP:  cpu time    2.7859: real time    2.8077

 eigenvalue-minimisations  :  5712
 total energy-change (2. order) : 0.7669178E-06  (-0.7947031E-06)
 number of electron      37.0000000 magnetization
 augmentation part        5.9852173 magnetization

 Broyden mixing:
  rms(total) = 0.24171E-02    rms(broyden)= 0.24171E-02
  rms(prec ) = 0.27689E-02
  weight for this iteration     100.00

 eigenvalues of (default mixing * dielectric matrix)
  average eigenvalue GAMMA=   1.4539
  2.6569  2.6569  1.5947  1.5947  1.5214  0.6264  0.9150  0.9150  1.0291  1.0291

 Free energy of the ion-electron system (eV)
  ---------------------------------------------------
  alpha Z        PSCENC =       178.20641651
  Ewald energy   TEWEN  =     -2943.34675878
  -Hartree energ DENC   =      -814.71529469
  -exchange      EXHF   =         0.00000000
  -V(xc)+E(xc)   XCENC  =        65.83062995
  PAW double counting   =      3561.38512466    -3491.59596699
  entropy T*S    EENTRO =        -0.00042218
  eigenvalues    EBANDS =      -251.53518360
  atomic energy  EATOM  =      3674.67342263
  Solvation  Ediel_sol  =         0.00000000
  ---------------------------------------------------
  free energy    TOTEN  =       -21.09803248 eV

  energy without entropy =      -21.09761030  energy(sigma->0) =      -21.09782139


--------------------------------------------------------------------------------------------------------




--------------------------------------- Iteration      1(  16)  ---------------------------------------


    POTLOK:  cpu time    0.0549: real time    0.0770
    SETDIJ:  cpu time    0.1118: real time    0.1120
     EDDAV:  cpu time    2.5108: real time    2.5110
       DOS:  cpu time    0.0031: real time    0.0036
    CHARGE:  cpu time    0.3632: real time    0.3647
    MIXING:  cpu time    0.0082: real time    0.0204
    --------------------------------------------
      LOOP:  cpu time    3.0520: real time    3.0889

 eigenvalue-minimisations  :  6576
 total energy-change (2. order) : 0.2914389E-06  (-0.2887079E-06)
 number of electron      37.0000000 magnetization
 augmentation part        5.9854182 magnetization

 Broyden mixing:
  rms(total) = 0.14213E-03    rms(broyden)= 0.14200E-03
  rms(prec ) = 0.27216E-03
  weight for this iteration     100.00

 eigenvalues of (default mixing * dielectric matrix)
  average eigenvalue GAMMA=   1.4514
  2.8531  2.4215  1.9449  1.6050  1.6050  0.6267  1.0760  1.0760  0.9133  0.9133
  0.9301

 Free energy of the ion-electron system (eV)
  ---------------------------------------------------
  alpha Z        PSCENC =       178.20641651
  Ewald energy   TEWEN  =     -2943.34675878
  -Hartree energ DENC   =      -814.71918771
  -exchange      EXHF   =         0.00000000
  -V(xc)+E(xc)   XCENC  =        65.83006949
  PAW double counting   =      3561.64404755    -3491.85074328
  entropy T*S    EENTRO =        -0.00042365
  eigenvalues    EBANDS =      -251.53487495
  atomic energy  EATOM  =      3674.67342263
  Solvation  Ediel_sol  =         0.00000000
  ---------------------------------------------------
  free energy    TOTEN  =       -21.09803219 eV

  energy without entropy =      -21.09760854  energy(sigma->0) =      -21.09782036


--------------------------------------------------------------------------------------------------------




--------------------------------------- Iteration      1(  17)  ---------------------------------------


    POTLOK:  cpu time    0.0524: real time    0.0790
    SETDIJ:  cpu time    0.1107: real time    0.1108
     EDDAV:  cpu time    1.9208: real time    1.9210
       DOS:  cpu time    0.0030: real time    0.0039
    --------------------------------------------
      LOOP:  cpu time    2.0868: real time    2.1146

 eigenvalue-minimisations  :  4584
 total energy-change (2. order) :-0.1276521E-07  (-0.4226192E-07)
 number of electron      37.0000000 magnetization
 augmentation part        5.9854182 magnetization

 Free energy of the ion-electron system (eV)
  ---------------------------------------------------
  alpha Z        PSCENC =       178.20641651
  Ewald energy   TEWEN  =     -2943.34675878
  -Hartree energ DENC   =      -814.72087786
  -exchange      EXHF   =         0.00000000
  -V(xc)+E(xc)   XCENC  =        65.83013039
  PAW double counting   =      3561.64904902    -3491.85577186
  entropy T*S    EENTRO =        -0.00042425
  eigenvalues    EBANDS =      -251.53321802
  atomic energy  EATOM  =      3674.67342263
  Solvation  Ediel_sol  =         0.00000000
  ---------------------------------------------------
  free energy    TOTEN  =       -21.09803220 eV

  energy without entropy =      -21.09760795  energy(sigma->0) =      -21.09782008


--------------------------------------------------------------------------------------------------------




 average (electrostatic) potential at core
  the test charge radii are     1.1985  1.0856  1.2059
  (the norm of the test charge is              1.0000)
       1 -59.9219       2-104.1756       3 -67.3516



 E-fermi :   6.4594     XC(G=0): -10.1576     alpha+bet :-11.6687


 k-point     1 :       0.0000    0.0000    0.0000
  band No.  band energies     occupation
      1     -34.1526      2.00000
      2     -16.2530      2.00000
      3     -16.2530      2.00000
      4     -16.2307      2.00000
      5     -16.2307      2.00000
      6     -16.2307      2.00000
      7     -11.9289      2.00000
      8     -11.9289      2.00000
      9     -11.9289      2.00000
     10      -4.9091      2.00000
     11       2.8654      2.00000
     12       2.8654      2.00000
     13       2.8654      2.00000
     14       3.1822      2.00000
     15       3.1822      2.00000
     16       4.0473      2.00000
     17       5.6582      2.00000
     18       5.6582      2.00000
     19       5.6582      2.00000
     20       6.7496      0.00000
     21       6.7496      0.00000
     22       6.7496      0.00000
     23       7.3451      0.00000
     24       7.9531      0.00000

 k-point     2 :       0.0769   -0.0000    0.0000
  band No.  band energies     occupation
      1     -34.1525      2.00000
      2     -16.2533      2.00000
      3     -16.2533      2.00000
      4     -16.2307      2.00000
      5     -16.2306      2.00000
      6     -16.2306      2.00000
      7     -11.9350      2.00000
      8     -11.9284      2.00000
      9     -11.9284      2.00000
     10      -4.8750      2.00000
     11       2.7067      2.00000
     12       2.8077      2.00000
     13       2.8077      2.00000
     14       3.2369      2.00000
     15       3.2369      2.00000
     16       4.0391      2.00000
     17       5.5832      2.00000
     18       5.5832      2.00000
     19       5.6463      2.00000
     20       6.8106      0.00000
     21       6.8274      0.00000
     22       6.8274      0.00000
     23       7.4923      0.00000
     24       7.9589      0.00000

 k-point     3 :       0.1538    0.0000   -0.0000
  band No.  band energies     occupation
      1     -34.1523      2.00000
      2     -16.2540      2.00000
      3     -16.2540      2.00000
      4     -16.2309      2.00000
      5     -16.2304      2.00000
      6     -16.2304      2.00000
      7     -11.9515      2.00000
      8     -11.9268      2.00000
[...]
  212              fftbas_plan_mpi                       0.096946                     12   6
  213                dfftw_execute                         0.039704                   36   7
  214                map_backward                          0.006110                   12   7
  215                  map_gather                            0.001622                  6   8
  216                  m_alltoallv_z                         0.002234                  6   8
  217                  map_scatter                           0.001959                  6   8
  218                map_forward                           0.047832                   12   7
  219                  map_gather                            0.026716                  6   8
  220                  m_alltoallv_z                         0.008907                  6   8
  221                  map_scatter                           0.011909                  6   8
  222            M_sumb_d                              0.001501                        6   5
  223          M_sumb_d                              0.000030                          1   4
  224        setdij_                               1.870738                           20   3
  225          fft3d_mpi                             0.346844                         40   4
  226            fftbas_plan_mpi                       0.318468                       40   5
  227              dfftw_execute                         0.133006                    120   6
  228              map_backward                          0.020379                     40   6
  229                map_gather                            0.005563                   20   7
  230                m_alltoallv_z                         0.007365                   20   7
  231                map_scatter                           0.006479                   20   7
  232              map_forward                           0.154451                     40   6
  233                map_gather                            0.084374                   20   7
  234                m_alltoallv_z                         0.029514                   20   7
  235                map_scatter                           0.039558                   20   7
  236          M_sumb_d                              0.006890                         20   4
  237        set_dd_magatom                        0.000004                            1   3
  238        set_dd_paw                            0.016715                            1   3
  239          set_rsgf_all                          0.000003                          1   4
  240          M_sumb_d                              0.016508                          8   4
  241        strkin                                0.001754                            1   3
  242          M_sumb_d                              0.000983                          1   4
  243        strelo                                0.003906                            1   3
  244          M_sumb_d                              0.000159                          2   4
  245        strenl                                1.421423                            1   3
  246          spher                                 1.059275                         19   4
  247          phase                                 0.016041                        189   4
  248          proj1                                 0.311893                       1134   4
  249            crexp_mul_wave                        0.042351                     3402   5
  250            M_sumb_d                              0.077673                     1134   5
  251          M_sumb_d                              0.010317                          1   4
  252        M_sumb_d                              0.000245                            6   3
  253        fft3d_mpi                             0.022518                           11   3
  254          fftbas_plan_mpi                       0.020809                         11   4
  255            dfftw_execute                         0.007562                       33   5
  256            map_forward                           0.004177                       10   5
  257              map_gather                            0.001173                      5   6
  258              m_alltoallv_z                         0.001584                      5   6
  259              map_scatter                           0.001149                      5   6
  260            map_backward                          0.006369                       12   5
  261              map_gather                            0.001575                      6   6
  262              m_alltoallv_z                         0.002646                      6   6
  263              map_scatter                           0.001856                      6   6
  264        ggaall_grid                           0.002635                            1   3
  265        forhar                                0.010317                            2   3
  266          M_sumb_d                              0.000177                          2   4
  267        strehar                               0.004296                            1   3
  268          M_sumb_d                              0.000160                          1   4
  269        chggra                                0.009343                            1   3
  270          fft3d_mpi                             0.005778                          3   4
  271            fftbas_plan_mpi                       0.005303                        3   5
  272              dfftw_execute                         0.002076                      9   6
  273              map_backward                          0.000936                      2   6
  274                map_gather                            0.000258                    1   7
  275                m_alltoallv_z                         0.000312                    1   7
  276                map_scatter                           0.000315                    1   7
  277              map_forward                           0.001507                      4   6
  278                map_gather                            0.000388                    2   7
  279                m_alltoallv_z                         0.000597                    2   7
  280                map_scatter                           0.000419                    2   7
  281          M_sumb_d                              0.000183                          3   4
  282        brmix                                 0.011950                            1   3
  283          M_sumb_d                              0.000336                          6   4
  284          brpre                                 0.000058                          1   4
  285          setg0                                 0.002360                          1   4
  286          broyd                                 0.002501                          1   4
  287            M_sumb_d                              0.000653                       19   5
  288            brget                                 0.000362                       69   5
  289            brsav                                 0.000125                       17   5
  290          M_bcast_z                             0.005155                          1   4
  291          M_bcast_d                             0.000038                          1   4
  292        M_bcast_d                             0.000178                            2   3
  293      potlok                                0.040384                              1   2
  294        fft3d_mpi                             0.026144                           13   3
  295          fftbas_plan_mpi                       0.024162                         13   4
  296            dfftw_execute                         0.008759                       39   5
  297            map_forward                           0.006170                       14   5
  298              map_gather                            0.001388                      8   6
  299              m_alltoallv_z                         0.002939                      8   6
  300              map_scatter                           0.001459                      8   6
  301            map_backward                          0.006069                       12   5
  302              map_gather                            0.001664                      6   6
  303              m_alltoallv_z                         0.001913                      6   6
  304              map_scatter                           0.002192                      6   6
  305        ggaall_grid                           0.002646                            1   3
  306        M_sumb_d                              0.000399                            6   3
  307        M_bcast_d                             0.000114                            1   3
  308      potlok_metagga                        0.000004                              1   2
  309      set_dd_magatom                        0.000003                              1   2
  310      set_dd_paw                            0.000624                              1   2
  311        set_rsgf_all                          0.000004                            1   3
  312        M_sumb_d                              0.000255                            8   3
  313      densta                                0.002439                              1   2
  314        M_sumb_d                              0.000898                           42   3
  315      lprj_proall                           0.000008                              1   2

 Flat profile
 ============

             routine name                   CPU           calls
 ---------------------------------------------------------------
 total_time                             14.213229           1
 dfftw_execute                           8.223200       53394
 eddav                                   6.150883          17
 fftbas_plan_mpi                         3.921246       17800
 setdij_                                 3.234732          41
 M_sumb_d                                3.034033       49348
 set_charge                              2.828427          13
 m_alltoallv_z                           2.275367       17825
 elmin                                   1.626137           1
 pdssyex_zheevx                          1.595205         357
 M_alltoall_d                            1.417204       59220
 vhamil                                  1.370878        8064
 proj1                                   1.290658        7182
 spher                                   1.226237          20
 gemm                                    1.208916       24192
 fftwav_mpi                              1.148216        9429
 map_forward                             1.124251       19152
 orth1                                   1.104688       12117
 map_gather                              0.987963       17825
 map_scatter                             0.970226       17825
 vnlac0                                  0.561702        8064
 M_bcast_z                               0.523797        6585
 redis_pw                                0.523525       22806
 hamiltmu                                0.463524        4032
 redis_proj                              0.446876       28749
 w1_copy                                 0.403988       24192
 fft3d_mpi                               0.340768       17798
 eccp                                    0.326068        2142
 work_mul_crexp                          0.325490       24192
 fftext_mpi                              0.301229        8064
 map_backward                            0.301009       16444
 crexp_mul_wave                          0.271963       21546
 crpa_reader                             0.266681           1
 pw_charge                               0.195846        1365
 kinhamil                                0.173438        8064
 overl                                   0.163932       14007
 potlok                                  0.147658          14
 M_bcast_d                               0.134713        4066
 overl1                                  0.099987        8064
 apply_precond                           0.095464        5922
 setup_precond                           0.078105        2142
 lincom                                  0.074141         378
 w1_projall                              0.066622        2961
 fornl                                   0.060108           1
 force_and_stress                        0.051778           1
 phase                                   0.049677         589
 soft_charge                             0.041686          13
 ggaall_grid                             0.039793          15
 brmix                                   0.037482          13
 truncate_high_frequency_w1              0.035268       10206
 densta                                  0.027791          18
 setg0                                   0.026475          14
 strenl                                  0.023897           1
 broyd                                   0.023556          13
 forhar                                  0.010140           2
 depsum                                  0.005569          13
 forloc                                  0.004846           1
 strehar                                 0.004136           1
 strelo                                  0.003747           1
 chggra                                  0.003382           1
 brget                                   0.003002         501
 set_dd_paw                              0.002899          15
 brgrid                                  0.002593           1
 orthch                                  0.002218           1
 choleski                                0.002002          21
 proj                                    0.001658          21
 brsav                                   0.001371         145
 brpre                                   0.000823          13
 strkin                                  0.000771           1
 fordep                                  0.000116           1
 vectorpot                               0.000078          14
 set_rsgf_all                            0.000070          15
 potlok_metagga                          0.000059          14
 set_dd_magatom                          0.000057          15
 set_kineden                             0.000044          12
 rotate_active_occupied_orbital          0.000015           1
 lprj_proall                             0.000008           1
 redis_pw_over_bands                     0.000003           1
 ---------------------------------------------------------------
  summed up times    65.7053420543671

 Accumulative profile
 ====================

             routine name                   CPU           calls
 ---------------------------------------------------------------
 total_time                             65.705342           1
 elmin                                  45.633688           1
 eddav                                  37.418823          17
 fft3d_mpi                              18.030154       17798
 fftbas_plan_mpi                        17.803262       17800
 hamiltmu                               12.166990        4032
 fftwav_mpi                             10.524534        9429
 dfftw_execute                           8.223200       53394
 kinhamil                                7.603770        8064
 fftext_mpi                              7.430332        8064
 set_charge                              4.869556          13
 force_and_stress                        4.445356           1
 setdij_                                 4.021193          41
 map_forward                             3.520221       19152
 M_sumb_d                                3.034033       49348
 vnlac0                                  2.628831        8064
 m_alltoallv_z                           2.275367       17825
 map_backward                            2.138596       16444
 proj1                                   2.066145        7182
 w1_projall                              1.785002        2961
 soft_charge                             1.770465          13
 pdssyex_zheevx                          1.595205         357
 strenl                                  1.421423           1
 M_alltoall_d                            1.417204       59220
 vhamil                                  1.370878        8064
 redis_pw                                1.332778       22806
 spher                                   1.226237          20
 gemm                                    1.208916       24192
 orth1                                   1.104688       12117
 redis_proj                              1.054828       28749
 map_gather                              0.987963       17825
 map_scatter                             0.970226       17825
 fordep                                  0.568971           1
 potlok                                  0.554157          14
 M_bcast_z                               0.523797        6585
 eccp                                    0.454370        2142
 w1_copy                                 0.403988       24192
 work_mul_crexp                          0.325490       24192
 crexp_mul_wave                          0.271963       21546
 crpa_reader                             0.266681           1
 pw_charge                               0.195846        1365
 overl                                   0.163932       14007
 set_dd_paw                              0.155848          15
 M_bcast_d                               0.134713        4066
 setup_precond                           0.128986        2142
 brmix                                   0.125373          13
 overl1                                  0.099987        8064
 apply_precond                           0.095464        5922
 fornl                                   0.077802           1
 lincom                                  0.074141         378
 phase                                   0.049677         589
 densta                                  0.041481          18
 ggaall_grid                             0.039793          15
 orthch                                  0.039780           1
 proj                                    0.037529          21
 truncate_high_frequency_w1              0.035268       10206
 broyd                                   0.034010          13
 setg0                                   0.026475          14
 forhar                                  0.010317           2
 chggra                                  0.009343           1
 depsum                                  0.008492          13
 forloc                                  0.005057           1
 strehar                                 0.004296           1
 strelo                                  0.003906           1
 brget                                   0.003002         501
 brgrid                                  0.002593           1
 choleski                                0.002002          21
 strkin                                  0.001754           1
 brsav                                   0.001371         145
 brpre                                   0.000823          13
 vectorpot                               0.000078          14
 set_rsgf_all                            0.000070          15
 potlok_metagga                          0.000059          14
 set_dd_magatom                          0.000057          15
 set_kineden                             0.000044          12
 rotate_active_occupied_orbital          0.000015           1
 lprj_proall                             0.000008           1
 redis_pw_over_bands                     0.000003           1
 ---------------------------------------------------------------

Profiling took   1.483409  1.725392  0.006947  0.005519 seconds
Profiling took   1.483500 seconds
