 ----------------------------------------------------
    OOO  PPPP  EEEEE N   N M   M PPPP
   O   O P   P E     NN  N MM MM P   P
   O   O PPPP  EEEEE N N N M M M PPPP   -- VERSION
   O   O P     E     N  NN M   M P
    OOO  P     EEEEE N   N M   M P
 ----------------------------------------------------
 running   64 mpi-ranks, with    1 threads/rank
 distrk:  each k-point on   16 cores,    4 groups
 distr:  one band on    4 cores,    4 groups
 using from now: INCAR
 vasp.6.0.8 29Jun18 (build Jun 13 2019 12:54:44) complex

 POSCAR found type information on POSCAR  Th Bi Pt
 POSCAR found :  3 types and       3 ions
 scaLAPACK will be used
 WARNING: PSMAXN for non-local potential too small

 -----------------------------------------------------------------------------
|                                                                             |
|  ADVICE TO THIS USER RUNNING 'VASP/VAMP'   (HEAR YOUR MASTER'S VOICE ...):  |
|                                                                             |
|      You enforced a specific xc-type in the INCAR file,                     |
|      a different type was found on the POTCAR file                          |
|          I HOPE YOU KNOW, WHAT YOU ARE  DOING                               |
|                                                                             |
 -----------------------------------------------------------------------------

 LDA part: xc-table for Pade appr. of Perdew
 POSCAR, INCAR and KPOINTS ok, starting setup
 FFT: planning ...
 WAVECAR not read
 entering main loop
       N       E                     dE             d eps       ncg     rms          rms(c)
 ELPA: falling back to scaLAPACK
 ELPA: falling back to scaLAPACK
 ELPA: falling back to scaLAPACK
 ELPA: falling back to scaLAPACK
DAV:   1     0.432548362894E+03    0.43255E+03   -0.20059E+04  4032   0.193E+03
DAV:   2     0.435373198704E+02   -0.38901E+03   -0.38225E+03  4344   0.474E+02
DAV:   3    -0.180743613605E+02   -0.61612E+02   -0.60852E+02  5472   0.158E+02
DAV:   4    -0.223042565183E+02   -0.42299E+01   -0.42047E+01  7320   0.433E+01
DAV:   5    -0.224373544753E+02   -0.13310E+00   -0.13306E+00  5512   0.606E+00    0.244E+01
DAV:   6    -0.212801388343E+02    0.11572E+01   -0.24870E+00  5184   0.777E+00    0.163E+01
DAV:   7    -0.211717494962E+02    0.10839E+00   -0.29150E+00  6160   0.886E+00    0.640E+00
DAV:   8    -0.211198684596E+02    0.51881E-01   -0.14000E+00  5104   0.505E+00    0.156E+00
DAV:   9    -0.211222116200E+02   -0.23432E-02   -0.58561E-01  5560   0.310E+00    0.146E+00
DAV:  10    -0.211004088511E+02    0.21803E-01   -0.92314E-02  5664   0.133E+00    0.910E-01
DAV:  11    -0.210980211382E+02    0.23877E-02   -0.24904E-02  6264   0.712E-01    0.605E-01
DAV:  12    -0.210980628065E+02   -0.41668E-04   -0.16214E-03  5864   0.184E-01    0.615E-02
DAV:  13    -0.210980413276E+02    0.21479E-04   -0.89290E-05  5360   0.480E-02    0.568E-02
DAV:  14    -0.210980332489E+02    0.80787E-05   -0.14943E-04  6424   0.493E-02    0.392E-02
DAV:  15    -0.210980324820E+02    0.76692E-06   -0.79470E-06  5712   0.145E-02    0.242E-02
DAV:  16    -0.210980321906E+02    0.29144E-06   -0.28871E-06  6576   0.770E-03    0.142E-03
DAV:  17    -0.210980322033E+02   -0.12765E-07   -0.42262E-07  4584   0.272E-03
   1 F= -.21098032E+02 E0= -.21097820E+02  d E =-.424249E-03
