<?xml version="1.0" encoding="ISO-8859-1"?>
<modeling>
 <generator>
  <i name="program" type="string">vasp </i>
  <i name="version" type="string">6.0.8  </i>
  <i name="subversion" type="string">29Jun18 (build Jun 13 2019 12:54:44) complex                          parallel </i>
  <i name="platform" type="string">IFC18_CrayMPICH </i>
  <i name="date" type="string">2021 12 05 </i>
  <i name="time" type="string">13:51:01 </i>
 </generator>
 <incar>
  <i type="int" name="KPAR">     4</i>
  <i type="int" name="NPAR">     4</i>
  <i type="int" name="ISTART">     0</i>
  <i type="string" name="PREC"> ACC</i>
  <i type="string" name="ALGO"> Normal</i>
  <i type="logical" name="ADDGRID"> T  </i>
  <i type="int" name="ISPIN">     1</i>
  <i type="int" name="NELMIN">     5</i>
  <i type="int" name="IBRION">    -1</i>
  <i name="EDIFF">      0.00000010</i>
  <i type="int" name="NSW">     0</i>
  <i type="int" name="ISIF">     3</i>
  <i name="ENCUT">    700.00000000</i>
  <i type="logical" name="LREAL"> F  </i>
  <i type="int" name="ISMEAR">     0</i>
  <i name="SIGMA">      0.01000000</i>
  <i type="logical" name="LWAVE"> F  </i>
  <i type="logical" name="LCHARG"> F  </i>
  <i type="logical" name="LVTOT"> F  </i>
  <i type="string" name="ALGO"> Normal</i>
  <i type="string" name="GGA"> PS</i>
  <i name="EDIFF">      0.00000010</i>
  <i type="int" name="ISPIN">     1</i>
 </incar>
 <structure name="primitive_cell" >
  <crystal>
   <varray name="basis" >
    <v>       0.00000000       3.63945576       3.63945576 </v>
    <v>       3.63945576       0.00000000       3.63945576 </v>
    <v>       3.63945576       3.63945576       0.00000000 </v>
   </varray>
   <i name="volume">     96.41382906 </i>
   <varray name="rec_basis" >
    <v>      -0.13738318       0.13738318       0.13738318 </v>
    <v>       0.13738318      -0.13738318       0.13738318 </v>
    <v>       0.13738318       0.13738318      -0.13738318 </v>
   </varray>
  </crystal>
  <varray name="positions" >
   <v>       0.25000000       0.25000000       0.25000000 </v>
   <v>       0.75000000       0.75000000       0.75000000 </v>
   <v>       0.00000000       0.00000000       0.00000000 </v>
  </varray>
 </structure>
 <varray name="primitive_index" >
  <v type="int" >        1 </v>
  <v type="int" >        2 </v>
  <v type="int" >        3 </v>
 </varray>
 <kpoints>
  <generation param="Gamma">
   <v type="int" name="divisions">      13       13       13 </v>
   <v name="usershift">      0.00000000       0.00000000       0.00000000 </v>
   <v name="genvec1">      0.07692308      -0.00000000       0.00000000 </v>
   <v name="genvec2">     -0.00000000       0.07692308      -0.00000000 </v>
   <v name="genvec3">      0.00000000       0.00000000       0.07692308 </v>
   <v name="shift">      0.00000000       0.00000000       0.00000000 </v>
  </generation>
  <varray name="kpointlist" >
   <v>       0.00000000       0.00000000       0.00000000 </v>
   <v>       0.07692308      -0.00000000       0.00000000 </v>
   <v>       0.15384615       0.00000000      -0.00000000 </v>
   <v>       0.23076923       0.00000000       0.00000000 </v>
   <v>       0.30769231       0.00000000      -0.00000000 </v>
   <v>       0.38461538       0.00000000      -0.00000000 </v>
   <v>       0.46153846      -0.00000000       0.00000000 </v>
   <v>       0.07692308       0.07692308       0.00000000 </v>
   <v>       0.15384615       0.07692308      -0.00000000 </v>
   <v>       0.23076923       0.07692308      -0.00000000 </v>
   <v>       0.30769231       0.07692308       0.00000000 </v>
   <v>       0.38461538       0.07692308      -0.00000000 </v>
   <v>       0.46153846       0.07692308       0.00000000 </v>
   <v>      -0.46153846       0.07692308      -0.00000000 </v>
   <v>      -0.38461538       0.07692308       0.00000000 </v>
   <v>      -0.30769231       0.07692308       0.00000000 </v>
   <v>      -0.23076923       0.07692308      -0.00000000 </v>
   <v>      -0.15384615       0.07692308       0.00000000 </v>
   <v>      -0.07692308       0.07692308      -0.00000000 </v>
   <v>       0.15384615       0.15384615       0.00000000 </v>
   <v>       0.23076923       0.15384615       0.00000000 </v>
   <v>       0.30769231       0.15384615       0.00000000 </v>
   <v>       0.38461538       0.15384615       0.00000000 </v>
   <v>       0.46153846       0.15384615       0.00000000 </v>
   <v>      -0.46153846       0.15384615       0.00000000 </v>
   <v>      -0.38461538       0.15384615      -0.00000000 </v>
   <v>      -0.30769231       0.15384615      -0.00000000 </v>
   <v>      -0.23076923       0.15384615       0.00000000 </v>
   <v>      -0.15384615       0.15384615       0.00000000 </v>
   <v>       0.23076923       0.23076923       0.00000000 </v>
   <v>       0.30769231       0.23076923       0.00000000 </v>
   <v>       0.38461538       0.23076923       0.00000000 </v>
   <v>       0.46153846       0.23076923       0.00000000 </v>
   <v>      -0.46153846       0.23076923       0.00000000 </v>
   <v>      -0.38461538       0.23076923      -0.00000000 </v>
   <v>      -0.30769231       0.23076923      -0.00000000 </v>
   <v>      -0.23076923       0.23076923       0.00000000 </v>
   <v>       0.30769231       0.30769231       0.00000000 </v>
   <v>       0.38461538       0.30769231       0.00000000 </v>
   <v>       0.46153846       0.30769231       0.00000000 </v>
   <v>      -0.46153846       0.30769231       0.00000000 </v>
   <v>      -0.38461538       0.30769231       0.00000000 </v>
   <v>      -0.30769231       0.30769231       0.00000000 </v>
   <v>       0.38461538       0.38461538       0.00000000 </v>
   <v>       0.46153846       0.38461538       0.00000000 </v>
   <v>      -0.46153846       0.38461538       0.00000000 </v>
   <v>      -0.38461538       0.38461538       0.00000000 </v>
   <v>       0.46153846       0.46153846       0.00000000 </v>
   <v>      -0.46153846       0.46153846      -0.00000000 </v>
   <v>       0.23076923       0.15384615       0.07692308 </v>
   <v>       0.30769231       0.15384615       0.07692308 </v>
   <v>       0.38461538       0.15384615       0.07692308 </v>
   <v>       0.46153846       0.15384615       0.07692308 </v>
   <v>      -0.46153846       0.15384615       0.07692308 </v>
   <v>       0.30769231       0.23076923       0.07692308 </v>
   <v>       0.38461538       0.23076923       0.07692308 </v>
   <v>       0.46153846       0.23076923       0.07692308 </v>
   <v>      -0.46153846       0.23076923       0.07692308 </v>
   <v>      -0.38461538       0.23076923       0.07692308 </v>
   <v>      -0.30769231       0.23076923       0.07692308 </v>
   <v>      -0.23076923       0.23076923       0.07692308 </v>
   <v>      -0.15384615       0.23076923       0.07692308 </v>
   <v>       0.38461538       0.30769231       0.07692308 </v>
   <v>       0.46153846       0.30769231       0.07692308 </v>
   <v>      -0.46153846       0.30769231       0.07692308 </v>
   <v>      -0.38461538       0.30769231       0.07692308 </v>
   <v>      -0.30769231       0.30769231       0.07692308 </v>
   <v>      -0.23076923       0.30769231       0.07692308 </v>
   <v>       0.46153846       0.38461538       0.07692308 </v>
   <v>      -0.46153846       0.38461538       0.07692308 </v>
   <v>      -0.38461538       0.38461538       0.07692308 </v>
   <v>      -0.30769231       0.38461538       0.07692308 </v>
   <v>      -0.46153846       0.46153846       0.07692308 </v>
   <v>      -0.38461538       0.46153846       0.07692308 </v>
   <v>       0.46153846       0.30769231       0.15384615 </v>
   <v>      -0.46153846       0.30769231       0.15384615 </v>
   <v>      -0.38461538       0.30769231       0.15384615 </v>
   <v>      -0.46153846       0.38461538       0.15384615 </v>
   <v>      -0.38461538       0.38461538       0.15384615 </v>
   <v>      -0.30769231       0.38461538       0.15384615 </v>
   <v>      -0.23076923       0.38461538       0.15384615 </v>
   <v>      -0.38461538       0.46153846       0.15384615 </v>
   <v>      -0.30769231       0.46153846       0.15384615 </v>
   <v>      -0.30769231       0.46153846       0.23076923 </v>
  </varray>
  <varray name="weights" >
   <v>       0.00045517 </v>
   <v>       0.00364133 </v>
   <v>       0.00364133 </v>
   <v>       0.00364133 </v>
   <v>       0.00364133 </v>
   <v>       0.00364133 </v>
   <v>       0.00364133 </v>
   <v>       0.00273100 </v>
   <v>       0.01092399 </v>
   <v>       0.01092399 </v>
   <v>       0.01092399 </v>
   <v>       0.01092399 </v>
   <v>       0.01092399 </v>
   <v>       0.01092399 </v>
   <v>       0.01092399 </v>
   <v>       0.01092399 </v>
   <v>       0.01092399 </v>
   <v>       0.01092399 </v>
   <v>       0.00546199 </v>
   <v>       0.00273100 </v>
   <v>       0.01092399 </v>
   <v>       0.01092399 </v>
   <v>       0.01092399 </v>
   <v>       0.01092399 </v>
   <v>       0.01092399 </v>
   <v>       0.01092399 </v>
   <v>       0.01092399 </v>
   <v>       0.01092399 </v>
   <v>       0.00546199 </v>
   <v>       0.00273100 </v>
   <v>       0.01092399 </v>
   <v>       0.01092399 </v>
   <v>       0.01092399 </v>
   <v>       0.01092399 </v>
   <v>       0.01092399 </v>
   <v>       0.01092399 </v>
   <v>       0.00546199 </v>
   <v>       0.00273100 </v>
   <v>       0.01092399 </v>
   <v>       0.01092399 </v>
   <v>       0.01092399 </v>
   <v>       0.01092399 </v>
   <v>       0.00546199 </v>
   <v>       0.00273100 </v>
   <v>       0.01092399 </v>
   <v>       0.01092399 </v>
   <v>       0.00546199 </v>
   <v>       0.00273100 </v>
   <v>       0.00546199 </v>
   <v>       0.01092399 </v>
   <v>       0.02184797 </v>
   <v>       0.02184797 </v>
   <v>       0.02184797 </v>
   <v>       0.02184797 </v>
   <v>       0.01092399 </v>
   <v>       0.02184797 </v>
   <v>       0.02184797 </v>
   <v>       0.02184797 </v>
   <v>       0.02184797 </v>
   <v>       0.02184797 </v>
   <v>       0.02184797 </v>
   <v>       0.01092399 </v>
   <v>       0.01092399 </v>
   <v>       0.02184797 </v>
   <v>       0.02184797 </v>
   <v>       0.02184797 </v>
   <v>       0.02184797 </v>
   <v>       0.01092399 </v>
   <v>       0.01092399 </v>
   <v>       0.02184797 </v>
   <v>       0.02184797 </v>
   <v>       0.01092399 </v>
   <v>       0.01092399 </v>
   <v>       0.01092399 </v>
   <v>       0.01092399 </v>
   <v>       0.02184797 </v>
   <v>       0.02184797 </v>
   <v>       0.01092399 </v>
   <v>       0.02184797 </v>
   <v>       0.02184797 </v>
   <v>       0.01092399 </v>
   <v>       0.01092399 </v>
   <v>       0.01092399 </v>
   <v>       0.01092399 </v>
  </varray>
 </kpoints>
 <parameters>
  <separator name="general" >
   <i type="string" name="SYSTEM">unknown system</i>
   <i type="logical" name="LCOMPAT"> F  </i>
  </separator>
  <separator name="electronic" >
   <i type="string" name="PREC">acc</i>
   <i name="ENMAX">    700.00000000</i>
   <i name="ENAUG">    535.43100000</i>
   <i name="EDIFF">      0.00000010</i>
   <i type="int" name="IALGO">    38</i>
   <i type="int" name="IWAVPR">    10</i>
   <i type="int" name="NBANDS">    24</i>
   <i type="int" name="NBANDSLOW">    -1</i>
   <i type="int" name="NBANDSHIGH">    -1</i>
   <i name="NELECT">     37.00000000</i>
   <i type="int" name="TURBO">     0</i>
   <i type="int" name="IRESTART">     0</i>
   <i type="int" name="NREBOOT">     0</i>
   <i type="int" name="NMIN">     0</i>
   <i name="EREF">      0.00000000</i>
   <separator name="electronic smearing" >
    <i type="int" name="ISMEAR">     0</i>
    <i name="SIGMA">      0.01000000</i>
    <i name="KSPACING">      0.50000000</i>
    <i type="logical" name="KGAMMA"> T  </i>
    <i type="logical" name="KBLOWUP"> T  </i>
   </separator>
   <separator name="electronic projectors" >
    <i type="logical" name="LREAL"> F  </i>
    <v name="ROPT">      0.00000000      0.00000000      0.00000000</v>
    <i type="int" name="LMAXPAW">  -100</i>
    <i type="int" name="LMAXMIX">     2</i>
    <i type="logical" name="NLSPLINE"> F  </i>
   </separator>
   <separator name="electronic startup" >
    <i type="int" name="ISTART">     0</i>
    <i type="int" name="ICHARG">     2</i>
    <i type="int" name="INIWAV">     1</i>
   </separator>
   <separator name="electronic spin" >
    <i type="int" name="ISPIN">     1</i>
    <i type="logical" name="LNONCOLLINEAR"> F  </i>
    <v name="MAGMOM">      1.00000000      1.00000000      1.00000000</v>
    <i name="NUPDOWN">     -1.00000000</i>
    <i type="logical" name="LSORBIT"> F  </i>
    <v name="SAXIS">      0.00000000      0.00000000      1.00000000</v>
    <i type="logical" name="LSPIRAL"> F  </i>
    <v name="QSPIRAL">      0.00000000      0.00000000      0.00000000</v>
    <i type="logical" name="LZEROZ"> F  </i>
   </separator>
   <separator name="electronic exchange-correlation" >
    <i type="logical" name="LASPH"> F  </i>
    <i type="logical" name="LMETAGGA"> F  </i>
   </separator>
   <separator name="electronic convergence" >
    <i type="int" name="NELM">    60</i>
    <i type="int" name="NELMDL">    -5</i>
    <i type="int" name="NELMIN">     5</i>
    <i name="ENINI">    700.00000000</i>
    <separator name="electronic convergence detail" >
     <i type="logical" name="LDIAG"> T  </i>
     <i type="logical" name="LSUBROT"> F  </i>
     <i name="WEIMIN">      0.00000000</i>
     <i name="EBREAK">      0.00000000</i>
     <i name="DEPER">      0.30000000</i>
     <i type="int" name="NRMM">     4</i>
     <i name="TIME">      0.40000000</i>
    </separator>
   </separator>
   <separator name="electronic mixer" >
    <i name="AMIX">      0.40000000</i>
    <i name="BMIX">      1.00000000</i>
    <i name="AMIN">      0.10000000</i>
    <i name="AMIX_MAG">      1.60000000</i>
    <i name="BMIX_MAG">      1.00000000</i>
    <separator name="electronic mixer details" >
     <i type="int" name="IMIX">     4</i>
     <i type="logical" name="MIXFIRST"> F  </i>
     <i type="int" name="MAXMIX">   -45</i>
     <i name="WC">    100.00000000</i>
     <i type="int" name="INIMIX">     1</i>
     <i type="int" name="MIXPRE">     1</i>
     <i type="int" name="MREMOVE">     5</i>
    </separator>
   </separator>
   <separator name="electronic dipolcorrection" >
    <i type="logical" name="LDIPOL"> F  </i>
    <i type="logical" name="LMONO"> F  </i>
    <i type="int" name="IDIPOL">     0</i>
    <i name="EPSILON">      1.00000000</i>
    <v name="DIPOL">   -100.00000000   -100.00000000   -100.00000000</v>
    <i name="EFIELD">      0.00000000</i>
   </separator>
  </separator>
  <separator name="grids" >
   <i type="int" name="NGX">    48</i>
   <i type="int" name="NGY">    48</i>
   <i type="int" name="NGZ">    48</i>
   <i type="int" name="NGXF">    96</i>
   <i type="int" name="NGYF">    96</i>
   <i type="int" name="NGZF">    96</i>
   <i type="logical" name="ADDGRID"> T  </i>
  </separator>
  <separator name="ionic" >
   <i type="int" name="NSW">     0</i>
   <i type="int" name="IBRION">    -1</i>
   <i type="int" name="MDALGO">     0</i>
   <i type="int" name="ISIF">     3</i>
   <i name="PSTRESS">      0.00000000</i>
   <i name="EDIFFG">      0.00000100</i>
   <i type="int" name="NFREE">     0</i>
   <i name="POTIM">      0.50000000</i>
   <i name="SMASS">     -3.00000000</i>
   <i name="SCALEE">      1.00000000</i>
  </separator>
  <separator name="ionic md" >
   <i name="TEBEG">      0.00010000</i>
   <i name="TEEND">      0.00010000</i>
   <i type="int" name="NBLOCK">     1</i>
   <i type="int" name="KBLOCK">     1</i>
   <i type="int" name="NPACO">   256</i>
   <i name="APACO">     16.00000000</i>
  </separator>
  <separator name="symmetry" >
   <i type="int" name="ISYM">     2</i>
   <i name="SYMPREC">      0.00001000</i>
  </separator>
  <separator name="dos" >
   <i type="int" name="LORBIT">     0</i>
   <v name="RWIGS">     -1.00000000     -1.00000000     -1.00000000</v>
   <i type="int" name="NEDOS">   301</i>
   <i name="EMIN">     10.00000000</i>
   <i name="EMAX">    -10.00000000</i>
   <i name="EFERMI">      0.00000000</i>
  </separator>
  <separator name="writing" >
   <i type="int" name="NWRITE">     2</i>
   <i type="logical" name="LWAVE"> F  </i>
   <i type="logical" name="LDOWNSAMPLE"> F  </i>
   <i type="logical" name="LCHARG"> F  </i>
   <i type="logical" name="LPARD"> F  </i>
   <i type="logical" name="LVTOT"> F  </i>
   <i type="logical" name="LVHAR"> F  </i>
   <i type="logical" name="LELF"> F  </i>
   <i type="logical" name="LOPTICS"> F  </i>
   <v name="STM">      0.00000000      0.00000000      0.00000000      0.00000000      0.00000000      0.00000000      0.00000000</v>
  </separator>
  <separator name="performance" >
   <i type="int" name="NPAR">     4</i>
   <i type="int" name="NSIM">     4</i>
   <i type="int" name="NBLK">    -1</i>
   <i type="logical" name="LPLANE"> T  </i>
   <i type="logical" name="LSCALAPACK"> T  </i>
   <i type="logical" name="LSCAAWARE"> F  </i>
   <i type="logical" name="LSCALU"> F  </i>
   <i type="logical" name="LASYNC"> F  </i>
   <i type="logical" name="LORBITALREAL"> F  </i>
  </separator>
  <separator name="miscellaneous" >
   <i type="int" name="IDIOT">     3</i>
   <i type="int" name="PHON_NSTRUCT">    -1</i>
   <i type="logical" name="LMUSIC"> F  </i>
   <v name="POMASS">    232.03900000    208.98000000    195.08000000</v>
   <v name="DARWINR">      0.00000000      0.00000000      0.00000000</v>
   <v name="DARWINV">      1.00000000      1.00000000      1.00000000</v>
   <i type="logical" name="LCORR"> T  </i>
  </separator>
  <i type="logical" name="GGA_COMPAT"> T  </i>
  <i type="logical" name="LBERRY"> F  </i>
  <i type="int" name="ICORELEVEL">     0</i>
  <i type="logical" name="LDAU"> F  </i>
  <i type="int" name="I_CONSTRAINED_M">     0</i>
  <separator name="electronic exchange-correlation" >
   <i type="string" name="GGA">PS</i>
   <i type="int" name="VOSKOWN">     0</i>
   <i type="logical" name="LHFCALC"> F  </i>
   <i type="string" name="PRECFOCK"></i>
   <i type="logical" name="LSYMGRAD"> F  </i>
   <i type="logical" name="LHFONE"> F  </i>
   <i type="logical" name="LRHFCALC"> F  </i>
   <i type="logical" name="LTHOMAS"> F  </i>
   <i type="logical" name="LMODELHF"> F  </i>
   <i type="logical" name="LFOCKACE"> F  </i>
   <i name="ENCUT4O">     -1.00000000</i>
   <i type="int" name="EXXOEP">     0</i>
   <i type="int" name="FOURORBIT">     0</i>
   <i name="AEXX">      0.00000000</i>
   <i name="HFALPHA">      0.00000000</i>
   <i name="MCALPHA">      0.00000000</i>
   <i name="ALDAX">      1.00000000</i>
   <i name="AGGAX">      1.00000000</i>
   <i name="ALDAC">      1.00000000</i>
   <i name="AGGAC">      1.00000000</i>
   <i type="int" name="NKREDX">     1</i>
   <i type="int" name="NKREDY">     1</i>
   <i type="int" name="NKREDZ">     1</i>
   <i type="logical" name="SHIFTRED"> F  </i>
   <i type="logical" name="ODDONLY"> F  </i>
   <i type="logical" name="EVENONLY"> F  </i>
   <i type="int" name="LMAXFOCK">     0</i>
   <i type="int" name="NMAXFOCKAE">     0</i>
   <i type="logical" name="LFOCKAEDFT"> F  </i>
   <i name="HFSCREEN">      0.00000000</i>
   <i name="HFSCREENC">      0.00000000</i>
   <i type="int" name="NBANDSGWLOW">     0</i>
  </separator>
  <separator name="vdW DFT" >
   <i type="logical" name="LUSE_VDW"> F  </i>
   <i name="Zab_VDW">     -0.84910000</i>
   <i name="PARAM1">      0.12340000</i>
   <i name="PARAM2">      1.00000000</i>
   <i name="PARAM3">      0.00000000</i>
  </separator>
  <separator name="model GW" >
   <i type="int" name="MODEL_GW">     0</i>
   <i name="MODEL_EPS0">     19.28276581</i>
   <i name="MODEL_ALPHA">      1.00000000</i>
  </separator>
  <separator name="linear response parameters" >
   <i type="logical" name="LEPSILON"> F  </i>
   <i type="logical" name="LRPA"> F  </i>
   <i type="logical" name="LNABLA"> F  </i>
   <i type="logical" name="LVEL"> F  </i>
   <i type="int" name="KINTER">     0</i>
   <i name="CSHIFT">      0.10000000</i>
   <i name="OMEGAMAX">     -1.00000000</i>
   <i name="DEG_THRESHOLD">      0.00200000</i>
   <i name="RTIME">     -0.10000000</i>
   <i name="WPLASMAI">      0.00000000</i>
   <v name="DFIELD">      0.00000000      0.00000000      0.00000000</v>
   <v name="WPLASMA">      0.00000000      0.00000000      0.00000000      0.00000000      0.00000000      0.00000000      0.00000000      0.00000000      0.00000000</v>
  </separator>
  <separator name="orbital magnetization" >
   <i type="logical" name="NUCIND"> F  </i>
   <v name="MAGPOS">      0.00000000      0.00000000      0.00000000</v>
   <i type="logical" name="LNICSALL"> T  </i>
   <i type="logical" name="ORBITALMAG"> F  </i>
   <i type="logical" name="LMAGBLOCH"> F  </i>
   <i type="logical" name="LCHIMAG"> F  </i>
   <i type="logical" name="LGAUGE"> T  </i>
   <i type="int" name="MAGATOM">     0</i>
   <v name="MAGDIPOL">      0.00000000      0.00000000      0.00000000</v>
   <v name="AVECCONST">      0.00000000      0.00000000      0.00000000</v>
  </separator>
  <separator name="response functions" >
   <i type="logical" name="LFINITE_TEMPERATURE"> F  </i>
   <i type="logical" name="LADDER"> F  </i>
   <i type="logical" name="LRPAFORCE"> F  </i>
   <i type="logical" name="LFXC"> F  </i>
   <i type="logical" name="LHARTREE"> T  </i>
   <i type="int" name="IBSE">     0</i>
   <v type="int" name="KPOINT">    -1     0     0     0</v>
   <i type="logical" name="LTCTC"> F  </i>
   <i type="logical" name="LTCTE"> F  </i>
   <i type="logical" name="LTETE"> F  </i>
   <i type="logical" name="LTRIPLET"> F  </i>
   <i type="logical" name="LFXCEPS"> F  </i>
   <i type="logical" name="LFXHEG"> F  </i>
   <i type="int" name="NATURALO">     2</i>
   <i type="logical" name="L2ORDER"> F  </i>
   <i type="logical" name="LDMP1"> F  </i>
   <i type="logical" name="LMP2LT"> F  </i>
   <i type="logical" name="LSMP2LT"> F  </i>
   <i type="logical" name="LUSEW"> F  </i>
   <i name="ENCUTGW">     -2.00000000</i>
   <i name="ENCUTGWSOFT">     -2.00000000</i>
   <i name="ENCUTLF">     -1.00000000</i>
   <i type="int" name="LMAXMP2">    -1</i>
   <i name="SCISSOR">      0.00000000</i>
   <i type="int" name="NOMEGA">     0</i>
   <i type="int" name="NOMEGAR">     0</i>
   <i type="int" name="NBANDSGW">    -1</i>
   <i type="int" name="NBANDSO">    -1</i>
   <i type="int" name="NBANDSV">    -1</i>
   <i type="int" name="NELM">     1</i>
   <i type="int" name="NELMHF">     1</i>
   <i type="int" name="DIM">     3</i>
   <i type="int" name="IESPILON">     4</i>
   <i type="int" name="ANTIRES">     0</i>
   <i name="OMEGAMAX">    -30.00000000</i>
   <i name="OMEGAMIN">    -30.00000000</i>
   <i name="OMEGATL">   -200.00000000</i>
   <i type="int" name="OMEGAGRID">   145</i>
   <i name="CSHIFT">     -0.10000000</i>
   <i type="logical" name="LSELFENERGY"> F  </i>
   <i type="logical" name="LSPECTRAL"> F  </i>
   <i type="logical" name="LSPECTRALGW"> F  </i>
   <i type="logical" name="LSINGLES"> F  </i>
   <i type="logical" name="LFERMIGW"> F  </i>
   <i type="logical" name="ODDONLYGW"> F  </i>
   <i type="logical" name="EVENONLYGW"> F  </i>
   <i type="int" name="NKREDLFX">     1</i>
   <i type="int" name="NKREDLFY">     1</i>
   <i type="int" name="NKREDLFZ">     1</i>
   <i type="int" name="MAXMEM">  2800</i>
   <i type="int" name="TELESCOPE">     0</i>
   <i type="int" name="NTAUPAR">     1</i>
   <i type="int" name="NOMEGAPAR">    -1</i>
   <i name="LAMBDA">      1.00000000</i>
  </separator>
  <separator name="External order field" >
   <i name="OFIELD_KAPPA">      0.00000000</i>
   <v name="OFIELD_K">      0.00000000      0.00000000      0.00000000</v>
   <i name="OFIELD_Q6_NEAR">      0.00000000</i>
   <i name="OFIELD_Q6_FAR">      0.00000000</i>
   <i name="OFIELD_A">      0.00000000</i>
  </separator>
 </parameters>
 <atominfo>
  <atoms>       3 </atoms>
  <types>       3 </types>
  <array name="atoms" >
   <dimension dim="1">ion</dimension>
   <field type="string">element</field>
   <field type="int">atomtype</field>
   <set>
    <rc><c>Th</c><c>   1</c></rc>
    <rc><c>Bi</c><c>   2</c></rc>
    <rc><c>Pt</c><c>   3</c></rc>
   </set>
  </array>
  <array name="atomtypes" >
   <dimension dim="1">type</dimension>
   <field type="int">atomspertype</field>
   <field type="string">element</field>
   <field>mass</field>
   <field>valence</field>
   <field type="string">pseudopotential</field>
   <set>
    <rc><c>   1</c><c>Th</c><c>    232.03900000</c><c>     12.00000000</c><c>  PAW_PBE Th 07Sep2000                  </c></rc>
    <rc><c>   1</c><c>Bi</c><c>    208.98000000</c><c>     15.00000000</c><c>  PAW_PBE Bi_d 06Sep2000                </c></rc>
    <rc><c>   1</c><c>Pt</c><c>    195.08000000</c><c>     10.00000000</c><c>  PAW_PBE Pt 04Feb2005                  </c></rc>
   </set>
  </array>
 </atominfo>
 <structure name="initialpos" >
  <crystal>
   <varray name="basis" >
    <v>       0.00000000       3.63945576       3.63945576 </v>
    <v>       3.63945576       0.00000000       3.63945576 </v>
    <v>       3.63945576       3.63945576       0.00000000 </v>
   </varray>
   <i name="volume">     96.41382906 </i>
   <varray name="rec_basis" >
    <v>      -0.13738318       0.13738318       0.13738318 </v>
    <v>       0.13738318      -0.13738318       0.13738318 </v>
    <v>       0.13738318       0.13738318      -0.13738318 </v>
   </varray>
  </crystal>
  <varray name="positions" >
   <v>       0.25000000       0.25000000       0.25000000 </v>
   <v>       0.75000000       0.75000000       0.75000000 </v>
   <v>       0.00000000       0.00000000       0.00000000 </v>
  </varray>
 </structure>
 <calculation>
  <scstep>
   <time name="dav">    1.73    1.83</time>
   <time name="total">    1.92    2.11</time>
   <energy>
    <i name="alphaZ">    178.20641651 </i>
    <i name="ewald">  -2943.34675878 </i>
    <i name="hartreedc">   -839.86999328 </i>
    <i name="XCdc">     66.52754716 </i>
    <i name="pawpsdc">   3147.30828992 </i>
    <i name="pawaedc">  -3070.62761383 </i>
    <i name="eentropy">     -0.00011006 </i>
    <i name="bandstr">    219.67716262 </i>
    <i name="atom">   3674.67342263 </i>
    <i name="e_fr_energy">    432.54836289 </i>
    <i name="e_wo_entrp">    432.54847296 </i>
    <i name="e_0_energy">    432.54841793 </i>
   </energy>
  </scstep>
  <scstep>
   <time name="dav">    1.80    1.83</time>
   <time name="total">    1.81    1.83</time>
   <energy>
    <i name="e_fr_energy">     43.53731987 </i>
    <i name="e_wo_entrp">     43.53756231 </i>
    <i name="e_0_energy">     43.53744109 </i>
   </energy>
  </scstep>
  <scstep>
   <time name="dav">    2.17    2.19</time>
   <time name="total">    2.17    2.20</time>
   <energy>
    <i name="e_fr_energy">    -18.07436136 </i>
    <i name="e_wo_entrp">    -18.07421151 </i>
    <i name="e_0_energy">    -18.07428644 </i>
   </energy>
  </scstep>
  <scstep>
   <time name="dav">    2.72    2.75</time>
   <time name="total">    2.72    2.75</time>
   <energy>
    <i name="e_fr_energy">    -22.30425652 </i>
    <i name="e_wo_entrp">    -22.30403984 </i>
    <i name="e_0_energy">    -22.30414818 </i>
   </energy>
  </scstep>
  <scstep>
   <time name="dav">    2.19    2.22</time>
   <time name="total">    2.65    2.69</time>
   <energy>
    <i name="e_fr_energy">    -22.43735448 </i>
    <i name="e_wo_entrp">    -22.43715732 </i>
    <i name="e_0_energy">    -22.43725590 </i>
   </energy>
  </scstep>
  <scstep>
   <time name="dav">    2.08    2.08</time>
   <time name="total">    2.70    2.82</time>
   <energy>
    <i name="e_fr_energy">    -21.28013883 </i>
    <i name="e_wo_entrp">    -21.27969071 </i>
    <i name="e_0_energy">    -21.27991477 </i>
   </energy>
  </scstep>
  <scstep>
   <time name="dav">    2.35    2.35</time>
   <time name="total">    2.89    2.93</time>
   <energy>
    <i name="e_fr_energy">    -21.17174950 </i>
    <i name="e_wo_entrp">    -21.17153554 </i>
    <i name="e_0_energy">    -21.17164252 </i>
   </energy>
  </scstep>
  <scstep>
   <time name="dav">    2.03    2.05</time>
   <time name="total">    2.57    2.62</time>
   <energy>
    <i name="e_fr_energy">    -21.11986846 </i>
    <i name="e_wo_entrp">    -21.11950684 </i>
    <i name="e_0_energy">    -21.11968765 </i>
   </energy>
  </scstep>
  <scstep>
   <time name="dav">    2.16    2.16</time>
   <time name="total">    2.72    2.74</time>
   <energy>
    <i name="e_fr_energy">    -21.12221162 </i>
    <i name="e_wo_entrp">    -21.12197150 </i>
    <i name="e_0_energy">    -21.12209156 </i>
   </energy>
  </scstep>
  <scstep>
   <time name="dav">    2.20    2.20</time>
   <time name="total">    2.74    2.78</time>
   <energy>
    <i name="e_fr_energy">    -21.10040885 </i>
    <i name="e_wo_entrp">    -21.10008796 </i>
    <i name="e_0_energy">    -21.10024841 </i>
   </energy>
  </scstep>
  <scstep>
   <time name="dav">    2.40    2.40</time>
   <time name="total">    2.95    2.99</time>
   <energy>
    <i name="e_fr_energy">    -21.09802114 </i>
    <i name="e_wo_entrp">    -21.09758438 </i>
    <i name="e_0_energy">    -21.09780276 </i>
   </energy>
  </scstep>
  <scstep>
   <time name="dav">    2.27    2.27</time>
   <time name="total">    2.82    2.85</time>
   <energy>
    <i name="e_fr_energy">    -21.09806281 </i>
    <i name="e_wo_entrp">    -21.09762236 </i>
    <i name="e_0_energy">    -21.09784258 </i>
   </energy>
  </scstep>
  <scstep>
   <time name="dav">    2.14    2.14</time>
   <time name="total">    2.70    2.73</time>
   <energy>
    <i name="e_fr_energy">    -21.09804133 </i>
    <i name="e_wo_entrp">    -21.09760880 </i>
    <i name="e_0_energy">    -21.09782506 </i>
   </energy>
  </scstep>
  <scstep>
   <time name="dav">    2.44    2.44</time>
   <time name="total">    2.99    3.01</time>
   <energy>
    <i name="e_fr_energy">    -21.09803325 </i>
    <i name="e_wo_entrp">    -21.09761297 </i>
    <i name="e_0_energy">    -21.09782311 </i>
   </energy>
  </scstep>
  <scstep>
   <time name="dav">    2.24    2.24</time>
   <time name="total">    2.79    2.81</time>
   <energy>
    <i name="e_fr_energy">    -21.09803248 </i>
    <i name="e_wo_entrp">    -21.09761030 </i>
    <i name="e_0_energy">    -21.09782139 </i>
   </energy>
  </scstep>
  <scstep>
   <time name="dav">    2.51    2.51</time>
   <time name="total">    3.05    3.09</time>
   <energy>
    <i name="e_fr_energy">    -21.09803219 </i>
    <i name="e_wo_entrp">    -21.09760854 </i>
    <i name="e_0_energy">    -21.09782036 </i>
   </energy>
  </scstep>
  <scstep>
   <time name="dav">    1.92    1.92</time>
   <time name="total">    2.09    2.11</time>
   <energy>
    <i name="alphaZ">    178.20641651 </i>
    <i name="ewald">  -2943.34675878 </i>
    <i name="hartreedc">   -814.72087786 </i>
    <i name="XCdc">     65.83013039 </i>
    <i name="pawpsdc">   3561.64904902 </i>
    <i name="pawaedc">  -3491.85577186 </i>
    <i name="eentropy">     -0.00042425 </i>
    <i name="bandstr">   -251.53321802 </i>
    <i name="atom">   3674.67342263 </i>
    <i name="e_fr_energy">    -21.09803220 </i>
    <i name="e_wo_entrp">    -21.09760795 </i>
    <i name="e_0_energy">    -21.09782008 </i>
   </energy>
  </scstep>
  <structure>
   <crystal>
    <varray name="basis" >
     <v>       0.00000000       3.63945576       3.63945576 </v>
     <v>       3.63945576       0.00000000       3.63945576 </v>
     <v>       3.63945576       3.63945576       0.00000000 </v>
    </varray>
    <i name="volume">     96.41382906 </i>
    <varray name="rec_basis" >
     <v>      -0.13738318       0.13738318       0.13738318 </v>
     <v>       0.13738318      -0.13738318       0.13738318 </v>
     <v>       0.13738318       0.13738318      -0.13738318 </v>
    </varray>
   </crystal>
   <varray name="positions" >
    <v>       0.25000000       0.25000000       0.25000000 </v>
    <v>       0.75000000       0.75000000       0.75000000 </v>
    <v>       0.00000000       0.00000000       0.00000000 </v>
   </varray>
  </structure>
  <varray name="forces" >
   <v>      -0.00000000       0.00000000      -0.00000000 </v>
   <v>      -0.00000000       0.00000000      -0.00000000 </v>
   <v>       0.00000000      -0.00000000       0.00000000 </v>
  </varray>
  <varray name="stress" >
   <v>    -126.44054181       0.00000000      -0.00000000 </v>
   <v>       0.00000000    -126.44054181      -0.00000000 </v>
   <v>      -0.00000000       0.00000000    -126.44054181 </v>
  </varray>
  <energy>
   <i name="e_fr_energy">    -21.09803220 </i>
   <i name="e_wo_entrp">    -21.09782008 </i>
   <i name="e_0_energy">     -0.00042425 </i>
  </energy>
  <time name="totalsc">   48.99   50.30</time>
  <eigenvalues>
   <array>
    <dimension dim="1">band</dimension>
    <dimension dim="2">kpoint</dimension>
    <dimension dim="3">spin</dimension>
    <field>eigene</field>
    <field>occ</field>
    <set>
     <set comment="spin 1">
      <set comment="kpoint 1">
       <r>  -34.1526    1.0000 </r>
       <r>  -16.2530    1.0000 </r>
       <r>  -16.2530    1.0000 </r>
       <r>  -16.2307    1.0000 </r>
       <r>  -16.2307    1.0000 </r>
       <r>  -16.2307    1.0000 </r>
       <r>  -11.9289    1.0000 </r>
       <r>  -11.9289    1.0000 </r>
       <r>  -11.9289    1.0000 </r>
       <r>   -4.9091    1.0000 </r>
       <r>    2.8654    1.0000 </r>
       <r>    2.8654    1.0000 </r>
       <r>    2.8654    1.0000 </r>
       <r>    3.1822    1.0000 </r>
       <r>    3.1822    1.0000 </r>
       <r>    4.0473    1.0000 </r>
       <r>    5.6582    1.0000 </r>
       <r>    5.6582    1.0000 </r>
       <r>    5.6582    1.0000 </r>
       <r>    6.7496    0.0000 </r>
       <r>    6.7496    0.0000 </r>
       <r>    6.7496    0.0000 </r>
       <r>    7.3451    0.0000 </r>
       <r>    7.9531    0.0000 </r>
      </set>
      <set comment="kpoint 2">
       <r>  -34.1525    1.0000 </r>
       <r>  -16.2533    1.0000 </r>
       <r>  -16.2533    1.0000 </r>
       <r>  -16.2307    1.0000 </r>
       <r>  -16.2306    1.0000 </r>
       <r>  -16.2306    1.0000 </r>
       <r>  -11.9350    1.0000 </r>
       <r>  -11.9284    1.0000 </r>
       <r>  -11.9284    1.0000 </r>
       <r>   -4.8750    1.0000 </r>
       <r>    2.7067    1.0000 </r>
       <r>    2.8077    1.0000 </r>
       <r>    2.8077    1.0000 </r>
       <r>    3.2369    1.0000 </r>
       <r>    3.2369    1.0000 </r>
       <r>    4.0391    1.0000 </r>
       <r>    5.5832    1.0000 </r>
       <r>    5.5832    1.0000 </r>
       <r>    5.6463    1.0000 </r>
       <r>    6.8106    0.0000 </r>
       <r>    6.8274    0.0000 </r>
       <r>    6.8274    0.0000 </r>
       <r>    7.4923    0.0000 </r>
       <r>    7.9589    0.0000 </r>
      </set>
      <set comment="kpoint 3">
       <r>  -34.1523    1.0000 </r>
       <r>  -16.2540    1.0000 </r>
       <r>  -16.2540    1.0000 </r>
       <r>  -16.2309    1.0000 </r>
       <r>  -16.2304    1.0000 </r>
       <r>  -16.2304    1.0000 </r>
       <r>  -11.9515    1.0000 </r>
       <r>  -11.9268    1.0000 </r>
       <r>  -11.9268    1.0000 </r>
       <r>   -4.7800    1.0000 </r>
       <r>    2.3586    1.0000 </r>
       <r>    2.7072    1.0000 </r>
       <r>    2.7072    1.0000 </r>
       <r>    3.3222    1.0000 </r>
       <r>    3.3222    1.0000 </r>
       <r>    3.9257    1.0000 </r>
       <r>    5.4222    1.0000 </r>
       <r>    5.4222    1.0000 </r>
       <r>    5.6590    1.0000 </r>
       <r>    7.0083    0.0000 </r>
       <r>    7.0083    0.0000 </r>
       <r>    7.0747    0.0000 </r>
       <r>    7.7354    0.0000 </r>
       <r>    7.9879    0.0000 </r>
      </set>
      <set comment="kpoint 4">
       <r>  -34.1519    1.0000 </r>
       <r>  -16.2551    1.0000 </r>
       <r>  -16.2551    1.0000 </r>
       <r>  -16.2310    1.0000 </r>
       <r>  -16.2302    1.0000 </r>
       <r>  -16.2302    1.0000 </r>
       <r>  -11.9742    1.0000 </r>
       <r>  -11.9246    1.0000 </r>
       <r>  -11.9246    1.0000 </r>
       <r>   -4.6445    1.0000 </r>
       <r>    1.9802    1.0000 </r>
       <r>    2.6236    1.0000 </r>
       <r>    2.6236    1.0000 </r>
       <r>    3.3657    1.0000 </r>
       <r>    3.3657    1.0000 </r>
       <r>    3.7115    1.0000 </r>
       <r>    5.2675    1.0000 </r>
       <r>    5.2675    1.0000 </r>
       <r>    5.7307    1.0000 </r>
       <r>    7.2194    0.0000 </r>
       <r>    7.2194    0.0000 </r>
       <r>    7.4778    0.0000 </r>
       <r>    7.9083    0.0000 </r>
       <r>    7.9968    0.0000 </r>
      </set>
      <set comment="kpoint 5">
       <r>  -34.1515    1.0000 </r>
       <r>  -16.2562    1.0000 </r>
       <r>  -16.2562    1.0000 </r>
       <r>  -16.2312    1.0000 </r>
       <r>  -16.2299    1.0000 </r>
       <r>  -16.2299    1.0000 </r>
       <r>  -11.9976    1.0000 </r>
       <r>  -11.9223    1.0000 </r>
       <r>  -11.9223    1.0000 </r>
       <r>   -4.4984    1.0000 </r>
       <r>    1.6505    1.0000 </r>
       <r>    2.5733    1.0000 </r>
       <r>    2.5733    1.0000 </r>
       <r>    3.3490    1.0000 </r>
       <r>    3.3490    1.0000 </r>
       <r>    3.5002    1.0000 </r>
       <r>    5.1644    1.0000 </r>
       <r>    5.1644    1.0000 </r>
       <r>    5.8479    1.0000 </r>
       <r>    7.4106    0.0000 </r>
       <r>    7.4106    0.0000 </r>
       <r>    7.8319    0.0000 </r>
       <r>    7.9644    0.0000 </r>
       <r>    7.9648    0.0000 </r>
      </set>
      <set comment="kpoint 6">
       <r>  -34.1512    1.0000 </r>
       <r>  -16.2571    1.0000 </r>
       <r>  -16.2571    1.0000 </r>
       <r>  -16.2314    1.0000 </r>
       <r>  -16.2296    1.0000 </r>
       <r>  -16.2296    1.0000 </r>
       <r>  -12.0164    1.0000 </r>
       <r>  -11.9203    1.0000 </r>
       <r>  -11.9203    1.0000 </r>
       <r>   -4.3756    1.0000 </r>
       <r>    1.4107    1.0000 </r>
       <r>    2.5545    1.0000 </r>
       <r>    2.5545    1.0000 </r>
       <r>    3.2948    1.0000 </r>
       <r>    3.2948    1.0000 </r>
       <r>    3.3509    1.0000 </r>
       <r>    5.1138    1.0000 </r>
       <r>    5.1138    1.0000 </r>
       <r>    5.9901    1.0000 </r>
       <r>    7.5459    0.0000 </r>
       <r>    7.5459    0.0000 </r>
       <r>    7.9294    0.0000 </r>
       <r>    7.9295    0.0000 </r>
       <r>    7.9679    0.0000 </r>
      </set>
      <set comment="kpoint 7">
       <r>  -34.1510    1.0000 </r>
       <r>  -16.2577    1.0000 </r>
       <r>  -16.2577    1.0000 </r>
       <r>  -16.2316    1.0000 </r>
       <r>  -16.2295    1.0000 </r>
       <r>  -16.2295    1.0000 </r>
       <r>  -12.0268    1.0000 </r>
       <r>  -11.9192    1.0000 </r>
       <r>  -11.9192    1.0000 </r>
       <r>   -4.3055    1.0000 </r>
       <r>    1.2848    1.0000 </r>
       <r>    2.5532    1.0000 </r>
       <r>    2.5532    1.0000 </r>
       <r>    3.2489    1.0000 </r>
       <r>    3.2489    1.0000 </r>
       <r>    3.2774    1.0000 </r>
       <r>    5.0962    1.0000 </r>
       <r>    5.0962    1.0000 </r>
       <r>    6.1043    1.0000 </r>
       <r>    7.6138    0.0000 </r>
       <r>    7.6138    0.0000 </r>
       <r>    7.9076    0.0000 </r>
       <r>    7.9077    0.0000 </r>
       <r>    7.9403    0.0000 </r>
      </set>
      <set comment="kpoint 8">
       <r>  -34.1525    1.0000 </r>
       <r>  -16.2538    1.0000 </r>
       <r>  -16.2529    1.0000 </r>
       <r>  -16.2308    1.0000 </r>
       <r>  -16.2306    1.0000 </r>
       <r>  -16.2306    1.0000 </r>
       <r>  -11.9334    1.0000 </r>
       <r>  -11.9300    1.0000 </r>
       <r>  -11.9300    1.0000 </r>
       <r>   -4.8646    1.0000 </r>
       <r>    2.5496    1.0000 </r>
       <r>    2.8794    1.0000 </r>
       <r>    2.8794    1.0000 </r>
       <r>    3.1966    1.0000 </r>
       <r>    3.2460    1.0000 </r>
       <r>    4.0500    1.0000 </r>
       <r>    5.4849    1.0000 </r>
       <r>    5.4849    1.0000 </r>
       <r>    5.8216    1.0000 </r>
       <r>    6.5954    0.0000 </r>
       <r>    6.9526    0.0000 </r>
       <r>    6.9526    0.0000 </r>
       <r>    7.5180    0.0000 </r>
       <r>    7.9530    0.0000 </r>
      </set>
      <set comment="kpoint 9">
       <r>  -34.1523    1.0000 </r>
       <r>  -16.2546    1.0000 </r>
       <r>  -16.2531    1.0000 </r>
       <r>  -16.2309    1.0000 </r>
       <r>  -16.2304    1.0000 </r>
       <r>  -16.2304    1.0000 </r>
       <r>  -11.9457    1.0000 </r>
       <r>  -11.9304    1.0000 </r>
       <r>  -11.9280    1.0000 </r>
       <r>   -4.7925    1.0000 </r>
       <r>    2.2799    1.0000 </r>
       <r>    2.7942    1.0000 </r>
       <r>    2.8422    1.0000 </r>
       <r>    3.2508    1.0000 </r>
       <r>    3.3064    1.0000 </r>
       <r>    3.9936    1.0000 </r>
       <r>    5.3021    1.0000 </r>
       <r>    5.3311    1.0000 </r>
       <r>    5.9506    1.0000 </r>
       <r>    6.6070    0.0000 </r>
       <r>    7.1346    0.0000 </r>
       <r>    7.1614    0.0000 </r>
       <r>    7.7006    0.0000 </r>
       <r>    7.9526    0.0000 </r>
      </set>
      <set comment="kpoint 10">
       <r>  -34.1520    1.0000 </r>
       <r>  -16.2556    1.0000 </r>
       <r>  -16.2538    1.0000 </r>
       <r>  -16.2311    1.0000 </r>
       <r>  -16.2302    1.0000 </r>
       <r>  -16.2301    1.0000 </r>
       <r>  -11.9662    1.0000 </r>
       <r>  -11.9294    1.0000 </r>
       <r>  -11.9252    1.0000 </r>
       <r>   -4.6745    1.0000 </r>
       <r>    1.9842    1.0000 </r>
       <r>    2.6491    1.0000 </r>
       <r>    2.7690    1.0000 </r>
       <r>    3.3063    1.0000 </r>
       <r>    3.3758    1.0000 </r>
       <r>    3.8178    1.0000 </r>
       <r>    5.1216    1.0000 </r>
       <r>    5.1955    1.0000 </r>
       <r>    6.0124    1.0000 </r>
       <r>    6.8664    0.0000 </r>
       <r>    7.3154    0.0000 </r>
       <r>    7.4385    0.0000 </r>
       <r>    7.8718    0.0000 </r>
       <r>    7.9552    0.0000 </r>
      </set>
      <set comment="kpoint 11">
       <r>  -34.1516    1.0000 </r>
       <r>  -16.2566    1.0000 </r>
       <r>  -16.2548    1.0000 </r>
       <r>  -16.2312    1.0000 </r>
       <r>  -16.2300    1.0000 </r>
       <r>  -16.2298    1.0000 </r>
       <r>  -11.9891    1.0000 </r>
       <r>  -11.9274    1.0000 </r>
       <r>  -11.9231    1.0000 </r>
       <r>   -4.5372    1.0000 </r>
       <r>    1.7063    1.0000 </r>
       <r>    2.5481    1.0000 </r>
       <r>    2.7054    1.0000 </r>
       <r>    3.3086    1.0000 </r>
       <r>    3.3922    1.0000 </r>
       <r>    3.5996    1.0000 </r>
       <r>    5.0134    1.0000 </r>
       <r>    5.1119    1.0000 </r>
       <r>    6.0376    1.0000 </r>
       <r>    7.2081    0.0000 </r>
       <r>    7.4681    0.0000 </r>
       <r>    7.7324    0.0000 </r>
       <r>    7.9495    0.0000 </r>
       <r>    7.9596    0.0000 </r>
      </set>
      <set comment="kpoint 12">
       <r>  -34.1513    1.0000 </r>
       <r>  -16.2572    1.0000 </r>
       <r>  -16.2560    1.0000 </r>
       <r>  -16.2314    1.0000 </r>
       <r>  -16.2298    1.0000 </r>
       <r>  -16.2296    1.0000 </r>
       <r>  -12.0090    1.0000 </r>
       <r>  -11.9247    1.0000 </r>
       <r>  -11.9221    1.0000 </r>
       <r>   -4.4118    1.0000 </r>
       <r>    1.4865    1.0000 </r>
       <r>    2.5072    1.0000 </r>
       <r>    2.6545    1.0000 </r>
       <r>    3.2740    1.0000 </r>
       <r>    3.3502    1.0000 </r>
       <r>    3.4251    1.0000 </r>
       <r>    4.9652    1.0000 </r>
       <r>    5.0757    1.0000 </r>
       <r>    6.1014    1.0000 </r>
       <r>    7.4520    0.0000 </r>
       <r>    7.5758    0.0000 </r>
       <r>    7.8880    0.0000 </r>
       <r>    7.9314    0.0000 </r>
       <r>    7.9920    0.0000 </r>
      </set>
      <set comment="kpoint 13">
       <r>  -34.1510    1.0000 </r>
       <r>  -16.2575    1.0000 </r>
       <r>  -16.2570    1.0000 </r>
       <r>  -16.2315    1.0000 </r>
       <r>  -16.2296    1.0000 </r>
       <r>  -16.2294    1.0000 </r>
       <r>  -12.0219    1.0000 </r>
       <r>  -11.9224    1.0000 </r>
       <r>  -11.9220    1.0000 </r>
       <r>   -4.3277    1.0000 </r>
       <r>    1.3515    1.0000 </r>
       <r>    2.5187    1.0000 </r>
       <r>    2.6036    1.0000 </r>
       <r>    3.2516    1.0000 </r>
       <r>    3.2865    1.0000 </r>
       <r>    3.3209    1.0000 </r>
       <r>    4.9490    1.0000 </r>
       <r>    5.0655    1.0000 </r>
       <r>    6.1928    1.0000 </r>
       <r>    7.5633    0.0000 </r>
       <r>    7.6333    0.0000 </r>
       <r>    7.8866    0.0000 </r>
       <r>    7.9062    0.0000 </r>
       <r>    7.9801    0.0000 </r>
      </set>
      <set comment="kpoint 14">
       <r>  -34.1510    1.0000 </r>
       <r>  -16.2576    1.0000 </r>
       <r>  -16.2572    1.0000 </r>
       <r>  -16.2315    1.0000 </r>
       <r>  -16.2295    1.0000 </r>
       <r>  -16.2294    1.0000 </r>
       <r>  -12.0253    1.0000 </r>
       <r>  -11.9239    1.0000 </r>
       <r>  -11.9198    1.0000 </r>
       <r>   -4.3047    1.0000 </r>
       <r>    1.3162    1.0000 </r>
       <r>    2.5466    1.0000 </r>
       <r>    2.5647    1.0000 </r>
       <r>    3.2472    1.0000 </r>
       <r>    3.2754    1.0000 </r>
       <r>    3.2851    1.0000 </r>
       <r>    4.9389    1.0000 </r>
       <r>    5.0683    1.0000 </r>
       <r>    6.2337    1.0000 </r>
       <r>    7.5897    0.0000 </r>
       <r>    7.6336    0.0000 </r>
       <r>    7.8917    0.0000 </r>
       <r>    7.8937    0.0000 </r>
       <r>    7.9628    0.0000 </r>
      </set>
      <set comment="kpoint 15">
       <r>  -34.1511    1.0000 </r>
       <r>  -16.2577    1.0000 </r>
       <r>  -16.2565    1.0000 </r>
       <r>  -16.2314    1.0000 </r>
       <r>  -16.2296    1.0000 </r>
       <r>  -16.2295    1.0000 </r>
       <r>  -12.0185    1.0000 </r>
       <r>  -11.9262    1.0000 </r>
       <r>  -11.9188    1.0000 </r>
       <r>   -4.3483    1.0000 </r>
       <r>    1.3853    1.0000 </r>
       <r>    2.4977    1.0000 </r>
       <r>    2.6251    1.0000 </r>
       <r>    3.2384    1.0000 </r>
       <r>    3.3376    1.0000 </r>
       <r>    3.3377    1.0000 </r>
       <r>    4.9205    1.0000 </r>
       <r>    5.0889    1.0000 </r>
       <r>    6.1788    1.0000 </r>
       <r>    7.5633    0.0000 </r>
       <r>    7.5890    0.0000 </r>
       <r>    7.9017    0.0000 </r>
       <r>    7.9029    0.0000 </r>
       <r>    7.9808    0.0000 </r>
      </set>
      <set comment="kpoint 16">
       <r>  -34.1514    1.0000 </r>
       <r>  -16.2572    1.0000 </r>
       <r>  -16.2556    1.0000 </r>
       <r>  -16.2313    1.0000 </r>
       <r>  -16.2298    1.0000 </r>
       <r>  -16.2297    1.0000 </r>
       <r>  -12.0028    1.0000 </r>
       <r>  -11.9288    1.0000 </r>
       <r>  -11.9191    1.0000 </r>
       <r>   -4.4484    1.0000 </r>
       <r>    1.5545    1.0000 </r>
       <r>    2.4784    1.0000 </r>
       <r>    2.6907    1.0000 </r>
       <r>    3.2658    1.0000 </r>
       <r>    3.4028    1.0000 </r>
       <r>    3.4674    1.0000 </r>
       <r>    4.8991    1.0000 </r>
       <r>    5.1451    1.0000 </r>
       <r>    6.0949    1.0000 </r>
       <r>    7.4172    0.0000 </r>
       <r>    7.5145    0.0000 </r>
       <r>    7.8756    0.0000 </r>
       <r>    7.9260    0.0000 </r>
       <r>    7.9970    0.0000 </r>
      </set>
      <set comment="kpoint 17">
       <r>  -34.1517    1.0000 </r>
       <r>  -16.2563    1.0000 </r>
       <r>  -16.2545    1.0000 </r>
       <r>  -16.2311    1.0000 </r>
       <r>  -16.2301    1.0000 </r>
       <r>  -16.2300    1.0000 </r>
       <r>  -11.9816    1.0000 </r>
       <r>  -11.9310    1.0000 </r>
       <r>  -11.9206    1.0000 </r>
       <r>   -4.5812    1.0000 </r>
       <r>    1.8102    1.0000 </r>
       <r>    2.5025    1.0000 </r>
       <r>    2.7659    1.0000 </r>
       <r>    3.2873    1.0000 </r>
       <r>    3.4316    1.0000 </r>
       <r>    3.6638    1.0000 </r>
       <r>    4.9102    1.0000 </r>
       <r>    5.2548    1.0000 </r>
       <r>    6.0348    1.0000 </r>
       <r>    7.2112    0.0000 </r>
       <r>    7.3084    0.0000 </r>
       <r>    7.6604    0.0000 </r>
       <r>    7.9451    0.0000 </r>
       <r>    7.9470    0.0000 </r>
      </set>
      <set comment="kpoint 18">
       <r>  -34.1521    1.0000 </r>
       <r>  -16.2552    1.0000 </r>
       <r>  -16.2537    1.0000 </r>
       <r>  -16.2309    1.0000 </r>
       <r>  -16.2304    1.0000 </r>
       <r>  -16.2302    1.0000 </r>
       <r>  -11.9595    1.0000 </r>
       <r>  -11.9321    1.0000 </r>
       <r>  -11.9231    1.0000 </r>
       <r>   -4.7157    1.0000 </r>
       <r>    2.1259    1.0000 </r>
       <r>    2.5735    1.0000 </r>
       <r>    2.8499    1.0000 </r>
       <r>    3.2616    1.0000 </r>
       <r>    3.4039    1.0000 </r>
       <r>    3.8737    1.0000 </r>
       <r>    5.0202    1.0000 </r>
       <r>    5.4092    1.0000 </r>
       <r>    5.9713    1.0000 </r>
       <r>    6.9812    0.0000 </r>
       <r>    6.9953    0.0000 </r>
       <r>    7.4156    0.0000 </r>
       <r>    7.8246    0.0000 </r>
       <r>    7.9554    0.0000 </r>
      </set>
      <set comment="kpoint 19">
       <r>  -34.1524    1.0000 </r>
       <r>  -16.2541    1.0000 </r>
       <r>  -16.2533    1.0000 </r>
       <r>  -16.2308    1.0000 </r>
       <r>  -16.2306    1.0000 </r>
       <r>  -16.2305    1.0000 </r>
       <r>  -11.9425    1.0000 </r>
       <r>  -11.9312    1.0000 </r>
       <r>  -11.9259    1.0000 </r>
       <r>   -4.8215    1.0000 </r>
       <r>    2.4554    1.0000 </r>
       <r>    2.6837    1.0000 </r>
       <r>    2.8912    1.0000 </r>
       <r>    3.2191    1.0000 </r>
       <r>    3.3281    1.0000 </r>
       <r>    4.0044    1.0000 </r>
       <r>    5.2777    1.0000 </r>
       <r>    5.5499    1.0000 </r>
       <r>    5.8187    1.0000 </r>
       <r>    6.7854    0.0000 </r>
       <r>    6.8417    0.0000 </r>
       <r>    7.1449    0.0000 </r>
       <r>    7.6420    0.0000 </r>
       <r>    7.9648    0.0000 </r>
      </set>
      <set comment="kpoint 20">
       <r>  -34.1522    1.0000 </r>
       <r>  -16.2553    1.0000 </r>
       <r>  -16.2526    1.0000 </r>
       <r>  -16.2311    1.0000 </r>
       <r>  -16.2302    1.0000 </r>
       <r>  -16.2302    1.0000 </r>
       <r>  -11.9459    1.0000 </r>
       <r>  -11.9330    1.0000 </r>
       <r>  -11.9330    1.0000 </r>
       <r>   -4.7505    1.0000 </r>
       <r>    2.0493    1.0000 </r>
       <r>    2.9127    1.0000 </r>
       <r>    2.9127    1.0000 </r>
       <r>    3.2371    1.0000 </r>
       <r>    3.2378    1.0000 </r>
       <r>    4.0173    1.0000 </r>
       <r>    5.1986    1.0000 </r>
       <r>    5.1986    1.0000 </r>
       <r>    6.0916    1.0000 </r>
       <r>    6.4447    0.9813 </r>
       <r>    7.2943    0.0000 </r>
       <r>    7.2943    0.0000 </r>
       <r>    7.7660    0.0000 </r>
       <r>    7.9463    0.0000 </r>
      </set>
      <set comment="kpoint 21">
       <r>  -34.1519    1.0000 </r>
       <r>  -16.2561    1.0000 </r>
       <r>  -16.2528    1.0000 </r>
       <r>  -16.2313    1.0000 </r>
       <r>  -16.2300    1.0000 </r>
       <r>  -16.2300    1.0000 </r>
       <r>  -11.9605    1.0000 </r>
       <r>  -11.9340    1.0000 </r>
       <r>  -11.9318    1.0000 </r>
       <r>   -4.6644    1.0000 </r>
       <r>    1.8340    1.0000 </r>
       <r>    2.8229    1.0000 </r>
       <r>    2.8928    1.0000 </r>
       <r>    3.2778    1.0000 </r>
       <r>    3.2799    1.0000 </r>
       <r>    3.9277    1.0000 </r>
       <r>    5.0024    1.0000 </r>
       <r>    5.0861    1.0000 </r>
       <r>    6.2873    1.0000 </r>
       <r>    6.4877    0.0000 </r>
       <r>    7.4356    0.0000 </r>
       <r>    7.4723    0.0000 </r>
       <r>    7.8787    0.0000 </r>
       <r>    7.9419    0.0000 </r>
      </set>
      <set comment="kpoint 22">
       <r>  -34.1516    1.0000 </r>
       <r>  -16.2566    1.0000 </r>
       <r>  -16.2535    1.0000 </r>
       <r>  -16.2314    1.0000 </r>
       <r>  -16.2298    1.0000 </r>
       <r>  -16.2297    1.0000 </r>
       <r>  -11.9805    1.0000 </r>
       <r>  -11.9332    1.0000 </r>
       <r>  -11.9300    1.0000 </r>
       <r>   -4.5545    1.0000 </r>
       <r>    1.6655    1.0000 </r>
       <r>    2.6666    1.0000 </r>
       <r>    2.8389    1.0000 </r>
       <r>    3.2964    1.0000 </r>
       <r>    3.3445    1.0000 </r>
       <r>    3.7478    1.0000 </r>
       <r>    4.8046    1.0000 </r>
       <r>    5.0234    1.0000 </r>
       <r>    6.3190    1.0000 </r>
       <r>    6.8870    0.0000 </r>
       <r>    7.5459    0.0000 </r>
       <r>    7.6687    0.0000 </r>
       <r>    7.9349    0.0000 </r>
       <r>    7.9629    0.0000 </r>
      </set>
      <set comment="kpoint 23">
       <r>  -34.1512    1.0000 </r>
       <r>  -16.2568    1.0000 </r>
       <r>  -16.2545    1.0000 </r>
       <r>  -16.2314    1.0000 </r>
       <r>  -16.2297    1.0000 </r>
       <r>  -16.2294    1.0000 </r>
       <r>  -11.9992    1.0000 </r>
       <r>  -11.9309    1.0000 </r>
       <r>  -11.9300    1.0000 </r>
       <r>   -4.4464    1.0000 </r>
       <r>    1.5500    1.0000 </r>
       <r>    2.5539    1.0000 </r>
       <r>    2.7717    1.0000 </r>
       <r>    3.2845    1.0000 </r>
       <r>    3.3558    1.0000 </r>
       <r>    3.5550    1.0000 </r>
       <r>    4.6970    1.0000 </r>
       <r>    5.0021    1.0000 </r>
       <r>    6.3085    1.0000 </r>
       <r>    7.3126    0.0000 </r>
       <r>    7.6250    0.0000 </r>
       <r>    7.8252    0.0000 </r>
       <r>    7.9208    0.0000 </r>
       <r>    7.9853    0.0000 </r>
      </set>
      <set comment="kpoint 24">
       <r>  -34.1510    1.0000 </r>
       <r>  -16.2567    1.0000 </r>
       <r>  -16.2558    1.0000 </r>
       <r>  -16.2314    1.0000 </r>
       <r>  -16.2297    1.0000 </r>
       <r>  -16.2292    1.0000 </r>
       <r>  -12.0125    1.0000 </r>
       <r>  -11.9319    1.0000 </r>
       <r>  -11.9274    1.0000 </r>
       <r>   -4.3642    1.0000 </r>
       <r>    1.4805    1.0000 </r>
       <r>    2.5135    1.0000 </r>
       <r>    2.6849    1.0000 </r>
       <r>    3.2850    1.0000 </r>
       <r>    3.3113    1.0000 </r>
       <r>    3.4216    1.0000 </r>
       <r>    4.6543    1.0000 </r>
       <r>    4.9972    1.0000 </r>
       <r>    6.3540    1.0000 </r>
       <r>    7.4976    0.0000 </r>
       <r>    7.6743    0.0000 </r>
       <r>    7.8596    0.0000 </r>
       <r>    7.8987    0.0000 </r>
       <r>    8.0058    0.0000 </r>
      </set>
      <set comment="kpoint 25">
       <r>  -34.1509    1.0000 </r>
       <r>  -16.2568    1.0000 </r>
       <r>  -16.2562    1.0000 </r>
       <r>  -16.2313    1.0000 </r>
       <r>  -16.2297    1.0000 </r>
       <r>  -16.2292    1.0000 </r>
       <r>  -12.0178    1.0000 </r>
       <r>  -11.9352    1.0000 </r>
       <r>  -11.9236    1.0000 </r>
       <r>   -4.3256    1.0000 </r>
       <r>    1.4492    1.0000 </r>
       <r>    2.5450    1.0000 </r>
       <r>    2.5844    1.0000 </r>
       <r>    3.2581    1.0000 </r>
       <r>    3.3244    1.0000 </r>
       <r>    3.3615    1.0000 </r>
       <r>    4.6304    1.0000 </r>
       <r>    4.9973    1.0000 </r>
       <r>    6.4240    1.0000 </r>
       <r>    7.5051    0.0000 </r>
       <r>    7.6846    0.0000 </r>
       <r>    7.8780    0.0000 </r>
       <r>    7.8859    0.0000 </r>
       <r>    7.9876    0.0000 </r>
      </set>
      <set comment="kpoint 26">
       <r>  -34.1509    1.0000 </r>
       <r>  -16.2575    1.0000 </r>
       <r>  -16.2556    1.0000 </r>
       <r>  -16.2312    1.0000 </r>
       <r>  -16.2297    1.0000 </r>
       <r>  -16.2293    1.0000 </r>
       <r>  -12.0143    1.0000 </r>
       <r>  -11.9388    1.0000 </r>
       <r>  -11.9205    1.0000 </r>
       <r>   -4.3388    1.0000 </r>
       <r>    1.4582    1.0000 </r>
       <r>    2.4939    1.0000 </r>
       <r>    2.6312    1.0000 </r>
       <r>    3.2280    1.0000 </r>
       <r>    3.3816    1.0000 </r>
       <r>    3.3919    1.0000 </r>
       <r>    4.5913    1.0000 </r>
       <r>    5.0118    1.0000 </r>
       <r>    6.4474    0.9554 </r>
       <r>    7.5251    0.0000 </r>
       <r>    7.6296    0.0000 </r>
       <r>    7.8761    0.0000 </r>
       <r>    7.8986    0.0000 </r>
       <r>    7.9947    0.0000 </r>
      </set>
      <set comment="kpoint 27">
       <r>  -34.1511    1.0000 </r>
       <r>  -16.2577    1.0000 </r>
       <r>  -16.2548    1.0000 </r>
       <r>  -16.2311    1.0000 </r>
       <r>  -16.2298    1.0000 </r>
       <r>  -16.2296    1.0000 </r>
       <r>  -12.0032    1.0000 </r>
       <r>  -11.9415    1.0000 </r>
       <r>  -11.9186    1.0000 </r>
       <r>   -4.4016    1.0000 </r>
       <r>    1.5211    1.0000 </r>
       <r>    2.4372    1.0000 </r>
       <r>    2.7468    1.0000 </r>
       <r>    3.2195    1.0000 </r>
       <r>    3.4559    1.0000 </r>
       <r>    3.4905    1.0000 </r>
       <r>    4.5341    1.0000 </r>
       <r>    5.0618    1.0000 </r>
       <r>    6.4316    1.0000 </r>
       <r>    7.4977    0.0000 </r>
       <r>    7.5208    0.0000 </r>
       <r>    7.8868    0.0000 </r>
       <r>    7.8917    0.0000 </r>
       <r>    8.0144    0.0000 </r>
      </set>
      <set comment="kpoint 28">
       <r>  -34.1515    1.0000 </r>
       <r>  -16.2572    1.0000 </r>
       <r>  -16.2542    1.0000 </r>
       <r>  -16.2311    1.0000 </r>
       <r>  -16.2299    1.0000 </r>
       <r>  -16.2299    1.0000 </r>
       <r>  -11.9873    1.0000 </r>
       <r>  -11.9419    1.0000 </r>
       <r>  -11.9184    1.0000 </r>
       <r>   -4.5011    1.0000 </r>
       <r>    1.6539    1.0000 </r>
       <r>    2.4292    1.0000 </r>
       <r>    2.8595    1.0000 </r>
       <r>    3.2227    1.0000 </r>
       <r>    3.4852    1.0000 </r>
       <r>    3.6578    1.0000 </r>
       <r>    4.5130    1.0000 </r>
       <r>    5.1624    1.0000 </r>
       <r>    6.4106    1.0000 </r>
       <r>    7.3084    0.0000 </r>
       <r>    7.3575    0.0000 </r>
       <r>    7.7960    0.0000 </r>
       <r>    7.9133    0.0000 </r>
       <r>    7.9929    0.0000 </r>
      </set>
      <set comment="kpoint 29">
       <r>  -34.1518    1.0000 </r>
       <r>  -16.2564    1.0000 </r>
       <r>  -16.2538    1.0000 </r>
       <r>  -16.2310    1.0000 </r>
       <r>  -16.2302    1.0000 </r>
       <r>  -16.2301    1.0000 </r>
       <r>  -11.9713    1.0000 </r>
       <r>  -11.9387    1.0000 </r>
       <r>  -11.9200    1.0000 </r>
       <r>   -4.6148    1.0000 </r>
       <r>    1.8620    1.0000 </r>
       <r>    2.4759    1.0000 </r>
       <r>    2.9207    1.0000 </r>
       <r>    3.2219    1.0000 </r>
       <r>    3.4652    1.0000 </r>
       <r>    3.8022    1.0000 </r>
       <r>    4.6559    1.0000 </r>
       <r>    5.2982    1.0000 </r>
       <r>    6.3024    1.0000 </r>
       <r>    7.0791    0.0000 </r>
       <r>    7.1156    0.0000 </r>
       <r>    7.6447    0.0000 </r>
       <r>    7.9184    0.0000 </r>
       <r>    7.9352    0.0000 </r>
      </set>
      <set comment="kpoint 30">
       <r>  -34.1517    1.0000 </r>
       <r>  -16.2563    1.0000 </r>
       <r>  -16.2523    1.0000 </r>
       <r>  -16.2316    1.0000 </r>
       <r>  -16.2297    1.0000 </r>
       <r>  -16.2297    1.0000 </r>
       <r>  -11.9636    1.0000 </r>
       <r>  -11.9373    1.0000 </r>
       <r>  -11.9373    1.0000 </r>
       <r>   -4.6178    1.0000 </r>
       <r>    1.6896    1.0000 </r>
       <r>    2.9430    1.0000 </r>
       <r>    2.9430    1.0000 </r>
       <r>    3.1542    1.0000 </r>
       <r>    3.2962    1.0000 </r>
       <r>    3.9301    1.0000 </r>
       <r>    4.9940    1.0000 </r>
       <r>    4.9940    1.0000 </r>
       <r>    6.1329    1.0000 </r>
       <r>    6.5991    0.0000 </r>
       <r>    7.5366    0.0000 </r>
       <r>    7.5366    0.0000 </r>
       <r>    7.9179    0.0000 </r>
       <r>    7.9330    0.0000 </r>
      </set>
      <set comment="kpoint 31">
       <r>  -34.1514    1.0000 </r>
       <r>  -16.2562    1.0000 </r>
       <r>  -16.2524    1.0000 </r>
       <r>  -16.2318    1.0000 </r>
       <r>  -16.2295    1.0000 </r>
       <r>  -16.2294    1.0000 </r>
       <r>  -11.9770    1.0000 </r>
       <r>  -11.9385    1.0000 </r>
       <r>  -11.9380    1.0000 </r>
       <r>   -4.5478    1.0000 </r>
       <r>    1.6078    1.0000 </r>
       <r>    2.8294    1.0000 </r>
       <r>    2.9262    1.0000 </r>
       <r>    3.2034    1.0000 </r>
       <r>    3.3223    1.0000 </r>
       <r>    3.8280    1.0000 </r>
       <r>    4.8193    1.0000 </r>
       <r>    4.9487    1.0000 </r>
       <r>    6.2794    1.0000 </r>
       <r>    6.7568    0.0000 </r>
       <r>    7.6123    0.0000 </r>
       <r>    7.6431    0.0000 </r>
       <r>    7.9225    0.0000 </r>
       <r>    7.9386    0.0000 </r>
      </set>
      <set comment="kpoint 32">
       <r>  -34.1511    1.0000 </r>
       <r>  -16.2559    1.0000 </r>
       <r>  -16.2531    1.0000 </r>
       <r>  -16.2318    1.0000 </r>
       <r>  -16.2294    1.0000 </r>
       <r>  -16.2291    1.0000 </r>
       <r>  -11.9920    1.0000 </r>
       <r>  -11.9395    1.0000 </r>
       <r>  -11.9374    1.0000 </r>
       <r>   -4.4714    1.0000 </r>
       <r>    1.5956    1.0000 </r>
       <r>    2.6698    1.0000 </r>
       <r>    2.8689    1.0000 </r>
       <r>    3.2821    1.0000 </r>
       <r>    3.3284    1.0000 </r>
       <r>    3.6723    1.0000 </r>
       <r>    4.5886    1.0000 </r>
       <r>    4.9390    1.0000 </r>
       <r>    6.3826    1.0000 </r>
       <r>    7.1489    0.0000 </r>
       <r>    7.6688    0.0000 </r>
       <r>    7.7636    0.0000 </r>
       <r>    7.9108    0.0000 </r>
       <r>    7.9349    0.0000 </r>
      </set>
      <set comment="kpoint 33">
       <r>  -34.1509    1.0000 </r>
       <r>  -16.2555    1.0000 </r>
       <r>  -16.2542    1.0000 </r>
       <r>  -16.2317    1.0000 </r>
       <r>  -16.2294    1.0000 </r>
       <r>  -16.2290    1.0000 </r>
       <r>  -12.0028    1.0000 </r>
       <r>  -11.9435    1.0000 </r>
       <r>  -11.9343    1.0000 </r>
       <r>   -4.4054    1.0000 </r>
       <r>    1.6272    1.0000 </r>
       <r>    2.5630    1.0000 </r>
       <r>    2.7747    1.0000 </r>
       <r>    3.3021    1.0000 </r>
       <r>    3.3417    1.0000 </r>
       <r>    3.5307    1.0000 </r>
       <r>    4.4274    1.0000 </r>
       <r>    4.9348    1.0000 </r>
       <r>    6.4318    1.0000 </r>
       <r>    7.4479    0.0000 </r>
       <r>    7.7116    0.0000 </r>
       <r>    7.8280    0.0000 </r>
       <r>    7.8959    0.0000 </r>
       <r>    8.0409    0.0000 </r>
      </set>
      <set comment="kpoint 34">
       <r>  -34.1508    1.0000 </r>
       <r>  -16.2555    1.0000 </r>
       <r>  -16.2549    1.0000 </r>
       <r>  -16.2314    1.0000 </r>
       <r>  -16.2296    1.0000 </r>
       <r>  -16.2289    1.0000 </r>
       <r>  -12.0072    1.0000 </r>
       <r>  -11.9494    1.0000 </r>
       <r>  -11.9297    1.0000 </r>
       <r>   -4.3620    1.0000 </r>
       <r>    1.6514    1.0000 </r>
       <r>    2.5330    1.0000 </r>
       <r>    2.6560    1.0000 </r>
       <r>    3.2578    1.0000 </r>
       <r>    3.3834    1.0000 </r>
       <r>    3.4699    1.0000 </r>
       <r>    4.3365    1.0000 </r>
       <r>    4.9248    1.0000 </r>
       <r>    6.5225    0.0000 </r>
       <r>    7.4565    0.0000 </r>
       <r>    7.7368    0.0000 </r>
       <r>    7.8624    0.0000 </r>
       <r>    7.8734    0.0000 </r>
       <r>    7.9995    0.0000 </r>
      </set>
      <set comment="kpoint 35">
       <r>  -34.1508    1.0000 </r>
       <r>  -16.2567    1.0000 </r>
       <r>  -16.2544    1.0000 </r>
       <r>  -16.2310    1.0000 </r>
       <r>  -16.2299    1.0000 </r>
       <r>  -16.2291    1.0000 </r>
       <r>  -12.0050    1.0000 </r>
       <r>  -11.9550    1.0000 </r>
       <r>  -11.9249    1.0000 </r>
       <r>   -4.3494    1.0000 </r>
       <r>    1.6300    1.0000 </r>
       <r>    2.5402    1.0000 </r>
       <r>    2.5828    1.0000 </r>
       <r>    3.2223    1.0000 </r>
       <r>    3.4427    1.0000 </r>
       <r>    3.4817    1.0000 </r>
       <r>    4.2785    1.0000 </r>
       <r>    4.9246    1.0000 </r>
       <r>    6.6237    0.0000 </r>
       <r>    7.4299    0.0000 </r>
       <r>    7.7159    0.0000 </r>
       <r>    7.8571    0.0000 </r>
       <r>    7.8896    0.0000 </r>
       <r>    7.9866    0.0000 </r>
      </set>
      <set comment="kpoint 36">
       <r>  -34.1509    1.0000 </r>
       <r>  -16.2575    1.0000 </r>
       <r>  -16.2541    1.0000 </r>
       <r>  -16.2308    1.0000 </r>
       <r>  -16.2300    1.0000 </r>
       <r>  -16.2293    1.0000 </r>
       <r>  -11.9986    1.0000 </r>
       <r>  -11.9572    1.0000 </r>
       <r>  -11.9208    1.0000 </r>
       <r>   -4.3711    1.0000 </r>
       <r>    1.5862    1.0000 </r>
       <r>    2.4533    1.0000 </r>
       <r>    2.6894    1.0000 </r>
       <r>    3.2129    1.0000 </r>
       <r>    3.4927    1.0000 </r>
       <r>    3.5589    1.0000 </r>
       <r>    4.2353    1.0000 </r>
       <r>    4.9605    1.0000 </r>
       <r>    6.6657    0.0000 </r>
       <r>    7.4515    0.0000 </r>
       <r>    7.6180    0.0000 </r>
       <r>    7.8663    0.0000 </r>
       <r>    7.9040    0.0000 </r>
       <r>    7.9977    0.0000 </r>
      </set>
      <set comment="kpoint 37">
       <r>  -34.1512    1.0000 </r>
       <r>  -16.2576    1.0000 </r>
       <r>  -16.2540    1.0000 </r>
       <r>  -16.2309    1.0000 </r>
       <r>  -16.2300    1.0000 </r>
       <r>  -16.2296    1.0000 </r>
       <r>  -11.9923    1.0000 </r>
       <r>  -11.9526    1.0000 </r>
       <r>  -11.9185    1.0000 </r>
       <r>   -4.4251    1.0000 </r>
       <r>    1.5796    1.0000 </r>
       <r>    2.4132    1.0000 </r>
       <r>    2.8081    1.0000 </r>
       <r>    3.2104    1.0000 </r>
       <r>    3.5091    1.0000 </r>
       <r>    3.6433    1.0000 </r>
       <r>    4.2751    1.0000 </r>
       <r>    5.0462    1.0000 </r>
       <r>    6.6183    0.0000 </r>
       <r>    7.4234    0.0000 </r>
       <r>    7.4655    0.0000 </r>
       <r>    7.8784    0.0000 </r>
       <r>    7.8872    0.0000 </r>
       <r>    8.0237    0.0000 </r>
      </set>
      <set comment="kpoint 38">
       <r>  -34.1512    1.0000 </r>
       <r>  -16.2556    1.0000 </r>
       <r>  -16.2519    1.0000 </r>
       <r>  -16.2321    1.0000 </r>
       <r>  -16.2291    1.0000 </r>
       <r>  -16.2291    1.0000 </r>
       <r>  -11.9827    1.0000 </r>
       <r>  -11.9420    1.0000 </r>
       <r>  -11.9420    1.0000 </r>
       <r>   -4.5212    1.0000 </r>
       <r>    1.6015    1.0000 </r>
       <r>    2.9497    1.0000 </r>
       <r>    2.9497    1.0000 </r>
       <r>    3.0361    1.0000 </r>
       <r>    3.3615    1.0000 </r>
       <r>    3.7749    1.0000 </r>
       <r>    4.9190    1.0000 </r>
       <r>    4.9190    1.0000 </r>
       <r>    6.1385    1.0000 </r>
       <r>    6.8447    0.0000 </r>
       <r>    7.6623    0.0000 </r>
       <r>    7.6623    0.0000 </r>
       <r>    7.9030    0.0000 </r>
       <r>    7.9063    0.0000 </r>
      </set>
      <set comment="kpoint 39">
       <r>  -34.1510    1.0000 </r>
       <r>  -16.2549    1.0000 </r>
       <r>  -16.2520    1.0000 </r>
       <r>  -16.2323    1.0000 </r>
       <r>  -16.2289    1.0000 </r>
       <r>  -16.2288    1.0000 </r>
       <r>  -11.9925    1.0000 </r>
       <r>  -11.9446    1.0000 </r>
       <r>  -11.9429    1.0000 </r>
       <r>   -4.4830    1.0000 </r>
       <r>    1.6642    1.0000 </r>
       <r>    2.8001    1.0000 </r>
       <r>    2.9232    1.0000 </r>
       <r>    3.1239    1.0000 </r>
       <r>    3.3829    1.0000 </r>
       <r>    3.6525    1.0000 </r>
       <r>    4.7659    1.0000 </r>
       <r>    4.9221    1.0000 </r>
       <r>    6.2713    1.0000 </r>
       <r>    7.0539    0.0000 </r>
       <r>    7.7012    0.0000 </r>
       <r>    7.7221    0.0000 </r>
       <r>    7.8745    0.0000 </r>
       <r>    7.8934    0.0000 </r>
      </set>
      <set comment="kpoint 40">
       <r>  -34.1508    1.0000 </r>
       <r>  -16.2541    1.0000 </r>
       <r>  -16.2528    1.0000 </r>
       <r>  -16.2322    1.0000 </r>
       <r>  -16.2289    1.0000 </r>
       <r>  -16.2287    1.0000 </r>
       <r>  -11.9993    1.0000 </r>
       <r>  -11.9501    1.0000 </r>
       <r>  -11.9410    1.0000 </r>
       <r>   -4.4416    1.0000 </r>
       <r>    1.7733    1.0000 </r>
       <r>    2.6508    1.0000 </r>
       <r>    2.8516    1.0000 </r>
       <r>    3.2201    1.0000 </r>
       <r>    3.4001    1.0000 </r>
       <r>    3.5271    1.0000 </r>
       <r>    4.4828    1.0000 </r>
       <r>    4.9189    1.0000 </r>
       <r>    6.3914    1.0000 </r>
       <r>    7.4157    0.0000 </r>
       <r>    7.7346    0.0000 </r>
       <r>    7.7907    0.0000 </r>
       <r>    7.8907    0.0000 </r>
       <r>    7.9196    0.0000 </r>
      </set>
      <set comment="kpoint 41">
       <r>  -34.1507    1.0000 </r>
       <r>  -16.2540    1.0000 </r>
       <r>  -16.2536    1.0000 </r>
       <r>  -16.2318    1.0000 </r>
       <r>  -16.2292    1.0000 </r>
       <r>  -16.2287    1.0000 </r>
       <r>  -12.0000    1.0000 </r>
       <r>  -11.9590    1.0000 </r>
       <r>  -11.9368    1.0000 </r>
       <r>   -4.4038    1.0000 </r>
       <r>    1.8646    1.0000 </r>
       <r>    2.5591    1.0000 </r>
       <r>    2.7440    1.0000 </r>
       <r>    3.2296    1.0000 </r>
       <r>    3.4325    1.0000 </r>
       <r>    3.4967    1.0000 </r>
       <r>    4.2335    1.0000 </r>
       <r>    4.8947    1.0000 </r>
       <r>    6.4917    0.0000 </r>
       <r>    7.4899    0.0000 </r>
       <r>    7.7633    0.0000 </r>
       <r>    7.8219    0.0000 </r>
       <r>    7.8825    0.0000 </r>
       <r>    7.9875    0.0000 </r>
      </set>
      <set comment="kpoint 42">
       <r>  -34.1506    1.0000 </r>
       <r>  -16.2554    1.0000 </r>
       <r>  -16.2534    1.0000 </r>
       <r>  -16.2313    1.0000 </r>
       <r>  -16.2296    1.0000 </r>
       <r>  -16.2288    1.0000 </r>
       <r>  -11.9949    1.0000 </r>
       <r>  -11.9689    1.0000 </r>
       <r>  -11.9311    1.0000 </r>
       <r>   -4.3756    1.0000 </r>
       <r>    1.8499    1.0000 </r>
       <r>    2.5414    1.0000 </r>
       <r>    2.6246    1.0000 </r>
       <r>    3.2015    1.0000 </r>
       <r>    3.4731    1.0000 </r>
       <r>    3.5523    1.0000 </r>
       <r>    4.0842    1.0000 </r>
       <r>    4.8736    1.0000 </r>
       <r>    6.6259    0.0000 </r>
       <r>    7.4262    0.0000 </r>
       <r>    7.7765    0.0000 </r>
       <r>    7.8437    0.0000 </r>
       <r>    7.8574    0.0000 </r>
       <r>    7.9958    0.0000 </r>
      </set>
      <set comment="kpoint 43">
       <r>  -34.1507    1.0000 </r>
       <r>  -16.2566    1.0000 </r>
       <r>  -16.2536    1.0000 </r>
       <r>  -16.2309    1.0000 </r>
       <r>  -16.2300    1.0000 </r>
       <r>  -16.2290    1.0000 </r>
       <r>  -11.9925    1.0000 </r>
       <r>  -11.9702    1.0000 </r>
       <r>  -11.9254    1.0000 </r>
       <r>   -4.3629    1.0000 </r>
       <r>    1.7237    1.0000 </r>
       <r>    2.5205    1.0000 </r>
       <r>    2.5982    1.0000 </r>
       <r>    3.2050    1.0000 </r>
       <r>    3.4989    1.0000 </r>
       <r>    3.5946    1.0000 </r>
       <r>    4.0723    1.0000 </r>
       <r>    4.8905    1.0000 </r>
       <r>    6.7251    0.0000 </r>
       <r>    7.4040    0.0000 </r>
       <r>    7.7282    0.0000 </r>
       <r>    7.8489    0.0000 </r>
       <r>    7.8780    0.0000 </r>
       <r>    7.9819    0.0000 </r>
      </set>
      <set comment="kpoint 44">
       <r>  -34.1508    1.0000 </r>
       <r>  -16.2538    1.0000 </r>
       <r>  -16.2515    1.0000 </r>
       <r>  -16.2325    1.0000 </r>
       <r>  -16.2286    1.0000 </r>
       <r>  -16.2286    1.0000 </r>
       <r>  -11.9989    1.0000 </r>
       <r>  -11.9460    1.0000 </r>
       <r>  -11.9460    1.0000 </r>
       <r>   -4.4808    1.0000 </r>
       <r>    1.7780    1.0000 </r>
       <r>    2.9309    1.0000 </r>
       <r>    2.9343    1.0000 </r>
       <r>    2.9343    1.0000 </r>
       <r>    3.4178    1.0000 </r>
       <r>    3.5311    1.0000 </r>
       <r>    4.9438    1.0000 </r>
       <r>    4.9438    1.0000 </r>
       <r>    6.2009    1.0000 </r>
       <r>    7.0523    0.0000 </r>
       <r>    7.7260    0.0000 </r>
       <r>    7.7260    0.0000 </r>
       <r>    7.8129    0.0000 </r>
       <r>    7.8678    0.0000 </r>
      </set>
      <set comment="kpoint 45">
       <r>  -34.1507    1.0000 </r>
       <r>  -16.2529    1.0000 </r>
       <r>  -16.2517    1.0000 </r>
       <r>  -16.2326    1.0000 </r>
       <r>  -16.2285    1.0000 </r>
       <r>  -16.2284    1.0000 </r>
       <r>  -12.0036    1.0000 </r>
       <r>  -11.9494    1.0000 </r>
       <r>  -11.9461    1.0000 </r>
       <r>   -4.4661    1.0000 </r>
       <r>    1.9201    1.0000 </r>
       <r>    2.7610    1.0000 </r>
       <r>    2.9024    1.0000 </r>
       <r>    3.0708    1.0000 </r>
       <r>    3.3930    1.0000 </r>
       <r>    3.4364    1.0000 </r>
       <r>    4.7913    1.0000 </r>
       <r>    4.9541    1.0000 </r>
       <r>    6.3018    1.0000 </r>
       <r>    7.2929    0.0000 </r>
       <r>    7.7412    0.0000 </r>
       <r>    7.7475    0.0000 </r>
       <r>    7.7674    0.0000 </r>
       <r>    7.8665    0.0000 </r>
      </set>
      <set comment="kpoint 46">
       <r>  -34.1506    1.0000 </r>
       <r>  -16.2526    1.0000 </r>
       <r>  -16.2526    1.0000 </r>
       <r>  -16.2323    1.0000 </r>
       <r>  -16.2287    1.0000 </r>
       <r>  -16.2284    1.0000 </r>
       <r>  -12.0026    1.0000 </r>
       <r>  -11.9572    1.0000 </r>
       <r>  -11.9431    1.0000 </r>
       <r>   -4.4409    1.0000 </r>
       <r>    2.0292    1.0000 </r>
       <r>    2.6319    1.0000 </r>
       <r>    2.8289    1.0000 </r>
       <r>    3.1675    1.0000 </r>
       <r>    3.3457    1.0000 </r>
       <r>    3.4561    1.0000 </r>
       <r>    4.4593    1.0000 </r>
       <r>    4.9232    1.0000 </r>
       <r>    6.3993    1.0000 </r>
       <r>    7.5628    0.0000 </r>
       <r>    7.7673    0.0000 </r>
       <r>    7.7879    0.0000 </r>
       <r>    7.8831    0.0000 </r>
       <r>    7.8833    0.0000 </r>
      </set>
      <set comment="kpoint 47">
       <r>  -34.1506    1.0000 </r>
       <r>  -16.2539    1.0000 </r>
       <r>  -16.2527    1.0000 </r>
       <r>  -16.2319    1.0000 </r>
       <r>  -16.2291    1.0000 </r>
       <r>  -16.2285    1.0000 </r>
       <r>  -11.9963    1.0000 </r>
       <r>  -11.9674    1.0000 </r>
       <r>  -11.9377    1.0000 </r>
       <r>   -4.4088    1.0000 </r>
       <r>    2.0150    1.0000 </r>
       <r>    2.5525    1.0000 </r>
       <r>    2.7285    1.0000 </r>
       <r>    3.1761    1.0000 </r>
       <r>    3.4702    1.0000 </r>
       <r>    3.4744    1.0000 </r>
       <r>    4.1666    1.0000 </r>
       <r>    4.8800    1.0000 </r>
       <r>    6.5122    0.0000 </r>
       <r>    7.5008    0.0000 </r>
       <r>    7.7823    0.0000 </r>
       <r>    7.8078    0.0000 </r>
       <r>    7.8802    0.0000 </r>
       <r>    7.9763    0.0000 </r>
      </set>
      <set comment="kpoint 48">
       <r>  -34.1506    1.0000 </r>
       <r>  -16.2522    1.0000 </r>
       <r>  -16.2513    1.0000 </r>
       <r>  -16.2328    1.0000 </r>
       <r>  -16.2283    1.0000 </r>
       <r>  -16.2283    1.0000 </r>
       <r>  -12.0081    1.0000 </r>
       <r>  -11.9483    1.0000 </r>
       <r>  -11.9483    1.0000 </r>
       <r>   -4.4746    1.0000 </r>
       <r>    2.0472    1.0000 </r>
       <r>    2.8801    1.0000 </r>
       <r>    2.9179    1.0000 </r>
       <r>    2.9179    1.0000 </r>
       <r>    3.2601    1.0000 </r>
       <r>    3.4507    1.0000 </r>
       <r>    4.9908    1.0000 </r>
       <r>    4.9908    1.0000 </r>
       <r>    6.2737    1.0000 </r>
       <r>    7.1647    0.0000 </r>
       <r>    7.6867    0.0000 </r>
       <r>    7.7563    0.0000 </r>
       <r>    7.7563    0.0000 </r>
       <r>    7.8381    0.0000 </r>
      </set>
      <set comment="kpoint 49">
       <r>  -34.1506    1.0000 </r>
       <r>  -16.2521    1.0000 </r>
       <r>  -16.2516    1.0000 </r>
       <r>  -16.2327    1.0000 </r>
       <r>  -16.2283    1.0000 </r>
       <r>  -16.2283    1.0000 </r>
       <r>  -12.0077    1.0000 </r>
       <r>  -11.9512    1.0000 </r>
       <r>  -11.9472    1.0000 </r>
       <r>   -4.4659    1.0000 </r>
       <r>    2.0974    1.0000 </r>
       <r>    2.7469    1.0000 </r>
       <r>    2.8918    1.0000 </r>
       <r>    3.0596    1.0000 </r>
       <r>    3.2180    1.0000 </r>
       <r>    3.4574    1.0000 </r>
       <r>    4.8133    1.0000 </r>
       <r>    4.9756    1.0000 </r>
       <r>    6.3221    1.0000 </r>
       <r>    7.4110    0.0000 </r>
       <r>    7.6409    0.0000 </r>
       <r>    7.7632    0.0000 </r>
       <r>    7.7702    0.0000 </r>
       <r>    7.8563    0.0000 </r>
      </set>
      <set comment="kpoint 50">
       <r>  -34.1521    1.0000 </r>
       <r>  -16.2555    1.0000 </r>
       <r>  -16.2532    1.0000 </r>
       <r>  -16.2311    1.0000 </r>
       <r>  -16.2302    1.0000 </r>
       <r>  -16.2302    1.0000 </r>
       <r>  -11.9564    1.0000 </r>
       <r>  -11.9345    1.0000 </r>
       <r>  -11.9257    1.0000 </r>
       <r>   -4.7119    1.0000 </r>
       <r>    2.0232    1.0000 </r>
       <r>    2.6816    1.0000 </r>
       <r>    2.9177    1.0000 </r>
       <r>    3.2326    1.0000 </r>
       <r>    3.3668    1.0000 </r>
       <r>    3.9308    1.0000 </r>
       <r>    4.9682    1.0000 </r>
       <r>    5.3023    1.0000 </r>
       <r>    6.1894    1.0000 </r>
       <r>    6.5967    0.0000 </r>
       <r>    7.2191    0.0000 </r>
       <r>    7.4367    0.0000 </r>
       <r>    7.8248    0.0000 </r>
       <r>    7.9477    0.0000 </r>
      </set>
      <set comment="kpoint 51">
       <r>  -34.1517    1.0000 </r>
       <r>  -16.2564    1.0000 </r>
       <r>  -16.2537    1.0000 </r>
       <r>  -16.2312    1.0000 </r>
       <r>  -16.2300    1.0000 </r>
       <r>  -16.2299    1.0000 </r>
       <r>  -11.9743    1.0000 </r>
       <r>  -11.9364    1.0000 </r>
       <r>  -11.9230    1.0000 </r>
       <r>   -4.5985    1.0000 </r>
       <r>    1.7868    1.0000 </r>
       <r>    2.5642    1.0000 </r>
       <r>    2.8791    1.0000 </r>
       <r>    3.2528    1.0000 </r>
       <r>    3.4185    1.0000 </r>
       <r>    3.7816    1.0000 </r>
       <r>    4.7448    1.0000 </r>
       <r>    5.1982    1.0000 </r>
       <r>    6.2967    1.0000 </r>
       <r>    6.8852    0.0000 </r>
       <r>    7.3799    0.0000 </r>
       <r>    7.6383    0.0000 </r>
       <r>    7.9336    0.0000 </r>
       <r>    7.9385    0.0000 </r>
      </set>
      <set comment="kpoint 52">
       <r>  -34.1514    1.0000 </r>
       <r>  -16.2571    1.0000 </r>
       <r>  -16.2545    1.0000 </r>
       <r>  -16.2313    1.0000 </r>
       <r>  -16.2299    1.0000 </r>
       <r>  -16.2297    1.0000 </r>
       <r>  -11.9940    1.0000 </r>
       <r>  -11.9358    1.0000 </r>
       <r>  -11.9216    1.0000 </r>
       <r>   -4.4787    1.0000 </r>
       <r>    1.5996    1.0000 </r>
       <r>    2.4940    1.0000 </r>
       <r>    2.7953    1.0000 </r>
       <r>    3.2538    1.0000 </r>
       <r>    3.4202    1.0000 </r>
       <r>    3.5876    1.0000 </r>
       <r>    4.6800    1.0000 </r>
       <r>    5.1007    1.0000 </r>
       <r>    6.2980    1.0000 </r>
       <r>    7.2621    0.0000 </r>
[...]
       <r>    6.8223    0.0000 </r>
       <r>    7.2910    0.0000 </r>
       <r>    7.7691    0.0000 </r>
       <r>    7.8032    0.0000 </r>
       <r>    7.8712    0.0000 </r>
       <r>    7.9824    0.0000 </r>
      </set>
      <set comment="kpoint 81">
       <r>  -34.1507    1.0000 </r>
       <r>  -16.2559    1.0000 </r>
       <r>  -16.2530    1.0000 </r>
       <r>  -16.2310    1.0000 </r>
       <r>  -16.2302    1.0000 </r>
       <r>  -16.2286    1.0000 </r>
       <r>  -11.9922    1.0000 </r>
       <r>  -11.9671    1.0000 </r>
       <r>  -11.9338    1.0000 </r>
       <r>   -4.3804    1.0000 </r>
       <r>    1.8295    1.0000 </r>
       <r>    2.4499    1.0000 </r>
       <r>    2.7850    1.0000 </r>
       <r>    3.2693    1.0000 </r>
       <r>    3.4256    1.0000 </r>
       <r>    3.5566    1.0000 </r>
       <r>    3.9259    1.0000 </r>
       <r>    4.9830    1.0000 </r>
       <r>    6.8191    0.0000 </r>
       <r>    7.2898    0.0000 </r>
       <r>    7.7520    0.0000 </r>
       <r>    7.8073    0.0000 </r>
       <r>    7.8805    0.0000 </r>
       <r>    7.9720    0.0000 </r>
      </set>
      <set comment="kpoint 82">
       <r>  -34.1506    1.0000 </r>
       <r>  -16.2541    1.0000 </r>
       <r>  -16.2520    1.0000 </r>
       <r>  -16.2319    1.0000 </r>
       <r>  -16.2293    1.0000 </r>
       <r>  -16.2283    1.0000 </r>
       <r>  -11.9973    1.0000 </r>
       <r>  -11.9596    1.0000 </r>
       <r>  -11.9455    1.0000 </r>
       <r>   -4.4201    1.0000 </r>
       <r>    2.0437    1.0000 </r>
       <r>    2.5067    1.0000 </r>
       <r>    2.8952    1.0000 </r>
       <r>    3.2641    1.0000 </r>
       <r>    3.3353    1.0000 </r>
       <r>    3.4598    1.0000 </r>
       <r>    4.0303    1.0000 </r>
       <r>    5.0460    1.0000 </r>
       <r>    6.6173    0.0000 </r>
       <r>    7.4618    0.0000 </r>
       <r>    7.7136    0.0000 </r>
       <r>    7.7574    0.0000 </r>
       <r>    7.8295    0.0000 </r>
       <r>    7.9691    0.0000 </r>
      </set>
      <set comment="kpoint 83">
       <r>  -34.1505    1.0000 </r>
       <r>  -16.2548    1.0000 </r>
       <r>  -16.2520    1.0000 </r>
       <r>  -16.2315    1.0000 </r>
       <r>  -16.2298    1.0000 </r>
       <r>  -16.2283    1.0000 </r>
       <r>  -11.9916    1.0000 </r>
       <r>  -11.9670    1.0000 </r>
       <r>  -11.9438    1.0000 </r>
       <r>   -4.4021    1.0000 </r>
       <r>    2.0662    1.0000 </r>
       <r>    2.4488    1.0000 </r>
       <r>    2.8655    1.0000 </r>
       <r>    3.2607    1.0000 </r>
       <r>    3.4130    1.0000 </r>
       <r>    3.4927    1.0000 </r>
       <r>    3.7957    1.0000 </r>
       <r>    5.0435    1.0000 </r>
       <r>    6.7567    0.0000 </r>
       <r>    7.3793    0.0000 </r>
       <r>    7.7515    0.0000 </r>
       <r>    7.7645    0.0000 </r>
       <r>    7.8517    0.0000 </r>
       <r>    7.9901    0.0000 </r>
      </set>
      <set comment="kpoint 84">
       <r>  -34.1505    1.0000 </r>
       <r>  -16.2553    1.0000 </r>
       <r>  -16.2520    1.0000 </r>
       <r>  -16.2311    1.0000 </r>
       <r>  -16.2302    1.0000 </r>
       <r>  -16.2283    1.0000 </r>
       <r>  -11.9885    1.0000 </r>
       <r>  -11.9692    1.0000 </r>
       <r>  -11.9440    1.0000 </r>
       <r>   -4.3941    1.0000 </r>
       <r>    2.0512    1.0000 </r>
       <r>    2.4209    1.0000 </r>
       <r>    2.8751    1.0000 </r>
       <r>    3.3291    1.0000 </r>
       <r>    3.4239    1.0000 </r>
       <r>    3.4895    1.0000 </r>
       <r>    3.6590    1.0000 </r>
       <r>    5.0609    1.0000 </r>
       <r>    6.9091    0.0000 </r>
       <r>    7.2629    0.0000 </r>
       <r>    7.7409    0.0000 </r>
       <r>    7.7606    0.0000 </r>
       <r>    7.8706    0.0000 </r>
       <r>    7.9705    0.0000 </r>
      </set>
     </set>
    </set>
   </array>
  </eigenvalues>
  <separator name="orbital magnetization" >
   <v name="MAGDIPOLOUT">      0.00000000      0.00000000      0.00000000</v>
  </separator>
  <dos>
   <i name="efermi">      6.45938107 </i>
   <total>
    <array>
     <dimension dim="1">gridpoints</dimension>
     <dimension dim="2">spin</dimension>
     <field>energy</field>
     <field>total</field>
     <field>integrated</field>
     <set>
      <set comment="spin 1">
       <r>   -36.2623     0.0000     0.0000 </r>
       <r>   -36.1076     0.0000     0.0000 </r>
       <r>   -35.9529     0.0000     0.0000 </r>
       <r>   -35.7982     0.0000     0.0000 </r>
       <r>   -35.6435     0.0000     0.0000 </r>
       <r>   -35.4888     0.0000     0.0000 </r>
       <r>   -35.3340     0.0000     0.0000 </r>
       <r>   -35.1793     0.0000     0.0000 </r>
       <r>   -35.0246     0.0000     0.0000 </r>
       <r>   -34.8699     0.0000     0.0000 </r>
       <r>   -34.7152     0.0000     0.0000 </r>
       <r>   -34.5605     0.0000     0.0000 </r>
       <r>   -34.4058     0.0000     0.0000 </r>
       <r>   -34.2511     0.0000     0.0000 </r>
       <r>   -34.0964    12.9274     2.0000 </r>
       <r>   -33.9417     0.0000     2.0000 </r>
       <r>   -33.7869     0.0000     2.0000 </r>
       <r>   -33.6322     0.0000     2.0000 </r>
       <r>   -33.4775     0.0000     2.0000 </r>
       <r>   -33.3228     0.0000     2.0000 </r>
       <r>   -33.1681     0.0000     2.0000 </r>
       <r>   -33.0134     0.0000     2.0000 </r>
       <r>   -32.8587     0.0000     2.0000 </r>
       <r>   -32.7040     0.0000     2.0000 </r>
       <r>   -32.5493     0.0000     2.0000 </r>
       <r>   -32.3946     0.0000     2.0000 </r>
       <r>   -32.2399     0.0000     2.0000 </r>
       <r>   -32.0851     0.0000     2.0000 </r>
       <r>   -31.9304     0.0000     2.0000 </r>
       <r>   -31.7757     0.0000     2.0000 </r>
       <r>   -31.6210     0.0000     2.0000 </r>
       <r>   -31.4663     0.0000     2.0000 </r>
       <r>   -31.3116     0.0000     2.0000 </r>
       <r>   -31.1569     0.0000     2.0000 </r>
       <r>   -31.0022     0.0000     2.0000 </r>
       <r>   -30.8475     0.0000     2.0000 </r>
       <r>   -30.6928     0.0000     2.0000 </r>
       <r>   -30.5380     0.0000     2.0000 </r>
       <r>   -30.3833     0.0000     2.0000 </r>
       <r>   -30.2286     0.0000     2.0000 </r>
       <r>   -30.0739     0.0000     2.0000 </r>
       <r>   -29.9192     0.0000     2.0000 </r>
       <r>   -29.7645     0.0000     2.0000 </r>
       <r>   -29.6098     0.0000     2.0000 </r>
       <r>   -29.4551     0.0000     2.0000 </r>
       <r>   -29.3004     0.0000     2.0000 </r>
       <r>   -29.1457     0.0000     2.0000 </r>
       <r>   -28.9909     0.0000     2.0000 </r>
       <r>   -28.8362     0.0000     2.0000 </r>
       <r>   -28.6815     0.0000     2.0000 </r>
       <r>   -28.5268     0.0000     2.0000 </r>
       <r>   -28.3721     0.0000     2.0000 </r>
       <r>   -28.2174     0.0000     2.0000 </r>
       <r>   -28.0627     0.0000     2.0000 </r>
       <r>   -27.9080     0.0000     2.0000 </r>
       <r>   -27.7533     0.0000     2.0000 </r>
       <r>   -27.5986     0.0000     2.0000 </r>
       <r>   -27.4439     0.0000     2.0000 </r>
       <r>   -27.2891     0.0000     2.0000 </r>
       <r>   -27.1344     0.0000     2.0000 </r>
       <r>   -26.9797     0.0000     2.0000 </r>
       <r>   -26.8250     0.0000     2.0000 </r>
       <r>   -26.6703     0.0000     2.0000 </r>
       <r>   -26.5156     0.0000     2.0000 </r>
       <r>   -26.3609     0.0000     2.0000 </r>
       <r>   -26.2062     0.0000     2.0000 </r>
       <r>   -26.0515     0.0000     2.0000 </r>
       <r>   -25.8968     0.0000     2.0000 </r>
       <r>   -25.7420     0.0000     2.0000 </r>
       <r>   -25.5873     0.0000     2.0000 </r>
       <r>   -25.4326     0.0000     2.0000 </r>
       <r>   -25.2779     0.0000     2.0000 </r>
       <r>   -25.1232     0.0000     2.0000 </r>
       <r>   -24.9685     0.0000     2.0000 </r>
       <r>   -24.8138     0.0000     2.0000 </r>
       <r>   -24.6591     0.0000     2.0000 </r>
       <r>   -24.5044     0.0000     2.0000 </r>
       <r>   -24.3497     0.0000     2.0000 </r>
       <r>   -24.1950     0.0000     2.0000 </r>
       <r>   -24.0402     0.0000     2.0000 </r>
       <r>   -23.8855     0.0000     2.0000 </r>
       <r>   -23.7308     0.0000     2.0000 </r>
       <r>   -23.5761     0.0000     2.0000 </r>
       <r>   -23.4214     0.0000     2.0000 </r>
       <r>   -23.2667     0.0000     2.0000 </r>
       <r>   -23.1120     0.0000     2.0000 </r>
       <r>   -22.9573     0.0000     2.0000 </r>
       <r>   -22.8026     0.0000     2.0000 </r>
       <r>   -22.6479     0.0000     2.0000 </r>
       <r>   -22.4931     0.0000     2.0000 </r>
       <r>   -22.3384     0.0000     2.0000 </r>
       <r>   -22.1837     0.0000     2.0000 </r>
       <r>   -22.0290     0.0000     2.0000 </r>
       <r>   -21.8743     0.0000     2.0000 </r>
       <r>   -21.7196     0.0000     2.0000 </r>
       <r>   -21.5649     0.0000     2.0000 </r>
       <r>   -21.4102     0.0000     2.0000 </r>
       <r>   -21.2555     0.0000     2.0000 </r>
       <r>   -21.1008     0.0000     2.0000 </r>
       <r>   -20.9460     0.0000     2.0000 </r>
       <r>   -20.7913     0.0000     2.0000 </r>
       <r>   -20.6366     0.0000     2.0000 </r>
       <r>   -20.4819     0.0000     2.0000 </r>
       <r>   -20.3272     0.0000     2.0000 </r>
       <r>   -20.1725     0.0000     2.0000 </r>
       <r>   -20.0178     0.0000     2.0000 </r>
       <r>   -19.8631     0.0000     2.0000 </r>
       <r>   -19.7084     0.0000     2.0000 </r>
       <r>   -19.5537     0.0000     2.0000 </r>
       <r>   -19.3990     0.0000     2.0000 </r>
       <r>   -19.2442     0.0000     2.0000 </r>
       <r>   -19.0895     0.0000     2.0000 </r>
       <r>   -18.9348     0.0000     2.0000 </r>
       <r>   -18.7801     0.0000     2.0000 </r>
       <r>   -18.6254     0.0000     2.0000 </r>
       <r>   -18.4707     0.0000     2.0000 </r>
       <r>   -18.3160     0.0000     2.0000 </r>
       <r>   -18.1613     0.0000     2.0000 </r>
       <r>   -18.0066     0.0000     2.0000 </r>
       <r>   -17.8519     0.0000     2.0000 </r>
       <r>   -17.6971     0.0000     2.0000 </r>
       <r>   -17.5424     0.0000     2.0000 </r>
       <r>   -17.3877     0.0000     2.0000 </r>
       <r>   -17.2330     0.0000     2.0000 </r>
       <r>   -17.0783     0.0000     2.0000 </r>
       <r>   -16.9236     0.0000     2.0000 </r>
       <r>   -16.7689     0.0000     2.0000 </r>
       <r>   -16.6142     0.0000     2.0000 </r>
       <r>   -16.4595     0.0000     2.0000 </r>
       <r>   -16.3048     0.0000     2.0000 </r>
       <r>   -16.1500    22.5951    12.0000 </r>
       <r>   -15.9953     0.0000    12.0000 </r>
       <r>   -15.8406     0.0000    12.0000 </r>
       <r>   -15.6859     0.0000    12.0000 </r>
       <r>   -15.5312     0.0000    12.0000 </r>
       <r>   -15.3765     0.0000    12.0000 </r>
       <r>   -15.2218     0.0000    12.0000 </r>
       <r>   -15.0671     0.0000    12.0000 </r>
       <r>   -14.9124     0.0000    12.0000 </r>
       <r>   -14.7577     0.0000    12.0000 </r>
       <r>   -14.6030     0.0000    12.0000 </r>
       <r>   -14.4482     0.0000    12.0000 </r>
       <r>   -14.2935     0.0000    12.0000 </r>
       <r>   -14.1388     0.0000    12.0000 </r>
       <r>   -13.9841     0.0000    12.0000 </r>
       <r>   -13.8294     0.0000    12.0000 </r>
       <r>   -13.6747     0.0000    12.0000 </r>
       <r>   -13.5200     0.0000    12.0000 </r>
       <r>   -13.3653     0.0000    12.0000 </r>
       <r>   -13.2106     0.0000    12.0000 </r>
       <r>   -13.0559     0.0000    12.0000 </r>
       <r>   -12.9011     0.0000    12.0000 </r>
       <r>   -12.7464     0.0000    12.0000 </r>
       <r>   -12.5917     0.0000    12.0000 </r>
       <r>   -12.4370     0.0000    12.0000 </r>
       <r>   -12.2823     0.0000    12.0000 </r>
       <r>   -12.1276     0.0000    12.0000 </r>
       <r>   -11.9729    12.0932    13.8709 </r>
       <r>   -11.8182     0.0000    18.0000 </r>
       <r>   -11.6635     0.0000    18.0000 </r>
       <r>   -11.5088     0.0000    18.0000 </r>
       <r>   -11.3541     0.0000    18.0000 </r>
       <r>   -11.1993     0.0000    18.0000 </r>
       <r>   -11.0446     0.0000    18.0000 </r>
       <r>   -10.8899     0.0000    18.0000 </r>
       <r>   -10.7352     0.0000    18.0000 </r>
       <r>   -10.5805     0.0000    18.0000 </r>
       <r>   -10.4258     0.0000    18.0000 </r>
       <r>   -10.2711     0.0000    18.0000 </r>
       <r>   -10.1164     0.0000    18.0000 </r>
       <r>    -9.9617     0.0000    18.0000 </r>
       <r>    -9.8070     0.0000    18.0000 </r>
       <r>    -9.6522     0.0000    18.0000 </r>
       <r>    -9.4975     0.0000    18.0000 </r>
       <r>    -9.3428     0.0000    18.0000 </r>
       <r>    -9.1881     0.0000    18.0000 </r>
       <r>    -9.0334     0.0000    18.0000 </r>
       <r>    -8.8787     0.0000    18.0000 </r>
       <r>    -8.7240     0.0000    18.0000 </r>
       <r>    -8.5693     0.0000    18.0000 </r>
       <r>    -8.4146     0.0000    18.0000 </r>
       <r>    -8.2599     0.0000    18.0000 </r>
       <r>    -8.1051     0.0000    18.0000 </r>
       <r>    -7.9504     0.0000    18.0000 </r>
       <r>    -7.7957     0.0000    18.0000 </r>
       <r>    -7.6410     0.0000    18.0000 </r>
       <r>    -7.4863     0.0000    18.0000 </r>
       <r>    -7.3316     0.0000    18.0000 </r>
       <r>    -7.1769     0.0000    18.0000 </r>
       <r>    -7.0222     0.0000    18.0000 </r>
       <r>    -6.8675     0.0000    18.0000 </r>
       <r>    -6.7128     0.0000    18.0000 </r>
       <r>    -6.5581     0.0000    18.0000 </r>
       <r>    -6.4033     0.0000    18.0000 </r>
       <r>    -6.2486     0.0000    18.0000 </r>
       <r>    -6.0939     0.0000    18.0000 </r>
       <r>    -5.9392     0.0000    18.0000 </r>
       <r>    -5.7845     0.0000    18.0000 </r>
       <r>    -5.6298     0.0000    18.0000 </r>
       <r>    -5.4751     0.0000    18.0000 </r>
       <r>    -5.3204     0.0000    18.0000 </r>
       <r>    -5.1657     0.0000    18.0000 </r>
       <r>    -5.0110     0.0000    18.0000 </r>
       <r>    -4.8562     0.0839    18.0130 </r>
       <r>    -4.7015     0.3515    18.1008 </r>
       <r>    -4.5468     0.8827    18.2904 </r>
       <r>    -4.3921     4.6708    19.2442 </r>
       <r>    -4.2374     0.1883    20.0000 </r>
       <r>    -4.0827     0.0000    20.0000 </r>
       <r>    -3.9280     0.0000    20.0000 </r>
       <r>    -3.7733     0.0000    20.0000 </r>
       <r>    -3.6186     0.0000    20.0000 </r>
       <r>    -3.4639     0.0000    20.0000 </r>
       <r>    -3.3092     0.0000    20.0000 </r>
       <r>    -3.1544     0.0000    20.0000 </r>
       <r>    -2.9997     0.0000    20.0000 </r>
       <r>    -2.8450     0.0000    20.0000 </r>
       <r>    -2.6903     0.0000    20.0000 </r>
       <r>    -2.5356     0.0000    20.0000 </r>
       <r>    -2.3809     0.0000    20.0000 </r>
       <r>    -2.2262     0.0000    20.0000 </r>
       <r>    -2.0715     0.0000    20.0000 </r>
       <r>    -1.9168     0.0000    20.0000 </r>
       <r>    -1.7621     0.0000    20.0000 </r>
       <r>    -1.6073     0.0000    20.0000 </r>
       <r>    -1.4526     0.0000    20.0000 </r>
       <r>    -1.2979     0.0000    20.0000 </r>
       <r>    -1.1432     0.0000    20.0000 </r>
       <r>    -0.9885     0.0000    20.0000 </r>
       <r>    -0.8338     0.0000    20.0000 </r>
       <r>    -0.6791     0.0000    20.0000 </r>
       <r>    -0.5244     0.0000    20.0000 </r>
       <r>    -0.3697     0.0000    20.0000 </r>
       <r>    -0.2150     0.0000    20.0000 </r>
       <r>    -0.0602     0.0000    20.0000 </r>
       <r>     0.0945     0.0000    20.0000 </r>
       <r>     0.2492     0.0000    20.0000 </r>
       <r>     0.4039     0.0000    20.0000 </r>
       <r>     0.5586     0.0000    20.0000 </r>
       <r>     0.7133     0.0000    20.0000 </r>
       <r>     0.8680     0.0000    20.0000 </r>
       <r>     1.0227     0.0000    20.0000 </r>
       <r>     1.1774     0.0000    20.0000 </r>
       <r>     1.3321     0.1870    20.0289 </r>
       <r>     1.4868     1.0727    20.2388 </r>
       <r>     1.6416     3.0152    20.8306 </r>
       <r>     1.7963     1.8315    21.3539 </r>
       <r>     1.9510     1.1010    21.6615 </r>
       <r>     2.1057     0.9801    21.9231 </r>
       <r>     2.2604     0.0004    21.9464 </r>
       <r>     2.4151     0.1229    21.9872 </r>
       <r>     2.5698     5.5529    23.4353 </r>
       <r>     2.7245     3.7112    24.4704 </r>
       <r>     2.8792     3.6025    25.5569 </r>
       <r>     3.0339     0.0134    26.0130 </r>
       <r>     3.1887     0.8164    26.1755 </r>
       <r>     3.3434     8.3094    28.5564 </r>
       <r>     3.4981     7.2658    30.7235 </r>
       <r>     3.6528     1.4187    31.5413 </r>
       <r>     3.8075     0.9411    31.8461 </r>
       <r>     3.9622     0.9213    32.1216 </r>
       <r>     4.1169     1.2919    32.3828 </r>
       <r>     4.2716     0.6103    32.5969 </r>
       <r>     4.4263     1.4648    32.9585 </r>
       <r>     4.5810     0.5954    33.1736 </r>
       <r>     4.7358     1.0911    33.4906 </r>
       <r>     4.8905     0.5074    33.6953 </r>
       <r>     5.0452     6.1657    35.3025 </r>
       <r>     5.1999     0.9697    35.7731 </r>
       <r>     5.3546     0.5648    35.9253 </r>
       <r>     5.5093     0.0706    35.9727 </r>
       <r>     5.6640     0.0966    36.0131 </r>
       <r>     5.8187     0.0475    36.0301 </r>
       <r>     5.9734     0.2289    36.0818 </r>
       <r>     6.1281     0.3761    36.2211 </r>
       <r>     6.2828     0.4538    36.3715 </r>
       <r>     6.4376     1.5582    36.8974 </r>
       <r>     6.5923     1.7614    37.5133 </r>
       <r>     6.7470     1.5020    37.9975 </r>
       <r>     6.9017     1.0626    38.2454 </r>
       <r>     7.0564     0.7749    38.4176 </r>
       <r>     7.2111     0.8551    38.6102 </r>
       <r>     7.3658     2.8605    39.2355 </r>
       <r>     7.5205     3.8969    40.3507 </r>
       <r>     7.6752     4.1681    41.3558 </r>
       <r>     7.8299     8.5041    43.3648 </r>
       <r>     7.9847     8.5844    46.9840 </r>
       <r>     8.1394     0.0000    48.0000 </r>
       <r>     8.2941     0.0000    48.0000 </r>
       <r>     8.4488     0.0000    48.0000 </r>
       <r>     8.6035     0.0000    48.0000 </r>
       <r>     8.7582     0.0000    48.0000 </r>
       <r>     8.9129     0.0000    48.0000 </r>
       <r>     9.0676     0.0000    48.0000 </r>
       <r>     9.2223     0.0000    48.0000 </r>
       <r>     9.3770     0.0000    48.0000 </r>
       <r>     9.5317     0.0000    48.0000 </r>
       <r>     9.6865     0.0000    48.0000 </r>
       <r>     9.8412     0.0000    48.0000 </r>
       <r>     9.9959     0.0000    48.0000 </r>
       <r>    10.1506     0.0000    48.0000 </r>
      </set>
     </set>
    </array>
   </total>
  </dos>
 </calculation>
 <structure name="finalpos" >
  <crystal>
   <varray name="basis" >
    <v>       0.00000000       3.63945576       3.63945576 </v>
    <v>       3.63945576       0.00000000       3.63945576 </v>
    <v>       3.63945576       3.63945576       0.00000000 </v>
   </varray>
   <i name="volume">     96.41382906 </i>
   <varray name="rec_basis" >
    <v>      -0.13738318       0.13738318       0.13738318 </v>
    <v>       0.13738318      -0.13738318       0.13738318 </v>
    <v>       0.13738318       0.13738318      -0.13738318 </v>
   </varray>
  </crystal>
  <varray name="positions" >
   <v>       0.25000000       0.25000000       0.25000000 </v>
   <v>       0.75000000       0.75000000       0.75000000 </v>
   <v>       0.00000000       0.00000000       0.00000000 </v>
  </varray>
 </structure>
</modeling>
