   2   2   0   0
  0.1117471E+02  0.3161747E-09  0.3161747E-09  0.3161747E-09  0.0000000E+00
  1.000000000000000E-004
  CAR 
 unknown system                          
     23.40385843    -10.32980633  301      8.57510163      1.00000000
    -10.330  0.0000E+00  0.0000E+00
    -10.217  0.0000E+00  0.0000E+00
    -10.105  0.0000E+00  0.0000E+00
     -9.992  0.0000E+00  0.0000E+00
     -9.880  0.0000E+00  0.0000E+00
     -9.768  0.0000E+00  0.0000E+00
     -9.655  0.0000E+00  0.0000E+00
     -9.543  0.0000E+00  0.0000E+00
     -9.430  0.0000E+00  0.0000E+00
     -9.318  0.0000E+00  0.0000E+00
     -9.205  0.0000E+00  0.0000E+00
     -9.093  0.0000E+00  0.0000E+00
     -8.980  0.0000E+00  0.0000E+00
     -8.868  0.0000E+00  0.0000E+00
     -8.756  0.3139E-01  0.6969E-03
     -8.643  0.7051E-01  0.6775E-02
     -8.531  0.9467E-01  0.1625E-01
     -8.418  0.1151E+00  0.2817E-01
     -8.306  0.1322E+00  0.4204E-01
     -8.193  0.1467E+00  0.5781E-01
     -8.081  0.1613E+00  0.7511E-01
     -7.968  0.1741E+00  0.9403E-01
     -7.856  0.1864E+00  0.1143E+00
     -7.744  0.1987E+00  0.1360E+00
     -7.631  0.2094E+00  0.1589E+00
     -7.519  0.2210E+00  0.1831E+00
     -7.406  0.2316E+00  0.2085E+00
     -7.294  0.2418E+00  0.2351E+00
     -7.181  0.2527E+00  0.2629E+00
     -7.069  0.2630E+00  0.2920E+00
     -6.956  0.2729E+00  0.3221E+00
     -6.844  0.2836E+00  0.3534E+00
     -6.732  0.2943E+00  0.3859E+00
     -6.619  0.3044E+00  0.4195E+00
     -6.507  0.3152E+00  0.4544E+00
     -6.394  0.3266E+00  0.4904E+00
     -6.282  0.3380E+00  0.5278E+00
     -6.169  0.3498E+00  0.5665E+00
     -6.057  0.3625E+00  0.6065E+00
     -5.944  0.3761E+00  0.6480E+00
     -5.832  0.3906E+00  0.6911E+00
     -5.720  0.4068E+00  0.7359E+00
     -5.607  0.4251E+00  0.7827E+00
     -5.495  0.4463E+00  0.8316E+00
     -5.382  0.4727E+00  0.8832E+00
     -5.270  0.5095E+00  0.9383E+00
     -5.157  0.5870E+00  0.9990E+00
     -5.045  0.6082E+00  0.1068E+01
     -4.932  0.5981E+00  0.1136E+01
     -4.820  0.5828E+00  0.1203E+01
     -4.708  0.5693E+00  0.1267E+01
     -4.595  0.5559E+00  0.1330E+01
     -4.483  0.5450E+00  0.1393E+01
     -4.370  0.5320E+00  0.1453E+01
     -4.258  0.5197E+00  0.1512E+01
     -4.145  0.5133E+00  0.1570E+01
     -4.033  0.5035E+00  0.1627E+01
     -3.920  0.4965E+00  0.1684E+01
     -3.808  0.4989E+00  0.1739E+01
     -3.696  0.5041E+00  0.1796E+01
     -3.583  0.5354E+00  0.1854E+01
     -3.471  0.6399E+00  0.1920E+01
     -3.358  0.3035E+00  0.1976E+01
     -3.246  0.7949E-01  0.1998E+01
     -3.133  0.0000E+00  0.2000E+01
     -3.021  0.0000E+00  0.2000E+01
     -2.908  0.0000E+00  0.2000E+01
     -2.796  0.0000E+00  0.2000E+01
     -2.684  0.0000E+00  0.2000E+01
     -2.571  0.0000E+00  0.2000E+01
     -2.459  0.0000E+00  0.2000E+01
     -2.346  0.0000E+00  0.2000E+01
     -2.234  0.0000E+00  0.2000E+01
     -2.121  0.0000E+00  0.2000E+01
     -2.009  0.0000E+00  0.2000E+01
     -1.896  0.0000E+00  0.2000E+01
     -1.784  0.5001E-01  0.2000E+01
     -1.671  0.1193E+00  0.2009E+01
     -1.559  0.1601E+00  0.2024E+01
     -1.447  0.1974E+00  0.2045E+01
     -1.334  0.2337E+00  0.2069E+01
     -1.222  0.2758E+00  0.2098E+01
     -1.109  0.3355E+00  0.2131E+01
     -0.997  0.4423E+00  0.2176E+01
     -0.884  0.5429E+00  0.2233E+01
     -0.772  0.6726E+00  0.2302E+01
     -0.659  0.9120E+00  0.2389E+01
     -0.547  0.1210E+01  0.2517E+01
     -0.435  0.1321E+01  0.2660E+01
     -0.322  0.7689E+00  0.2767E+01
     -0.210  0.6438E+00  0.2847E+01
     -0.097  0.5557E+00  0.2913E+01
      0.015  0.5087E+00  0.2973E+01
      0.128  0.4488E+00  0.3026E+01
      0.240  0.4244E+00  0.3075E+01
      0.353  0.3980E+00  0.3122E+01
      0.465  0.3617E+00  0.3164E+01
      0.577  0.3464E+00  0.3204E+01
      0.690  0.3307E+00  0.3242E+01
      0.802  0.3112E+00  0.3278E+01
      0.915  0.2894E+00  0.3312E+01
      1.027  0.2800E+00  0.3344E+01
      1.140  0.3840E+00  0.3380E+01
      1.252  0.4468E+00  0.3427E+01
      1.365  0.5084E+00  0.3481E+01
      1.477  0.5960E+00  0.3543E+01
      1.589  0.7200E+00  0.3619E+01
      1.702  0.6932E+00  0.3700E+01
      1.814  0.6646E+00  0.3777E+01
      1.927  0.6457E+00  0.3851E+01
      2.039  0.6381E+00  0.3923E+01
      2.152  0.6326E+00  0.3994E+01
      2.264  0.6638E+00  0.4066E+01
      2.377  0.6528E+00  0.4140E+01
      2.489  0.6578E+00  0.4214E+01
      2.601  0.6724E+00  0.4289E+01
      2.714  0.7314E+00  0.4366E+01
      2.826  0.7055E+00  0.4445E+01
      2.939  0.7212E+00  0.4526E+01
      3.051  0.7320E+00  0.4608E+01
      3.164  0.7719E+00  0.4692E+01
      3.276  0.8020E+00  0.4780E+01
      3.389  0.8219E+00  0.4871E+01
      3.501  0.9244E+00  0.4967E+01
      3.613  0.9863E+00  0.5074E+01
      3.726  0.9836E+00  0.5186E+01
      3.838  0.9750E+00  0.5295E+01
      3.951  0.9571E+00  0.5404E+01
      4.063  0.9488E+00  0.5511E+01
      4.176  0.9336E+00  0.5617E+01
      4.288  0.9195E+00  0.5721E+01
      4.401  0.9063E+00  0.5824E+01
      4.513  0.8972E+00  0.5925E+01
      4.625  0.8844E+00  0.6026E+01
      4.738  0.8670E+00  0.6124E+01
      4.850  0.8589E+00  0.6221E+01
      4.963  0.8541E+00  0.6317E+01
      5.075  0.8362E+00  0.6412E+01
      5.188  0.8240E+00  0.6506E+01
      5.300  0.8128E+00  0.6598E+01
      5.413  0.8069E+00  0.6689E+01
      5.525  0.7970E+00  0.6779E+01
      5.637  0.7843E+00  0.6868E+01
      5.750  0.7705E+00  0.6955E+01
      5.862  0.7562E+00  0.7041E+01
      5.975  0.7497E+00  0.7126E+01
      6.087  0.7399E+00  0.7210E+01
      6.200  0.7261E+00  0.7292E+01
      6.312  0.7206E+00  0.7374E+01
      6.425  0.6080E+00  0.7450E+01
      6.537  0.5206E+00  0.7513E+01
      6.649  0.4723E+00  0.7569E+01
      6.762  0.4289E+00  0.7620E+01
      6.874  0.3892E+00  0.7666E+01
      6.987  0.3581E+00  0.7708E+01
      7.099  0.3262E+00  0.7746E+01
      7.212  0.2986E+00  0.7781E+01
      7.324  0.2735E+00  0.7813E+01
      7.437  0.2480E+00  0.7843E+01
      7.549  0.2260E+00  0.7869E+01
      7.661  0.2044E+00  0.7894E+01
      7.774  0.1841E+00  0.7915E+01
      7.886  0.1628E+00  0.7935E+01
      7.999  0.1426E+00  0.7952E+01
      8.111  0.1216E+00  0.7967E+01
      8.224  0.1042E+00  0.7980E+01
      8.336  0.7838E-01  0.7990E+01
      8.449  0.4763E-01  0.7997E+01
      8.561  0.2604E-03  0.8000E+01
      8.673  0.0000E+00  0.8000E+01
      8.786  0.0000E+00  0.8000E+01
      8.898  0.0000E+00  0.8000E+01
      9.011  0.0000E+00  0.8000E+01
      9.123  0.0000E+00  0.8000E+01
      9.236  0.0000E+00  0.8000E+01
      9.348  0.0000E+00  0.8000E+01
      9.461  0.0000E+00  0.8000E+01
      9.573  0.2229E-01  0.8000E+01
      9.686  0.9795E-01  0.8007E+01
      9.798  0.1423E+00  0.8021E+01
      9.910  0.1916E+00  0.8040E+01
     10.023  0.2369E+00  0.8064E+01
     10.135  0.2675E+00  0.8092E+01
     10.248  0.2988E+00  0.8124E+01
     10.360  0.3308E+00  0.8160E+01
     10.473  0.3651E+00  0.8199E+01
     10.585  0.3938E+00  0.8241E+01
     10.698  0.4195E+00  0.8287E+01
     10.810  0.4441E+00  0.8336E+01
     10.922  0.4699E+00  0.8387E+01
     11.035  0.4977E+00  0.8442E+01
     11.147  0.5256E+00  0.8499E+01
     11.260  0.5556E+00  0.8560E+01
     11.372  0.5859E+00  0.8624E+01
     11.485  0.6149E+00  0.8691E+01
     11.597  0.6448E+00  0.8762E+01
     11.710  0.6767E+00  0.8837E+01
     11.822  0.7112E+00  0.8915E+01
     11.934  0.7490E+00  0.8997E+01
     12.047  0.7995E+00  0.9083E+01
     12.159  0.8600E+00  0.9177E+01
     12.272  0.9182E+00  0.9277E+01
     12.384  0.9896E+00  0.9384E+01
     12.497  0.1118E+01  0.9501E+01
     12.609  0.1496E+01  0.9643E+01
     12.722  0.1778E+01  0.9846E+01
     12.834  0.1214E+01  0.1001E+02
     12.946  0.1061E+01  0.1014E+02
     13.059  0.6844E+00  0.1024E+02
     13.171  0.5864E+00  0.1031E+02
     13.284  0.4495E+00  0.1036E+02
     13.396  0.4474E+00  0.1041E+02
     13.509  0.7665E+00  0.1047E+02
     13.621  0.1235E+01  0.1059E+02
     13.734  0.9048E+00  0.1070E+02
     13.846  0.9907E+00  0.1081E+02
     13.958  0.1084E+01  0.1093E+02
     14.071  0.1081E+01  0.1105E+02
     14.183  0.1203E+01  0.1118E+02
     14.296  0.1315E+01  0.1132E+02
     14.408  0.1251E+01  0.1146E+02
     14.521  0.1177E+01  0.1160E+02
     14.633  0.1171E+01  0.1173E+02
     14.746  0.1049E+01  0.1186E+02
     14.858  0.8257E+00  0.1196E+02
     14.970  0.7662E+00  0.1205E+02
     15.083  0.7418E+00  0.1214E+02
     15.195  0.8323E+00  0.1222E+02
     15.308  0.7910E+00  0.1232E+02
     15.420  0.9089E+00  0.1241E+02
     15.533  0.7808E+00  0.1250E+02
     15.645  0.7904E+00  0.1259E+02
     15.758  0.8605E+00  0.1268E+02
     15.870  0.8125E+00  0.1278E+02
     15.982  0.8185E+00  0.1287E+02
     16.095  0.8579E+00  0.1296E+02
     16.207  0.9546E+00  0.1307E+02
     16.320  0.9708E+00  0.1317E+02
     16.432  0.9495E+00  0.1328E+02
     16.545  0.9588E+00  0.1339E+02
     16.657  0.9714E+00  0.1350E+02
     16.770  0.8954E+00  0.1360E+02
     16.882  0.8994E+00  0.1370E+02
     16.994  0.9000E+00  0.1381E+02
     17.107  0.8481E+00  0.1390E+02
     17.219  0.8534E+00  0.1400E+02
     17.332  0.7611E+00  0.1409E+02
     17.444  0.6280E+00  0.1417E+02
     17.557  0.6349E+00  0.1424E+02
     17.669  0.6525E+00  0.1431E+02
     17.782  0.6902E+00  0.1439E+02
     17.894  0.9528E+00  0.1447E+02
     18.006  0.7644E+00  0.1457E+02
     18.119  0.7501E+00  0.1465E+02
     18.231  0.7478E+00  0.1473E+02
     18.344  0.7660E+00  0.1482E+02
     18.456  0.8178E+00  0.1491E+02
     18.569  0.8815E+00  0.1500E+02
     18.681  0.9094E+00  0.1511E+02
     18.794  0.9148E+00  0.1521E+02
     18.906  0.6357E+00  0.1530E+02
     19.018  0.4868E+00  0.1536E+02
     19.131  0.4406E+00  0.1541E+02
     19.243  0.4007E+00  0.1546E+02
     19.356  0.3892E+00  0.1550E+02
     19.468  0.3795E+00  0.1555E+02
     19.581  0.3450E+00  0.1559E+02
     19.693  0.3220E+00  0.1562E+02
     19.806  0.2997E+00  0.1566E+02
     19.918  0.2893E+00  0.1569E+02
     20.030  0.2711E+00  0.1572E+02
     20.143  0.2519E+00  0.1575E+02
     20.255  0.2462E+00  0.1578E+02
     20.368  0.2263E+00  0.1581E+02
     20.480  0.2064E+00  0.1583E+02
     20.593  0.1897E+00  0.1585E+02
     20.705  0.1737E+00  0.1588E+02
     20.818  0.1667E+00  0.1589E+02
     20.930  0.1514E+00  0.1591E+02
     21.043  0.1453E+00  0.1593E+02
     21.155  0.1248E+00  0.1594E+02
     21.267  0.1059E+00  0.1596E+02
     21.380  0.9370E-01  0.1597E+02
     21.492  0.8318E-01  0.1598E+02
     21.605  0.7755E-01  0.1599E+02
     21.717  0.4966E-01  0.1599E+02
     21.830  0.3205E-01  0.1600E+02
     21.942  0.0000E+00  0.1600E+02
     22.055  0.0000E+00  0.1600E+02
     22.167  0.0000E+00  0.1600E+02
     22.279  0.0000E+00  0.1600E+02
     22.392  0.0000E+00  0.1600E+02
     22.504  0.0000E+00  0.1600E+02
     22.617  0.0000E+00  0.1600E+02
     22.729  0.0000E+00  0.1600E+02
     22.842  0.0000E+00  0.1600E+02
     22.954  0.0000E+00  0.1600E+02
     23.067  0.0000E+00  0.1600E+02
     23.179  0.0000E+00  0.1600E+02
     23.291  0.0000E+00  0.1600E+02
     23.404  0.0000E+00  0.1600E+02
