    2    2    1    1
  0.1117471E+02  0.3161747E-09  0.3161747E-09  0.3161747E-09  0.0000000E+00
  1.000000000000000E-004
  CAR 
 unknown system                          
      8    455      8
 
  0.0000000E+00  0.0000000E+00  0.0000000E+00  0.6400000E-04
    1       -8.796458   1.000000
    2        8.569490   1.000000
    3        8.569490   1.000000
    4        8.569490   1.000000
    5       12.127135   0.000000
    6       12.127135   0.000000
    7       12.127135   0.000000
    8       15.886665   0.000000
 
  0.4000000E-01  0.0000000E+00  0.0000000E+00  0.5120000E-03
    1       -8.765130   1.000000
    2        8.260086   1.000000
    3        8.500359   1.000000
    4        8.500359   1.000000
    5       12.216574   0.000000
    6       12.216574   0.000000
    7       12.255532   0.000000
    8       15.971065   0.000000
 
  0.8000000E-01  0.0000000E+00  0.0000000E+00  0.5120000E-03
    1       -8.671208   1.000000
    2        7.492555   1.000000
    3        8.315486   1.000000
    4        8.315486   1.000000
    5       12.457042   0.000000
    6       12.457042   0.000000
    7       12.495254   0.000000
    8       16.213582   0.000000
 
  0.1200000E+00  0.0000000E+00  0.0000000E+00  0.5120000E-03
    1       -8.515175   1.000000
    2        6.499615   1.000000
    3        8.061696   1.000000
    4        8.061696   1.000000
    5       12.672648   0.000000
    6       12.785278   0.000000
    7       12.785278   0.000000
    8       16.572509   0.000000
 
  0.1600000E+00  0.0000000E+00  0.0000000E+00  0.5120000E-03
    1       -8.297795   1.000000
    2        5.413200   1.000000
    3        7.780803   1.000000
    4        7.780803   1.000000
    5       12.752026   0.000000
    6       13.131718   0.000000
    7       13.131718   0.000000
    8       16.980572   0.000000
 
  0.2000000E+00  0.0000000E+00  0.0000000E+00  0.5120000E-03
    1       -8.020428   1.000000
    2        4.299809   1.000000
    3        7.500897   1.000000
    4        7.500897   1.000000
    5       12.761553   0.000000
    6       13.433394   0.000000
    7       13.433394   0.000000
    8       17.370443   0.000000
 
  0.2400000E+00  0.0000000E+00  0.0000000E+00  0.5120000E-03
    1       -7.685260   1.000000
    2        3.196250   1.000000
    3        7.239055   1.000000
    4        7.239055   1.000000
    5       12.733892   0.000000
    6       13.643547   0.000000
    7       13.643547   0.000000
    8       17.682113   0.000000
 
  0.2800000E+00  0.0000000E+00  0.0000000E+00  0.5120000E-03
    1       -7.295965   1.000000
    2        2.126427   1.000000
    3        7.005286   1.000000
    4        7.005286   1.000000
    5       12.691370   0.000000
    6       13.745247   0.000000
    7       13.745248   0.000000
    8       17.869825   0.000000
 
  0.3200000E+00  0.0000000E+00  0.0000000E+00  0.5120000E-03
    1       -6.859001   1.000000
    2        1.109369   1.000000
    3        6.805557   1.000000
    4        6.805557   1.000000
    5       12.647109   0.000000
    6       13.755283   0.000000
    7       13.755283   0.000000
    8       17.927711   0.000000
 
  0.3600000E+00  0.0000000E+00  0.0000000E+00  0.5120000E-03
    1       -6.386412   1.000000
    2        0.165260   1.000000
    3        6.643290   1.000000
    4        6.643290   1.000000
    5       12.608066   0.000000
    6       13.709326   0.000000
    7       13.709326   0.000000
    8       17.895518   0.000000
 
  0.4000000E+00  0.0000000E+00  0.0000000E+00  0.5120000E-03
    1       -5.902713   1.000000
    2       -0.676025   1.000000
    3        6.520447   1.000000
    4        6.520447   1.000000
    5       12.577626   0.000000
    6       13.643621   0.000000
    7       13.643621   0.000000
    8       17.826440   0.000000
 
  0.4400000E+00  0.0000000E+00  0.0000000E+00  0.5120000E-03
    1       -5.460970   1.000000
    2       -1.357899   1.000000
    3        6.438122   1.000000
    4        6.438122   1.000000
    5       12.557136   0.000000
    6       13.585656   0.000000
    7       13.585656   0.000000
    8       17.760977   0.000000
 
  0.4800000E+00  0.0000000E+00  0.0000000E+00  0.5120000E-03
    1       -5.170563   1.000000
    2       -1.768880   1.000000
    3        6.396851   1.000000
    4        6.396851   1.000000
    5       12.546864   0.000000
    6       13.552631   0.000000
    7       13.552631   0.000000
    8       17.722942   0.000000
 
  0.4000000E-01  0.4000000E-01  0.0000000E+00  0.3840000E-03
    1       -8.754677   1.000000
    2        8.349175   1.000000
    3        8.349175   1.000000
    4        8.417922   1.000000
    5       12.009388   0.000000
    6       12.392418   0.000000
    7       12.392418   0.000000
    8       15.989532   0.000000
 
  0.8000000E-01  0.4000000E-01  0.0000000E+00  0.1536000E-02
    1       -8.681597   1.000000
    2        7.751067   1.000000
    3        8.106703   1.000000
    4        8.365610   1.000000
    5       12.003855   0.000000
    6       12.680626   0.000000
    7       12.697067   0.000000
    8       16.152657   0.000000
 
  0.1200000E+00  0.4000000E-01  0.0000000E+00  0.1536000E-02
    1       -8.546260   1.000000
    2        6.832571   1.000000
    3        7.819701   1.000000
    4        8.212365   1.000000
    5       12.169146   0.000000
    6       12.938574   0.000000
    7       13.069107   0.000000
    8       16.431288   0.000000
 
  0.1600000E+00  0.4000000E-01  0.0000000E+00  0.1536000E-02
    1       -8.349276   1.000000
    2        5.779899   1.000000
    3        7.523582   1.000000
    4        7.977859   1.000000
    5       12.408594   0.000000
    6       13.116380   0.000000
    7       13.447324   0.000000
    8       16.759546   0.000000
 
  0.2000000E+00  0.4000000E-01  0.0000000E+00  0.1536000E-02
    1       -8.091826   1.000000
    2        4.678298   1.000000
    3        7.240941   1.000000
    4        7.705931   1.000000
    5       12.613317   0.000000
    6       13.259717   0.000000
    7       13.774119   0.000000
    8       17.069747   0.000000
 
  0.2400000E+00  0.4000000E-01  0.0000000E+00  0.1536000E-02
    1       -7.775738   1.000000
    2        3.573658   1.000000
    3        6.985517   1.000000
    4        7.426879   1.000000
    5       12.716040   0.000000
    6       13.402927   0.000000
    7       14.002378   0.000000
    8       17.336710   0.000000
 
  0.2800000E+00  0.4000000E-01  0.0000000E+00  0.1536000E-02
    1       -7.404145   1.000000
    2        2.494127   1.000000
    3        6.765522   1.000000
    4        7.159153   1.000000
    5       12.736664   0.000000
    6       13.511625   0.000000
    7       14.110076   0.000000
    8       17.570754   0.000000
 
  0.3200000E+00  0.4000000E-01  0.0000000E+00  0.1536000E-02
    1       -6.982334   1.000000
    2        1.460175   1.000000
    3        6.585772   1.000000
    4        6.913830   1.000000
    5       12.719841   0.000000
    6       13.555703   0.000000
    7       14.109005   0.000000
    8       17.760617   0.000000
 
  0.3600000E+00  0.4000000E-01  0.0000000E+00  0.1536000E-02
    1       -6.520046   1.000000
    2        0.491261   1.000000
    3        6.448923   1.000000
    4        6.697661   1.000000
    5       12.692002   0.000000
    6       13.547470   0.000000
    7       14.034156   0.000000
    8       17.871605   0.000000
 
  0.4000000E+00  0.4000000E-01  0.0000000E+00  0.1536000E-02
    1       -6.036450   1.000000
    2       -0.387110   1.000000
    3        6.356235   1.000000
    4        6.515036   1.000000
    5       12.665882   0.000000
    6       13.517275   0.000000
    7       13.924599   0.000000
    8       17.903065   0.000000
 
  0.4400000E+00  0.4000000E-01  0.0000000E+00  0.1536000E-02
    1       -5.572413   1.000000
    2       -1.129888   1.000000
    3        6.307991   1.000000
    4        6.368997   1.000000
    5       12.647549   0.000000
    6       13.492578   0.000000
    7       13.811774   0.000000
    8       17.891284   0.000000
 
  0.4800000E+00  0.4000000E-01  0.0000000E+00  0.1536000E-02
    1       -5.215805   1.000000
    2       -1.646614   1.000000
    3        6.261788   1.000000
    4        6.303817   1.000000
    5       12.639623   0.000000
    6       13.491835   0.000000
    7       13.716702   0.000000
    8       17.873326   0.000000
 
 -0.4800000E+00  0.4000000E-01  0.0000000E+00  0.1536000E-02
    1       -5.108541   1.000000
    2       -1.793973   1.000000
    3        6.195232   1.000000
    4        6.342838   1.000000
    5       12.642590   0.000000
    6       13.525063   0.000000
    7       13.650926   0.000000
    8       17.870799   0.000000
 
 -0.4400000E+00  0.4000000E-01  0.0000000E+00  0.1536000E-02
    1       -5.314598   1.000000
    2       -1.507634   1.000000
    3        6.170783   1.000000
    4        6.423828   1.000000
    5       12.655933   0.000000
    6       13.594942   0.000000
    7       13.617799   0.000000
    8       17.889544   0.000000
 
 -0.4000000E+00  0.4000000E-01  0.0000000E+00  0.1536000E-02
    1       -5.720948   1.000000
    2       -0.901319   1.000000
    3        6.189618   1.000000
    4        6.545177   1.000000
    5       12.678680   0.000000
    6       13.612702   0.000000
    7       13.696712   0.000000
    8       17.920706   0.000000
 
 -0.3600000E+00  0.4000000E-01  0.0000000E+00  0.1536000E-02
    1       -6.198267   1.000000
    2       -0.106136   1.000000
    3        6.252498   1.000000
    4        6.704906   1.000000
    5       12.709826   0.000000
    6       13.622257   0.000000
    7       13.816892   0.000000
    8       17.940298   0.000000
 
 -0.3200000E+00  0.4000000E-01  0.0000000E+00  0.1536000E-02
    1       -6.677851   1.000000
    2        0.806140   1.000000
    3        6.359680   1.000000
    4        6.900444   1.000000
    5       12.747782   0.000000
    6       13.623099   0.000000
    7       13.931260   0.000000
    8       17.911275   0.000000
 
 -0.2800000E+00  0.4000000E-01  0.0000000E+00  0.1536000E-02
    1       -7.128124   1.000000
    2        1.799110   1.000000
    3        6.510729   1.000000
    4        7.128232   1.000000
    5       12.789212   0.000000
    6       13.582632   0.000000
    7       14.003752   0.000000
    8       17.799441   0.000000
 
 -0.2400000E+00  0.4000000E-01  0.0000000E+00  0.1536000E-02
    1       -7.533997   1.000000
    2        2.850313   1.000000
    3        6.704155   1.000000
    4        7.383034   1.000000
    5       12.827182   0.000000
    6       13.466842   0.000000
    7       13.991339   0.000000
    8       17.600970   0.000000
 
 -0.2000000E+00  0.4000000E-01  0.0000000E+00  0.1536000E-02
    1       -7.887514   1.000000
    2        3.940509   1.000000
    3        6.936999   1.000000
    4        7.656583   1.000000
    5       12.848202   0.000000
    6       13.257730   0.000000
    7       13.861862   0.000000
    8       17.338971   0.000000
 
 -0.1600000E+00  0.4000000E-01  0.0000000E+00  0.1536000E-02
    1       -8.184319   1.000000
    2        5.047203   1.000000
    3        7.203983   1.000000
    4        7.935374   1.000000
    5       12.828232   0.000000
    6       12.970447   0.000000
    7       13.618637   0.000000
    8       17.029832   0.000000
 
 -0.1200000E+00  0.4000000E-01  0.0000000E+00  0.1536000E-02
    1       -8.421760   1.000000
    2        6.136886   1.000000
    3        7.496513   1.000000
    4        8.197255   1.000000
    5       12.653682   0.000000
    6       12.732248   0.000000
    7       13.303607   0.000000
    8       16.688007   0.000000
 
 -0.8000000E-01  0.4000000E-01  0.0000000E+00  0.1536000E-02
    1       -8.598287   1.000000
    2        7.149588   1.000000
    3        7.802442   1.000000
    4        8.407471   1.000000
    5       12.376506   0.000000
    6       12.543263   0.000000
    7       12.958889   0.000000
    8       16.355745   0.000000
 
 -0.4000000E-01  0.4000000E-01  0.0000000E+00  0.7680000E-03
    1       -8.712914   1.000000
    2        7.938116   1.000000
    3        8.134854   1.000000
    4        8.520605   1.000000
    5       12.212786   0.000000
    6       12.330015   0.000000
    7       12.587280   0.000000
    8       16.099299   0.000000
 
  0.8000000E-01  0.8000000E-01  0.0000000E+00  0.3840000E-03
    1       -8.629413   1.000000
    2        7.826160   1.000000
    3        7.826160   1.000000
    4        7.988128   1.000000
    5       11.710033   0.000000
    6       13.049232   0.000000
    7       13.049232   0.000000
    8       16.177677   0.000000
 
  0.1200000E+00  0.8000000E-01  0.0000000E+00  0.1536000E-02
    1       -8.514874   1.000000
    2        7.099771   1.000000
    3        7.516555   1.000000
    4        7.919280   1.000000
    5       11.649990   0.000000
    6       13.402794   0.000000
    7       13.458450   0.000000
    8       16.274438   0.000000
 
  0.1600000E+00  0.8000000E-01  0.0000000E+00  0.1536000E-02
    1       -8.338509   1.000000
    2        6.121307   1.000000
    3        7.208278   1.000000
    4        7.779005   1.000000
    5       11.784578   0.000000
    6       13.637032   0.000000
    7       13.870653   0.000000
    8       16.391420   0.000000
 
  0.2000000E+00  0.8000000E-01  0.0000000E+00  0.1536000E-02
    1       -8.101325   1.000000
    2        5.057056   1.000000
    3        6.920801   1.000000
    4        7.549410   1.000000
    5       12.018196   0.000000
    6       13.761211   0.000000
    7       14.232370   0.000000
    8       16.480028   0.000000
 
  0.2400000E+00  0.8000000E-01  0.0000000E+00  0.1536000E-02
    1       -7.804881   1.000000
    2        3.968406   1.000000
    3        6.666186   1.000000
    4        7.274856   1.000000
    5       12.252992   0.000000
    6       13.821149   0.000000
    7       14.494980   0.000000
    8       16.572522   0.000000
 
  0.2800000E+00  0.8000000E-01  0.0000000E+00  0.1536000E-02
    1       -7.451846   1.000000
    2        2.891254   1.000000
    3        6.451885   1.000000
    4        6.987253   1.000000
    5       12.423563   0.000000
    6       13.842866   0.000000
    7       14.629237   0.000000
    8       16.750351   0.000000
 
  0.3200000E+00  0.8000000E-01  0.0000000E+00  0.1536000E-02
    1       -7.046633   1.000000
    2        1.849772   1.000000
    3        6.282414   1.000000
    4        6.706314   1.000000
    5       12.515336   0.000000
    6       13.830529   0.000000
    7       14.638753   0.000000
    8       17.050054   0.000000
 
  0.3600000E+00  0.8000000E-01  0.0000000E+00  0.1536000E-02
    1       -6.597199   1.000000
    2        0.864262   1.000000
    3        6.160284   1.000000
    4        6.444289   1.000000
    5       12.551619   0.000000
    6       13.791312   0.000000
    7       14.555214   0.000000
    8       17.424364   0.000000
 
  0.4000000E+00  0.8000000E-01  0.0000000E+00  0.1536000E-02
    1       -6.118724   1.000000
    2       -0.042120   1.000000
    3        6.086673   1.000000
    4        6.209116   1.000000
    5       12.564154   0.000000
    6       13.742013   0.000000
    7       14.419430   0.000000
    8       17.774669   0.000000
 
  0.4400000E+00  0.8000000E-01  0.0000000E+00  0.1536000E-02
    1       -5.642816   1.000000
    2       -0.832530   1.000000
    3        6.006470   1.000000
    4        6.061697   1.000000
    5       12.577431   0.000000
    6       13.699347   0.000000
    7       14.266582   0.000000
    8       18.022776   0.000000
 
  0.4800000E+00  0.8000000E-01  0.0000000E+00  0.1536000E-02
    1       -5.238150   1.000000
    2       -1.435006   1.000000
    3        5.840607   1.000000
    4        6.084697   1.000000
    5       12.605941   0.000000
    6       13.675203   0.000000
    7       14.121409   0.000000
    8       18.162825   0.000000
 
 -0.4800000E+00  0.8000000E-01  0.0000000E+00  0.1536000E-02
    1       -5.033410   1.000000
    2       -1.718910   1.000000
    3        5.714968   1.000000
    4        6.154322   1.000000
    5       12.655295   0.000000
    6       13.677990   0.000000
    7       13.998682   0.000000
    8       18.231560   0.000000
 
 -0.4400000E+00  0.8000000E-01  0.0000000E+00  0.1536000E-02
    1       -5.140561   1.000000
    2       -1.571585   1.000000
    3        5.632352   1.000000
    4        6.268603   1.000000
    5       12.723544   0.000000
    6       13.714612   0.000000
    7       13.904653   0.000000
    8       18.256189   0.000000
 
 -0.4000000E+00  0.8000000E-01  0.0000000E+00  0.1536000E-02
    1       -5.495897   1.000000
    2       -1.057069   1.000000
    3        5.595060   1.000000
    4        6.424910   1.000000
    5       12.803236   0.000000
    6       13.790165   0.000000
    7       13.837641   0.000000
    8       18.236674   0.000000
 
 -0.3600000E+00  0.8000000E-01  0.0000000E+00  0.1536000E-02
    1       -5.958469   1.000000
    2       -0.317877   1.000000
    3        5.604836   1.000000
    4        6.619908   1.000000
    5       12.884752   0.000000
    6       13.787485   0.000000
    7       13.903880   0.000000
    8       18.149280   0.000000
 
 -0.3200000E+00  0.8000000E-01  0.0000000E+00  0.1536000E-02
    1       -6.440768   1.000000
    2        0.555657   1.000000
    3        5.662912   1.000000
    4        6.849355   1.000000
    5       12.960343   0.000000
    6       13.734508   0.000000
    7       14.042564   0.000000
    8       17.966012   0.000000
 
 -0.2800000E+00  0.8000000E-01  0.0000000E+00  0.1536000E-02
    1       -6.902002   1.000000
    2        1.518035   1.000000
    3        5.769918   1.000000
    4        7.107573   1.000000
    5       13.024829   0.000000
    6       13.649876   0.000000
    7       14.174262   0.000000
    8       17.691923   0.000000
 
 -0.2400000E+00  0.8000000E-01  0.0000000E+00  0.1536000E-02
    1       -7.322949   1.000000
    2        2.542803   1.000000
    3        5.925904   1.000000
    4        7.386664   1.000000
    5       13.072210   0.000000
    6       13.502717   0.000000
    7       14.246839   0.000000
    8       17.385091   0.000000
 
 -0.2000000E+00  0.8000000E-01  0.0000000E+00  0.1536000E-02
    1       -7.693879   1.000000
    2        3.608452   1.000000
    3        6.130407   1.000000
    4        7.674861   1.000000
    5       13.090315   0.000000
    6       13.277274   0.000000
    7       14.202070   0.000000
    8       17.120522   0.000000
 
 -0.1600000E+00  0.8000000E-01  0.0000000E+00  0.1536000E-02
    1       -8.009428   1.000000
    2        4.689737   1.000000
    3        6.383681   1.000000
    4        7.954010   1.000000
    5       12.991210   0.000000
    6       13.056493   0.000000
    7       14.017618   0.000000
    8       16.923243   0.000000
 
 -0.1200000E+00  0.8000000E-01  0.0000000E+00  0.1536000E-02
    1       -8.266478   1.000000
    2        5.742448   1.000000
    3        6.693359   1.000000
    4        8.196032   1.000000
    5       12.697435   0.000000
    6       12.941391   0.000000
    7       13.730932   0.000000
    8       16.747660   0.000000
 
 -0.8000000E-01  0.8000000E-01  0.0000000E+00  0.7680000E-03
    1       -8.463152   1.000000
    2        6.635454   1.000000
    3        7.129753   1.000000
    4        8.361231   1.000000
    5       12.469042   0.000000
    6       12.743994   0.000000
    7       13.381898   0.000000
    8       16.551088   0.000000
 
  0.1200000E+00  0.1200000E+00  0.0000000E+00  0.3840000E-03
    1       -8.421144   1.000000
    2        7.191747   1.000000
    3        7.191747   1.000000
    4        7.338592   1.000000
    5       11.325529   0.000000
    6       13.903000   0.000000
    7       13.903000   0.000000
    8       16.105330   0.000000
 
  0.1600000E+00  0.1200000E+00  0.0000000E+00  0.1536000E-02
    1       -8.265532   1.000000
    2        6.393176   1.000000
    3        6.873128   1.000000
    4        7.269443   1.000000
    5       11.250095   0.000000
    6       14.276888   0.000000
    7       14.353693   0.000000
    8       15.935809   0.000000
 
  0.2000000E+00  0.1200000E+00  0.0000000E+00  0.1536000E-02
    1       -8.048845   1.000000
    2        5.402118   1.000000
    3        6.578836   1.000000
    4        7.123860   1.000000
    5       11.380655   0.000000
    6       14.474739   0.000000
    7       14.760045   0.000000
    8       15.792125   0.000000
 
  0.2400000E+00  0.1200000E+00  0.0000000E+00  0.1536000E-02
    1       -7.772463   1.000000
    2        4.354894   1.000000
    3        6.320412   1.000000
    4        6.882850   1.000000
    5       11.615398   0.000000
    6       14.545046   0.000000
    7       15.072089   0.000000
    8       15.719924   0.000000
 
  0.2800000E+00  0.1200000E+00  0.0000000E+00  0.1536000E-02
    1       -7.438670   1.000000
    2        3.298345   1.000000
    3        6.105150   1.000000
    4        6.593200   1.000000
    5       11.849547   0.000000
    6       14.552073   0.000000
    7       15.252668   0.000000
    8       15.784194   0.000000
 
  0.3200000E+00  0.1200000E+00  0.0000000E+00  0.1536000E-02
    1       -7.051187   1.000000
    2        2.263018   1.000000
    3        5.937649   1.000000
    4        6.288388   1.000000
    5       12.016609   0.000000
    6       14.523359   0.000000
    7       15.294667   0.000000
    8       16.043276   0.000000
 
  0.3600000E+00  0.1200000E+00  0.0000000E+00  0.1536000E-02
    1       -6.616623   1.000000
    2        1.271994   1.000000
    3        5.820604   1.000000
    4        5.989414   1.000000
    5       12.108208   0.000000
    6       14.469799   0.000000
    7       15.223495   0.000000
    8       16.494616   0.000000
 
  0.4000000E+00  0.1200000E+00  0.0000000E+00  0.1536000E-02
    1       -6.147163   1.000000
    2        0.348155   1.000000
    3        5.709659   1.000000
    4        5.755354   1.000000
    5       12.155158   0.000000
    6       14.406220   0.000000
    7       15.080352   0.000000
    8       17.069329   0.000000
 
  0.4400000E+00  0.1200000E+00  0.0000000E+00  0.1536000E-02
    1       -5.667521   1.000000
    2       -0.476927   1.000000
    3        5.458193   1.000000
    4        5.742194   1.000000
    5       12.193594   0.000000
    6       14.345596   0.000000
    7       14.904106   0.000000
    8       17.666974   0.000000
 
  0.4800000E+00  0.1200000E+00  0.0000000E+00  0.1536000E-02
    1       -5.230792   1.000000
    2       -1.145657   1.000000
    3        5.241657   1.000000
    4        5.780532   1.000000
    5       12.248791   0.000000
    6       14.296101   0.000000
    7       14.723466   0.000000
    8       18.176892   0.000000
 
 -0.4800000E+00  0.1200000E+00  0.0000000E+00  0.1536000E-02
    1       -4.945242   1.000000
    2       -1.547149   1.000000
    3        5.065131   1.000000
    4        5.868964   1.000000
    5       12.334222   0.000000
    6       14.263146   0.000000
    7       14.556433   0.000000
    8       18.514819   0.000000
 
 -0.4400000E+00  0.1200000E+00  0.0000000E+00  0.1536000E-02
    1       -4.946601   1.000000
    2       -1.544402   1.000000
    3        4.932645   1.000000
    4        6.005267   1.000000
    5       12.454079   0.000000
    6       14.251062   0.000000
    7       14.411804   0.000000
    8       18.662018   0.000000
 
 -0.4000000E+00  0.1200000E+00  0.0000000E+00  0.1536000E-02
    1       -5.233920   1.000000
    2       -1.138394   1.000000
    3        4.847438   1.000000
    4        6.186382   1.000000
    5       12.605235   0.000000
    6       14.264176   0.000000
    7       14.290152   0.000000
    8       18.632890   0.000000
 
 -0.3600000E+00  0.1200000E+00  0.0000000E+00  0.1536000E-02
    1       -5.671117   1.000000
    2       -0.466577   1.000000
    3        4.812105   1.000000
    4        6.408137   1.000000
    5       12.777731   0.000000
    6       14.183501   0.000000
    7       14.306505   0.000000
    8       18.432875   0.000000
 
 -0.3200000E+00  0.1200000E+00  0.0000000E+00  0.1536000E-02
    1       -6.150588   1.000000
    2        0.360581   1.000000
    3        4.828775   1.000000
    4        6.664981   1.000000
    5       12.955241   0.000000
    6       14.074505   0.000000
    7       14.379066   0.000000
    8       18.079057   0.000000
 
 -0.2800000E+00  0.1200000E+00  0.0000000E+00  0.1536000E-02
    1       -6.619648   1.000000
    2        1.285238   1.000000
    3        4.899332   1.000000
    4        6.949395   1.000000
    5       13.116889   0.000000
    6       13.937051   0.000000
    7       14.471551   0.000000
    8       17.631980   0.000000
 
 -0.2400000E+00  0.1200000E+00  0.0000000E+00  0.1536000E-02
    1       -7.053752   1.000000
    2        2.274188   1.000000
    3        5.026162   1.000000
    4        7.250797   1.000000
    5       13.240932   0.000000
    6       13.743688   0.000000
    7       14.546299   0.000000
    8       17.190423   0.000000
 
 -0.2000000E+00  0.1200000E+00  0.0000000E+00  0.1536000E-02
    1       -7.440782   1.000000
    2        3.299094   1.000000
    3        5.214613   1.000000
    4        7.553870   1.000000
    5       13.306371   0.000000
    6       13.483593   0.000000
    7       14.528967   0.000000
    8       16.869343   0.000000
 
 -0.1600000E+00  0.1200000E+00  0.0000000E+00  0.1536000E-02
    1       -7.774160   1.000000
    2        4.315576   1.000000
    3        5.484654   1.000000
    4        7.835808   1.000000
    5       13.180778   0.000000
    6       13.288217   0.000000
    7       14.359899   0.000000
    8       16.739113   0.000000
 
 -0.1200000E+00  0.1200000E+00  0.0000000E+00  0.7680000E-03
    1       -8.050149   1.000000
    2        5.193460   1.000000
    3        5.932480   1.000000
    4        8.063680   1.000000
    5       12.893942   0.000000
    6       13.160991   0.000000
    7       14.075613   0.000000
    8       16.740935   0.000000
 
  0.1600000E+00  0.1600000E+00  0.0000000E+00  0.3840000E-03
    1       -8.130674   1.000000
    2        6.531431   1.000000
    3        6.545296   1.000000
    4        6.545296   1.000000
    5       10.925138   0.000000
    6       14.850103   0.000000
    7       14.850103   0.000000
    8       15.475152   0.000000
 
  0.2000000E+00  0.1600000E+00  0.0000000E+00  0.1536000E-02
    1       -7.934623   1.000000
    2        5.655264   1.000000
    3        6.242769   1.000000
    4        6.521092   1.000000
    5       10.856128   0.000000
    6       15.012897   0.000000
    7       15.311748   0.000000
    8       15.316262   0.000000
 
  0.2400000E+00  0.1600000E+00  0.0000000E+00  0.1536000E-02
    1       -7.678608   1.000000
    2        4.685668   1.000000
    3        5.977248   1.000000
    4        6.352069   1.000000
    5       10.995032   0.000000
    6       14.736206   0.000000
    7       15.530844   0.000000
    8       15.687988   0.000000
 
  0.2800000E+00  0.1600000E+00  0.0000000E+00  0.1536000E-02
    1       -7.364571   1.000000
    2        3.678802   1.000000
    3        5.756267   1.000000
    4        6.083946   1.000000
    5       11.230689   0.000000
    6       14.608368   0.000000
    7       15.637591   0.000000
    8       15.934324   0.000000
 
  0.3200000E+00  0.1600000E+00  0.0000000E+00  0.1536000E-02
    1       -6.995741   1.000000
    2        2.671786   1.000000
    3        5.584700   1.000000
    4        5.767843   1.000000
    5       11.450345   0.000000
    6       14.678344   0.000000
    7       15.700887   0.000000
    8       16.031065   0.000000
 
  0.3600000E+00  0.1600000E+00  0.0000000E+00  0.1536000E-02
    1       -6.577650   1.000000
    2        1.692579   1.000000
    3        5.439082   1.000000
    4        5.465540   1.000000
    5       11.594717   0.000000
    6       14.888219   0.000000
    7       15.835834   0.000000
    8       15.993939   0.000000
 
  0.4000000E+00  0.1600000E+00  0.0000000E+00  0.1536000E-02
    1       -6.120277   1.000000
    2        0.765936   1.000000
    3        5.119768   1.000000
    4        5.400391   1.000000
    5       11.674523   0.000000
    6       15.049974   0.000000
    7       15.862399   0.000000
    8       16.209808   0.000000
 
  0.4400000E+00  0.1600000E+00  0.0000000E+00  0.1536000E-02
    1       -5.643218   1.000000
    2       -0.078912   1.000000
    3        4.824070   1.000000
    4        5.389801   1.000000
    5       11.731105   0.000000
    6       15.087753   0.000000
    7       15.678874   0.000000
    8       16.836046   0.000000
 
  0.4800000E+00  0.1600000E+00  0.0000000E+00  0.1536000E-02
    1       -5.187649   1.000000
    2       -0.794402   1.000000
    3        4.561578   1.000000
    4        5.433413   1.000000
    5       11.799084   0.000000
    6       15.068727   0.000000
    7       15.476640   0.000000
    8       17.571859   0.000000
 
 -0.4800000E+00  0.1600000E+00  0.0000000E+00  0.1536000E-02
    1       -4.840754   1.000000
    2       -1.289562   1.000000
    3        4.339216   1.000000
    4        5.529923   1.000000
    5       11.898372   0.000000
    6       15.035939   0.000000
    7       15.277352   0.000000
    8       18.275237   0.000000
 
 -0.4400000E+00  0.1600000E+00  0.0000000E+00  0.1536000E-02
    1       -4.739634   1.000000
    2       -1.425139   1.000000
    3        4.162271   1.000000
    4        5.677228   1.000000
    5       12.037756   0.000000
    6       15.007181   0.000000
    7       15.092360   0.000000
    8       18.777499   0.000000
 
 -0.4000000E+00  0.1600000E+00  0.0000000E+00  0.1536000E-02
    1       -4.943217   1.000000
    2       -1.141868   1.000000
    3        4.034895   1.000000
    4        5.872139   1.000000
    5       12.218475   0.000000
    6       14.923841   0.000000
    7       14.991083   0.000000
    8       18.909779   0.000000
 