       N       E                     dE             d eps       ncg     rms          rms(c)
DAV:   1     0.112406449706E+02    0.11241E+02   -0.42367E+03  7288   0.897E+02
DAV:   2    -0.116422016230E+02   -0.22883E+02   -0.22377E+02 11048   0.113E+02
DAV:   3    -0.118568866207E+02   -0.21468E+00   -0.21468E+00  8464   0.133E+01
DAV:   4    -0.118570483995E+02   -0.16178E-03   -0.16178E-03 11088   0.380E-01
DAV:   5    -0.118570484321E+02   -0.32607E-07   -0.32607E-07  8440   0.403E-03    0.512E+00
RMM:   6    -0.108303818203E+02    0.10267E+01   -0.10889E+00  7362   0.766E+00    0.205E+00
RMM:   7    -0.107062240019E+02    0.12416E+00   -0.23142E-01  7800   0.346E+00    0.763E-01
RMM:   8    -0.106965548013E+02    0.96692E-02   -0.24071E-02  8176   0.120E+00    0.868E-02
RMM:   9    -0.106967871853E+02   -0.23238E-03   -0.20953E-04  8632   0.130E-01    0.480E-02
RMM:  10    -0.106968950022E+02   -0.10782E-03   -0.18780E-04  8082   0.117E-01    0.822E-03
RMM:  11    -0.106968948289E+02    0.17324E-06   -0.14784E-05  8368   0.266E-02    0.770E-03
RMM:  12    -0.106968919494E+02    0.28796E-05   -0.29907E-06  7856   0.131E-02    0.490E-04
RMM:  13    -0.106968919588E+02   -0.94425E-08   -0.11927E-07  5007   0.263E-03
   1 F= -.10696892E+02 E0= -.10696892E+02  d E =0.000000E+00
