unknown system                          
            1
    -1.421162    1.421162    1.421162
     1.421162   -1.421162    1.421162
     1.421162    1.421162   -1.421162
   Fe
     1
Direct configuration=     1
   0.00000000  0.00000000  0.00000000
