   2   2   0   0
  0.1452713E+02  0.3450708E-09  0.3450708E-09  0.3450708E-09  0.0000000E+00
  1.000000000000000E-004
  CAR 
 unknown system                          
     17.47456623    -10.61115345  301      5.49717702      1.00000000
    -10.611  0.0000E+00  0.0000E+00
    -10.518  0.0000E+00  0.0000E+00
    -10.424  0.0000E+00  0.0000E+00
    -10.330  0.0000E+00  0.0000E+00
    -10.237  0.0000E+00  0.0000E+00
    -10.143  0.0000E+00  0.0000E+00
    -10.049  0.0000E+00  0.0000E+00
     -9.956  0.0000E+00  0.0000E+00
     -9.862  0.0000E+00  0.0000E+00
     -9.769  0.0000E+00  0.0000E+00
     -9.675  0.0000E+00  0.0000E+00
     -9.581  0.0000E+00  0.0000E+00
     -9.488  0.0000E+00  0.0000E+00
     -9.394  0.0000E+00  0.0000E+00
     -9.300  0.4381E-01  0.7124E-03
     -9.207  0.9027E-01  0.7229E-02
     -9.113  0.1238E+00  0.1745E-01
     -9.020  0.1519E+00  0.3028E-01
     -8.926  0.1717E+00  0.4541E-01
     -8.832  0.1941E+00  0.6255E-01
     -8.739  0.2114E+00  0.8151E-01
     -8.645  0.2310E+00  0.1022E+00
     -8.552  0.2469E+00  0.1246E+00
     -8.458  0.2639E+00  0.1485E+00
     -8.364  0.2809E+00  0.1740E+00
     -8.271  0.2962E+00  0.2010E+00
     -8.177  0.3126E+00  0.2295E+00
     -8.083  0.3290E+00  0.2595E+00
     -7.990  0.3447E+00  0.2911E+00
     -7.896  0.3613E+00  0.3241E+00
     -7.803  0.3788E+00  0.3588E+00
     -7.709  0.3958E+00  0.3950E+00
     -7.615  0.4140E+00  0.4329E+00
     -7.522  0.4334E+00  0.4726E+00
     -7.428  0.4538E+00  0.5141E+00
     -7.334  0.4759E+00  0.5576E+00
     -7.241  0.5001E+00  0.6033E+00
     -7.147  0.5266E+00  0.6513E+00
     -7.054  0.5583E+00  0.7020E+00
     -6.960  0.5956E+00  0.7560E+00
     -6.866  0.6422E+00  0.8139E+00
     -6.773  0.7092E+00  0.8768E+00
     -6.679  0.8545E+00  0.9493E+00
     -6.586  0.8570E+00  0.1031E+01
     -6.492  0.8314E+00  0.1110E+01
     -6.398  0.8248E+00  0.1188E+01
     -6.305  0.8096E+00  0.1264E+01
     -6.211  0.7907E+00  0.1339E+01
     -6.117  0.7841E+00  0.1413E+01
     -6.024  0.7721E+00  0.1485E+01
     -5.930  0.7631E+00  0.1557E+01
     -5.837  0.7647E+00  0.1629E+01
     -5.743  0.7667E+00  0.1700E+01
     -5.649  0.7882E+00  0.1773E+01
     -5.556  0.8530E+00  0.1849E+01
     -5.462  0.1114E+01  0.1938E+01
     -5.368  0.2012E+00  0.1996E+01
     -5.275  0.0000E+00  0.2000E+01
     -5.181  0.0000E+00  0.2000E+01
     -5.088  0.0000E+00  0.2000E+01
     -4.994  0.0000E+00  0.2000E+01
     -4.900  0.0000E+00  0.2000E+01
     -4.807  0.0000E+00  0.2000E+01
     -4.713  0.0000E+00  0.2000E+01
     -4.620  0.0000E+00  0.2000E+01
     -4.526  0.0000E+00  0.2000E+01
     -4.432  0.0000E+00  0.2000E+01
     -4.339  0.0000E+00  0.2000E+01
     -4.245  0.0000E+00  0.2000E+01
     -4.151  0.0000E+00  0.2000E+01
     -4.058  0.0000E+00  0.2000E+01
     -3.964  0.0000E+00  0.2000E+01
     -3.871  0.0000E+00  0.2000E+01
     -3.777  0.0000E+00  0.2000E+01
     -3.683  0.0000E+00  0.2000E+01
     -3.590  0.0000E+00  0.2000E+01
     -3.496  0.0000E+00  0.2000E+01
     -3.402  0.0000E+00  0.2000E+01
     -3.309  0.0000E+00  0.2000E+01
     -3.215  0.0000E+00  0.2000E+01
     -3.122  0.0000E+00  0.2000E+01
     -3.028  0.0000E+00  0.2000E+01
     -2.934  0.0000E+00  0.2000E+01
     -2.841  0.0000E+00  0.2000E+01
     -2.747  0.1903E+00  0.2009E+01
     -2.654  0.3137E+00  0.2029E+01
     -2.560  0.5303E+00  0.2071E+01
     -2.466  0.7697E+00  0.2132E+01
     -2.373  0.1071E+01  0.2218E+01
     -2.279  0.1836E+01  0.2348E+01
     -2.185  0.1866E+01  0.2560E+01
     -2.092  0.1196E+01  0.2695E+01
     -1.998  0.9330E+00  0.2793E+01
     -1.905  0.8025E+00  0.2874E+01
     -1.811  0.6861E+00  0.2943E+01
     -1.717  0.6266E+00  0.3005E+01
     -1.624  0.5705E+00  0.3061E+01
     -1.530  0.5137E+00  0.3111E+01
     -1.436  0.4811E+00  0.3158E+01
     -1.343  0.4518E+00  0.3202E+01
     -1.249  0.4200E+00  0.3242E+01
     -1.156  0.3883E+00  0.3280E+01
     -1.062  0.3705E+00  0.3316E+01
     -0.968  0.3531E+00  0.3350E+01
     -0.875  0.3333E+00  0.3382E+01
     -0.781  0.3109E+00  0.3412E+01
     -0.688  0.2962E+00  0.3440E+01
     -0.594  0.2847E+00  0.3468E+01
     -0.500  0.2724E+00  0.3494E+01
     -0.407  0.2596E+00  0.3519E+01
     -0.313  0.2436E+00  0.3542E+01
     -0.219  0.2320E+00  0.3564E+01
     -0.126  0.4503E+00  0.3589E+01
     -0.032  0.5409E+00  0.3633E+01
      0.061  0.6706E+00  0.3690E+01
      0.155  0.8898E+00  0.3761E+01
      0.249  0.9703E+00  0.3853E+01
      0.342  0.9302E+00  0.3943E+01
      0.436  0.8597E+00  0.4026E+01
      0.530  0.8436E+00  0.4106E+01
      0.623  0.8244E+00  0.4185E+01
      0.717  0.7920E+00  0.4260E+01
      0.810  0.8124E+00  0.4336E+01
      0.904  0.8701E+00  0.4413E+01
      0.998  0.8503E+00  0.4493E+01
      1.091  0.8716E+00  0.4574E+01
      1.185  0.8900E+00  0.4656E+01
      1.278  0.9431E+00  0.4742E+01
      1.372  0.9557E+00  0.4830E+01
      1.466  0.1013E+01  0.4922E+01
      1.559  0.1088E+01  0.5019E+01
      1.653  0.1221E+01  0.5125E+01
      1.747  0.1236E+01  0.5244E+01
      1.840  0.1231E+01  0.5359E+01
      1.934  0.1220E+01  0.5475E+01
      2.027  0.1202E+01  0.5588E+01
      2.121  0.1184E+01  0.5700E+01
      2.215  0.1166E+01  0.5809E+01
      2.308  0.1151E+01  0.5918E+01
      2.402  0.1140E+01  0.6025E+01
      2.496  0.1122E+01  0.6131E+01
      2.589  0.1110E+01  0.6236E+01
      2.683  0.1087E+01  0.6339E+01
      2.776  0.1069E+01  0.6439E+01
      2.870  0.1062E+01  0.6539E+01
      2.964  0.1048E+01  0.6638E+01
      3.057  0.1033E+01  0.6735E+01
      3.151  0.1020E+01  0.6832E+01
      3.244  0.1008E+01  0.6927E+01
      3.338  0.9978E+00  0.7020E+01
      3.432  0.9833E+00  0.7113E+01
      3.525  0.9647E+00  0.7205E+01
      3.619  0.9664E+00  0.7295E+01
      3.713  0.9476E+00  0.7384E+01
      3.806  0.7752E+00  0.7467E+01
      3.900  0.6642E+00  0.7534E+01
      3.993  0.5932E+00  0.7592E+01
      4.087  0.5300E+00  0.7645E+01
      4.181  0.4779E+00  0.7692E+01
      4.274  0.4316E+00  0.7734E+01
      4.368  0.3953E+00  0.7773E+01
      4.462  0.3556E+00  0.7808E+01
      4.555  0.3219E+00  0.7840E+01
      4.649  0.2891E+00  0.7868E+01
      4.742  0.2574E+00  0.7894E+01
      4.836  0.2305E+00  0.7917E+01
      4.930  0.2012E+00  0.7937E+01
      5.023  0.1705E+00  0.7954E+01
      5.117  0.1498E+00  0.7969E+01
      5.210  0.1194E+00  0.7982E+01
      5.304  0.9368E-01  0.7992E+01
      5.398  0.4713E-01  0.7998E+01
      5.491  0.0000E+00  0.8000E+01
      5.585  0.0000E+00  0.8000E+01
      5.679  0.0000E+00  0.8000E+01
      5.772  0.0000E+00  0.8000E+01
      5.866  0.0000E+00  0.8000E+01
      5.959  0.0000E+00  0.8000E+01
      6.053  0.0000E+00  0.8000E+01
      6.147  0.0000E+00  0.8000E+01
      6.240  0.0000E+00  0.8000E+01
      6.334  0.0000E+00  0.8000E+01
      6.428  0.0000E+00  0.8000E+01
      6.521  0.0000E+00  0.8000E+01
      6.615  0.0000E+00  0.8000E+01
      6.708  0.0000E+00  0.8000E+01
      6.802  0.5179E-01  0.8002E+01
      6.896  0.1251E+00  0.8010E+01
      6.989  0.1788E+00  0.8024E+01
      7.083  0.2356E+00  0.8044E+01
      7.176  0.2983E+00  0.8069E+01
      7.270  0.3414E+00  0.8099E+01
      7.364  0.3793E+00  0.8133E+01
      7.457  0.4197E+00  0.8170E+01
      7.551  0.4623E+00  0.8211E+01
      7.645  0.5072E+00  0.8257E+01
      7.738  0.5492E+00  0.8306E+01
      7.832  0.5864E+00  0.8359E+01
      7.925  0.6764E+00  0.8418E+01
      8.019  0.7783E+00  0.8487E+01
      8.113  0.8623E+00  0.8563E+01
      8.206  0.9609E+00  0.8649E+01
      8.300  0.1077E+01  0.8744E+01
      8.394  0.1243E+01  0.8852E+01
      8.487  0.1518E+01  0.8980E+01
      8.581  0.1908E+01  0.9144E+01
      8.674  0.1555E+01  0.9309E+01
      8.768  0.1385E+01  0.9446E+01
      8.862  0.1304E+01  0.9571E+01
      8.955  0.1245E+01  0.9690E+01
      9.049  0.1156E+01  0.9803E+01
      9.142  0.1144E+01  0.9911E+01
      9.236  0.9960E+00  0.1001E+02
      9.330  0.8223E+00  0.1010E+02
      9.423  0.7436E+00  0.1017E+02
      9.517  0.7361E+00  0.1024E+02
      9.611  0.7881E+00  0.1031E+02
      9.704  0.7526E+00  0.1038E+02
      9.798  0.8364E+00  0.1046E+02
      9.891  0.9188E+00  0.1054E+02
      9.985  0.1236E+01  0.1064E+02
     10.079  0.1926E+01  0.1081E+02
     10.172  0.1906E+01  0.1099E+02
     10.266  0.1891E+01  0.1115E+02
     10.360  0.1527E+01  0.1131E+02
     10.453  0.1552E+01  0.1146E+02
     10.547  0.1235E+01  0.1158E+02
     10.640  0.1217E+01  0.1170E+02
     10.734  0.1188E+01  0.1181E+02
     10.828  0.1064E+01  0.1192E+02
     10.921  0.9925E+00  0.1201E+02
     11.015  0.9608E+00  0.1211E+02
     11.108  0.1022E+01  0.1220E+02
     11.202  0.9873E+00  0.1229E+02
     11.296  0.1034E+01  0.1238E+02
     11.389  0.1082E+01  0.1248E+02
     11.483  0.1235E+01  0.1259E+02
     11.577  0.1187E+01  0.1271E+02
     11.670  0.1228E+01  0.1282E+02
     11.764  0.1242E+01  0.1294E+02
     11.857  0.1158E+01  0.1305E+02
     11.951  0.1201E+01  0.1316E+02
     12.045  0.1163E+01  0.1327E+02
     12.138  0.1170E+01  0.1338E+02
     12.232  0.1133E+01  0.1349E+02
     12.326  0.1109E+01  0.1359E+02
     12.419  0.1039E+01  0.1369E+02
     12.513  0.1032E+01  0.1379E+02
     12.606  0.1002E+01  0.1389E+02
     12.700  0.9516E+00  0.1398E+02
     12.794  0.7772E+00  0.1406E+02
     12.887  0.7107E+00  0.1413E+02
     12.981  0.7021E+00  0.1419E+02
     13.074  0.7199E+00  0.1426E+02
     13.168  0.7389E+00  0.1433E+02
     13.262  0.7454E+00  0.1440E+02
     13.355  0.7556E+00  0.1447E+02
     13.449  0.7798E+00  0.1454E+02
     13.543  0.8085E+00  0.1461E+02
     13.636  0.8410E+00  0.1469E+02
     13.730  0.8878E+00  0.1477E+02
     13.823  0.9732E+00  0.1486E+02
     13.917  0.1096E+01  0.1495E+02
     14.011  0.1413E+01  0.1507E+02
     14.104  0.1437E+01  0.1521E+02
     14.198  0.1080E+01  0.1533E+02
     14.292  0.1101E+01  0.1544E+02
     14.385  0.7658E+00  0.1553E+02
     14.479  0.4714E+00  0.1558E+02
     14.572  0.4505E+00  0.1562E+02
     14.666  0.4177E+00  0.1566E+02
     14.760  0.3848E+00  0.1570E+02
     14.853  0.3632E+00  0.1574E+02
     14.947  0.3333E+00  0.1577E+02
     15.040  0.3064E+00  0.1580E+02
     15.134  0.2813E+00  0.1583E+02
     15.228  0.2600E+00  0.1585E+02
     15.321  0.2430E+00  0.1587E+02
     15.415  0.2252E+00  0.1590E+02
     15.509  0.2073E+00  0.1592E+02
     15.602  0.1757E+00  0.1593E+02
     15.696  0.1538E+00  0.1595E+02
     15.789  0.1351E+00  0.1596E+02
     15.883  0.1198E+00  0.1598E+02
     15.977  0.1048E+00  0.1599E+02
     16.070  0.6369E-01  0.1599E+02
     16.164  0.3899E-01  0.1600E+02
     16.258  0.0000E+00  0.1600E+02
     16.351  0.0000E+00  0.1600E+02
     16.445  0.0000E+00  0.1600E+02
     16.538  0.0000E+00  0.1600E+02
     16.632  0.0000E+00  0.1600E+02
     16.726  0.0000E+00  0.1600E+02
     16.819  0.0000E+00  0.1600E+02
     16.913  0.0000E+00  0.1600E+02
     17.006  0.0000E+00  0.1600E+02
     17.100  0.0000E+00  0.1600E+02
     17.194  0.0000E+00  0.1600E+02
     17.287  0.0000E+00  0.1600E+02
     17.381  0.0000E+00  0.1600E+02
     17.475  0.0000E+00  0.1600E+02
