    2    2    1    1
  0.1452713E+02  0.3450708E-09  0.3450708E-09  0.3450708E-09  0.0000000E+00
  1.000000000000000E-004
  CAR 
 unknown system                          
      8    364      8
 
  0.0000000E+00  0.0000000E+00  0.0000000E+00  0.8218953E-04
    1       -9.334530   1.000000
    2        5.487416   1.000000
    3        5.487416   1.000000
    4        5.487416   1.000000
    5        8.679425   0.000000
    6        8.679425   0.000000
    7        8.679425   0.000000
    8        9.401498   0.000000
 
  0.4347826E-01  0.0000000E+00  0.0000000E+00  0.6575162E-03
    1       -9.305196   1.000000
    2        5.162453   1.000000
    3        5.427711   1.000000
    4        5.427711   1.000000
    5        8.723292   0.000000
    6        8.757864   0.000000
    7        8.757864   0.000000
    8        9.616805   0.000000
 
  0.8695652E-01  0.0000000E+00  0.0000000E+00  0.6575162E-03
    1       -9.217400   1.000000
    2        4.397695   1.000000
    3        5.268290   1.000000
    4        5.268290   1.000000
    5        8.704511   0.000000
    6        8.968882   0.000000
    7        8.968882   0.000000
    8       10.210784   0.000000
 
  0.1304348E+00  0.0000000E+00  0.0000000E+00  0.6575162E-03
    1       -9.072078   1.000000
    2        3.456395   1.000000
    3        5.050347   1.000000
    4        5.050347   1.000000
    5        8.604569   0.000000
    6        9.257241   0.000000
    7        9.257241   0.000000
    8       10.959445   0.000000
 
  0.1739130E+00  0.0000000E+00  0.0000000E+00  0.6575162E-03
    1       -8.870866   1.000000
    2        2.461937   1.000000
    3        4.810926   1.000000
    4        4.810926   1.000000
    5        8.470828   0.000000
    6        9.563049   0.000000
    7        9.563049   0.000000
    8       11.720372   0.000000
 
  0.2173913E+00  0.0000000E+00  0.0000000E+00  0.6575162E-03
    1       -8.616623   1.000000
    2        1.469579   1.000000
    3        4.575218   1.000000
    4        4.575219   1.000000
    5        8.329568   0.000000
    6        9.834455   0.000000
    7        9.834455   0.000000
    8       12.439254   0.000000
 
  0.2608696E+00  0.0000000E+00  0.0000000E+00  0.6575162E-03
    1       -8.314042   1.000000
    2        0.509984   1.000000
    3        4.358552   1.000000
    4        4.358552   1.000000
    5        8.195512   0.000000
    6       10.035433   0.000000
    7       10.035433   0.000000
    8       13.082953   0.000000
 
  0.3043478E+00  0.0000000E+00  0.0000000E+00  0.6575162E-03
    1       -7.971131   1.000000
    2       -0.394303   1.000000
    3        4.170092   1.000000
    4        4.170092   1.000000
    5        8.077153   0.000000
    6       10.154166   0.000000
    7       10.154166   0.000000
    8       13.606577   0.000000
 
  0.3478261E+00  0.0000000E+00  0.0000000E+00  0.6575162E-03
    1       -7.602029   1.000000
    2       -1.220288   1.000000
    3        4.015202   1.000000
    4        4.015202   1.000000
    5        7.979322   0.000000
    6       10.203162   0.000000
    7       10.203162   0.000000
    8       13.958074   0.000000
 
  0.3913043E+00  0.0000000E+00  0.0000000E+00  0.6575162E-03
    1       -7.232608   1.000000
    2       -1.936413   1.000000
    3        3.897075   1.000000
    4        3.897075   1.000000
    5        7.904610   0.000000
    6       10.208400   0.000000
    7       10.208400   0.000000
    8       14.133023   0.000000
 
  0.4347826E+00  0.0000000E+00  0.0000000E+00  0.6575162E-03
    1       -6.910379   1.000000
    2       -2.491552   1.000000
    3        3.817536   1.000000
    4        3.817536   1.000000
    5        7.854359   0.000000
    6       10.196051   0.000000
    7       10.196052   0.000000
    8       14.193676   0.000000
 
  0.4782609E+00  0.0000000E+00  0.0000000E+00  0.6575162E-03
    1       -6.711585   1.000000
    2       -2.807318   1.000000
    3        3.777554   1.000000
    4        3.777554   1.000000
    5        7.829122   0.000000
    6       10.185087   0.000000
    7       10.185087   0.000000
    8       14.206992   0.000000
 
  0.4347826E-01  0.4347826E-01  0.0000000E+00  0.4931372E-03
    1       -9.295403   1.000000
    2        5.255704   1.000000
    3        5.305431   1.000000
    4        5.305431   1.000000
    5        8.552879   0.000000
    6        8.904021   0.000000
    7        8.904021   0.000000
    8        9.637087   0.000000
 
  0.8695652E-01  0.4347826E-01  0.0000000E+00  0.1972549E-02
    1       -9.227058   1.000000
    2        4.637898   1.000000
    3        5.102367   1.000000
    4        5.260184   1.000000
    5        8.533282   0.000000
    6        9.036010   0.000000
    7        9.165636   0.000000
    8       10.061944   0.000000
 
  0.1304348E+00  0.4347826E-01  0.0000000E+00  0.1972549E-02
    1       -9.100871   1.000000
    2        3.756103   1.000000
    3        4.860156   1.000000
    4        5.122162   1.000000
    5        8.609137   0.000000
    6        9.077116   0.000000
    7        9.488200   0.000000
    8       10.749582   0.000000
 
  0.1739130E+00  0.4347826E-01  0.0000000E+00  0.1972549E-02
    1       -8.918173   1.000000
    2        2.785169   1.000000
    3        4.611031   1.000000
    4        4.915218   1.000000
    5        8.609810   0.000000
    6        9.226202   0.000000
    7        9.817573   0.000000
    8       11.474968   0.000000
 
  0.2173913E+00  0.4347826E-01  0.0000000E+00  0.1972549E-02
    1       -8.681405   1.000000
    2        1.797424   1.000000
    3        4.375930   1.000000
    4        4.679187   1.000000
    5        8.516628   0.000000
    6        9.472289   0.000000
    7       10.105426   0.000000
    8       12.154532   0.000000
 
  0.2608696E+00  0.4347826E-01  0.0000000E+00  0.1972549E-02
    1       -8.394503   1.000000
    2        0.830755   1.000000
    3        4.167526   1.000000
    4        4.441190   1.000000
    5        8.396562   0.000000
    6        9.709666   0.000000
    7       10.315154   0.000000
    8       12.762359   0.000000
 
  0.3043478E+00  0.4347826E-01  0.0000000E+00  0.1972549E-02
    1       -8.064192   1.000000
    2       -0.089657   1.000000
    3        3.993389   1.000000
    4        4.217714   1.000000
    5        8.279436   0.000000
    6        9.885496   0.000000
    7       10.431526   0.000000
    8       13.289640   0.000000
 
  0.3478261E+00  0.4347826E-01  0.0000000E+00  0.1972549E-02
    1       -7.702096   1.000000
    2       -0.941177   1.000000
    3        3.857882   1.000000
    4        4.018672   1.000000
    5        8.177277   0.000000
    6        9.991455   0.000000
    7       10.464278   0.000000
    8       13.718442   0.000000
 
  0.3913043E+00  0.4347826E-01  0.0000000E+00  0.1972549E-02
    1       -7.329326   1.000000
    2       -1.695762   1.000000
    3        3.763355   1.000000
    4        3.850209   1.000000
    5        8.095637   0.000000
    6       10.046553   0.000000
    7       10.439506   0.000000
    8       14.016674   0.000000
 
  0.4347826E+00  0.4347826E-01  0.0000000E+00  0.1972549E-02
    1       -6.984834   1.000000
    2       -2.310012   1.000000
    3        3.710858   1.000000
    4        3.716351   1.000000
    5        8.037253   0.000000
    6       10.077964   0.000000
    7       10.385985   0.000000
    8       14.180119   0.000000
 
  0.4782609E+00  0.4347826E-01  0.0000000E+00  0.1972549E-02
    1       -6.735620   1.000000
    2       -2.714235   1.000000
    3        3.619846   1.000000
    4        3.700470   1.000000
    5        8.003403   0.000000
    6       10.108051   0.000000
    7       10.326224   0.000000
    8       14.249676   0.000000
 
 -0.4782609E+00  0.4347826E-01  0.0000000E+00  0.1972549E-02
    1       -6.664484   1.000000
    2       -2.824152   1.000000
    3        3.562696   1.000000
    4        3.731627   1.000000
    5        7.994619   0.000000
    6       10.149800   0.000000
    7       10.273522   0.000000
    8       14.268049   0.000000
 
 -0.4347826E+00  0.4347826E-01  0.0000000E+00  0.1972549E-02
    1       -6.802934   1.000000
    2       -2.607952   1.000000
    3        3.546367   1.000000
    4        3.803220   1.000000
    5        8.010994   0.000000
    6       10.206297   0.000000
    7       10.231530   0.000000
    8       14.248111   0.000000
 
 -0.3913043E+00  0.4347826E-01  0.0000000E+00  0.1972549E-02
    1       -7.093199   1.000000
    2       -2.124077   1.000000
    3        3.571834   1.000000
    4        3.913562   1.000000
    5        8.052341   0.000000
    6       10.194356   0.000000
    7       10.270668   0.000000
    8       14.167432   0.000000
 
 -0.3478261E+00  0.4347826E-01  0.0000000E+00  0.1972549E-02
    1       -7.453045   1.000000
    2       -1.456652   1.000000
    3        3.639562   1.000000
    4        4.060341   1.000000
    5        8.118050   0.000000
    6       10.146738   0.000000
    7       10.325773   0.000000
    8       13.976446   0.000000
 
 -0.3043478E+00  0.4347826E-01  0.0000000E+00  0.1972549E-02
    1       -7.825457   1.000000
    2       -0.665934   1.000000
    3        3.749355   1.000000
    4        4.240303   1.000000
    5        8.206788   0.000000
    6       10.065830   0.000000
    7       10.344259   0.000000
    8       13.636823   0.000000
 
 -0.2608696E+00  0.4347826E-01  0.0000000E+00  0.1972549E-02
    1       -8.178698   1.000000
    2        0.211073   1.000000
    3        3.900084   1.000000
    4        4.448617   1.000000
    5        8.315967   0.000000
    6        9.927668   0.000000
    7       10.292739   0.000000
    8       13.162610   0.000000
 
 -0.2173913E+00  0.4347826E-01  0.0000000E+00  0.1972549E-02
    1       -8.495491   1.000000
    2        1.148828   1.000000
    3        4.089287   1.000000
    4        4.677838   1.000000
    5        8.440682   0.000000
    6        9.719868   0.000000
    7       10.144634   0.000000
    8       12.594508   0.000000
 
 -0.1739130E+00  0.4347826E-01  0.0000000E+00  0.1972549E-02
    1       -8.766241   1.000000
    2        2.124138   1.000000
    3        4.312536   1.000000
    4        4.915951   1.000000
    5        8.571869   0.000000
    6        9.453917   0.000000
    7        9.898337   0.000000
    8       11.958056   0.000000
 
 -0.1304348E+00  0.4347826E-01  0.0000000E+00  0.1972549E-02
    1       -8.985305   1.000000
    2        3.107169   1.000000
    3        4.562741   1.000000
    4        5.143450   1.000000
    5        8.692509   0.000000
    6        9.167454   0.000000
    7        9.585686   0.000000
    8       11.267541   0.000000
 
 -0.8695652E-01  0.4347826E-01  0.0000000E+00  0.1972549E-02
    1       -9.149352   1.000000
    2        4.044876   1.000000
    3        4.830955   1.000000
    4        5.330003   1.000000
    5        8.768277   0.000000
    6        8.916593   0.000000
    7        9.266440   0.000000
    8       10.558414   0.000000
 
 -0.4347826E-01  0.4347826E-01  0.0000000E+00  0.9862743E-03
    1       -9.256348   1.000000
    2        4.804891   1.000000
    3        5.126851   1.000000
    4        5.435778   1.000000
    5        8.748655   0.000000
    6        8.764076   0.000000
    7        9.004868   0.000000
    8        9.940934   0.000000
 
  0.8695652E-01  0.8695652E-01  0.0000000E+00  0.4931372E-03
    1       -9.178235   1.000000
    2        4.667704   1.000000
    3        4.870652   1.000000
    4        4.870652   1.000000
    5        8.295047   0.000000
    6        9.465814   0.000000
    7        9.465814   0.000000
    8       10.111830   0.000000
 
  0.1304348E+00  0.8695652E-01  0.0000000E+00  0.1972549E-02
    1       -9.071394   1.000000
    2        3.966139   1.000000
    3        4.611991   1.000000
    4        4.787229   1.000000
    5        8.249815   0.000000
    6        9.592056   0.000000
    7        9.819040   0.000000
    8       10.596112   0.000000
 
  0.1739130E+00  0.8695652E-01  0.0000000E+00  0.1972549E-02
    1       -8.907653   1.000000
    2        3.062564   1.000000
    3        4.354924   1.000000
    4        4.650615   1.000000
    5        8.358676   0.000000
    6        9.549542   0.000000
    7       10.176156   0.000000
    8       11.235073   0.000000
 
  0.2173913E+00  0.8695652E-01  0.0000000E+00  0.1972549E-02
    1       -8.689069   1.000000
    2        2.108314   1.000000
    3        4.117888   1.000000
    4        4.440927   1.000000
    5        8.508481   0.000000
    6        9.535365   0.000000
    7       10.491096   0.000000
    8       11.798360   0.000000
 
  0.2608696E+00  0.8695652E-01  0.0000000E+00  0.1972549E-02
    1       -8.418986   1.000000
    2        1.154760   1.000000
    3        3.912375   1.000000
    4        4.198056   1.000000
    5        8.585968   0.000000
    6        9.613025   0.000000
    7       10.725332   0.000000
    8       12.256936   0.000000
 
  0.3043478E+00  0.8695652E-01  0.0000000E+00  0.1972549E-02
    1       -8.103081   1.000000
    2        0.233278   1.000000
    3        3.745346   1.000000
    4        3.950428   1.000000
    5        8.570741   0.000000
    6        9.748210   0.000000
    7       10.858070   0.000000
    8       12.668117   0.000000
 
  0.3478261E+00  0.8695652E-01  0.0000000E+00  0.1972549E-02
    1       -7.750997   1.000000
    2       -0.631416   1.000000
    3        3.620887   1.000000
    4        3.715513   1.000000
    5        8.511514   0.000000
    6        9.865963   0.000000
    7       10.893561   0.000000
    8       13.095913   0.000000
 
  0.3913043E+00  0.8695652E-01  0.0000000E+00  0.1972549E-02
    1       -7.380023   1.000000
    2       -1.412666   1.000000
    3        3.504052   1.000000
    4        3.541167   1.000000
    5        8.446273   0.000000
    6        9.940856   0.000000
    7       10.855889   0.000000
    8       13.540724   0.000000
 
  0.4347826E+00  0.8695652E-01  0.0000000E+00  0.1972549E-02
    1       -7.021923   1.000000
    2       -2.072774   1.000000
    3        3.323067   1.000000
    4        3.507006   1.000000
    5        8.393125   0.000000
    6        9.988552   0.000000
    7       10.775413   0.000000
    8       13.940165   0.000000
 
  0.4782609E+00  0.8695652E-01  0.0000000E+00  0.1972549E-02
    1       -6.733500   1.000000
    2       -2.551222   1.000000
    3        3.177427   1.000000
    4        3.518195   1.000000
    5        8.359979   0.000000
    6       10.032961   0.000000
    7       10.677857   0.000000
    8       14.223130   0.000000
 
 -0.4782609E+00  0.8695652E-01  0.0000000E+00  0.1972549E-02
    1       -6.596412   1.000000
    2       -2.764277   1.000000
    3        3.070782   1.000000
    4        3.573654   1.000000
    5        8.350062   0.000000
    6       10.091270   0.000000
    7       10.579930   0.000000
    8       14.364401   0.000000
 
 -0.4347826E+00  0.8695652E-01  0.0000000E+00  0.1972549E-02
    1       -6.667617   1.000000
    2       -2.654196   1.000000
    3        3.005974   1.000000
    4        3.671545   1.000000
    5        8.364239   0.000000
    6       10.170937   0.000000
    7       10.488591   0.000000
    8       14.371781   0.000000
 
 -0.3913043E+00  0.8695652E-01  0.0000000E+00  0.1972549E-02
    1       -6.915716   1.000000
    2       -2.252846   1.000000
    3        2.985244   1.000000
    4        3.809212   1.000000
    5        8.402132   0.000000
    6       10.269522   0.000000
    7       10.401188   0.000000
    8       14.240736   0.000000
 
 -0.3478261E+00  0.8695652E-01  0.0000000E+00  0.1972549E-02
    1       -7.258594   1.000000
    2       -1.644101   1.000000
    3        3.010344   1.000000
    4        3.983057   1.000000
    5        8.462568   0.000000
    6       10.305802   0.000000
    7       10.373623   0.000000
    8       13.957808   0.000000
 
 -0.3043478E+00  0.8695652E-01  0.0000000E+00  0.1972549E-02
    1       -7.629768   1.000000
    2       -0.897907   1.000000
    3        3.082565   1.000000
    4        4.188125   1.000000
    5        8.543415   0.000000
    6       10.182918   0.000000
    7       10.456029   0.000000
    8       13.545080   0.000000
 
 -0.2608696E+00  0.8695652E-01  0.0000000E+00  0.1972549E-02
    1       -7.990437   1.000000
    2       -0.058886   1.000000
    3        3.202884   1.000000
    4        4.417428   1.000000
    5        8.641011   0.000000
    6       10.011690   0.000000
    7       10.473743   0.000000
    8       13.067941   0.000000
 
 -0.2173913E+00  0.8695652E-01  0.0000000E+00  0.1972549E-02
    1       -8.319557   1.000000
    2        0.841935   1.000000
    3        3.372459   1.000000
    4        4.660693   1.000000
    5        8.748472   0.000000
    6        9.782532   0.000000
    7       10.377246   0.000000
    8       12.588643   0.000000
 
 -0.1739130E+00  0.8695652E-01  0.0000000E+00  0.1972549E-02
    1       -8.605476   1.000000
    2        1.774742   1.000000
    3        3.594367   1.000000
    4        4.902178   1.000000
    5        8.852213   0.000000
    6        9.509850   0.000000
    7       10.145488   0.000000
    8       12.120081   0.000000
 
 -0.1304348E+00  0.8695652E-01  0.0000000E+00  0.1972549E-02
    1       -8.841480   1.000000
    2        2.693947   1.000000
    3        3.880968   1.000000
    4        5.117696   1.000000
    5        8.923245   0.000000
    6        9.234937   0.000000
    7        9.823455   0.000000
    8       11.623768   0.000000
 
 -0.8695652E-01  0.8695652E-01  0.0000000E+00  0.9862743E-03
    1       -9.023574   1.000000
    2        3.497843   1.000000
    3        4.280398   1.000000
    4        5.272965   1.000000
    5        8.902353   0.000000
    6        9.017095   0.000000
    7        9.513065   0.000000
    8       11.078932   0.000000
 
  0.1304348E+00  0.1304348E+00  0.0000000E+00  0.4931372E-03
    1       -8.983926   1.000000
    2        3.890295   1.000000
    3        4.342466   1.000000
    4        4.342466   1.000000
    5        7.986266   0.000000
    6       10.202639   0.000000
    7       10.202639   0.000000
    8       10.533170   0.000000
 
  0.1739130E+00  0.1304348E+00  0.0000000E+00  0.1972549E-02
    1       -8.839389   1.000000
    2        3.213634   1.000000
    3        4.078236   1.000000
    4        4.194584   1.000000
    5        7.934212   0.000000
    6       10.232246   0.000000
    7       10.593081   0.000000
    8       11.002221   0.000000
 
  0.2173913E+00  0.1304348E+00  0.0000000E+00  0.1972549E-02
    1       -8.639484   1.000000
    2        2.348423   1.000000
    3        3.836862   1.000000
    4        4.027783   1.000000
    5        8.056990   0.000000
    6       10.128986   0.000000
    7       10.945614   0.000000
    8       11.462527   0.000000
 
  0.2608696E+00  0.1304348E+00  0.0000000E+00  0.1972549E-02
    1       -8.387094   1.000000
    2        1.442942   1.000000
    3        3.629495   1.000000
    4        3.795691   1.000000
    5        8.251718   0.000000
    6       10.076773   0.000000
    7       11.219376   0.000000
    8       11.754948   0.000000
 
  0.3043478E+00  0.1304348E+00  0.0000000E+00  0.1972549E-02
    1       -8.087045   1.000000
    2        0.545146   1.000000
    3        3.463116   1.000000
    4        3.533121   1.000000
    5        8.413460   0.000000
    6       10.100111   0.000000
    7       11.387037   0.000000
    8       11.982975   0.000000
 
  0.3478261E+00  0.1304348E+00  0.0000000E+00  0.1972549E-02
    1       -7.747427   1.000000
    2       -0.313785   1.000000
    3        3.268010   1.000000
    4        3.341914   1.000000
    5        8.494891   0.000000
    6       10.166029   0.000000
    7       11.445056   0.000000
    8       12.283744   0.000000
 
  0.3913043E+00  0.1304348E+00  0.0000000E+00  0.1972549E-02
    1       -7.382520   1.000000
    2       -1.105627   1.000000
    3        3.018011   1.000000
    4        3.268234   1.000000
    5        8.516429   0.000000
    6       10.218282   0.000000
    7       11.413272   0.000000
    8       12.721998   0.000000
 
  0.4347826E+00  0.1304348E+00  0.0000000E+00  0.1972549E-02
    1       -7.018254   1.000000
    2       -1.795646   1.000000
    3        2.794275   1.000000
    4        3.242977   1.000000
    5        8.516918   0.000000
    6       10.242543   0.000000
    7       11.322305   0.000000
    8       13.263331   0.000000
 
  0.4782609E+00  0.1304348E+00  0.0000000E+00  0.1972549E-02
    1       -6.701856   1.000000
    2       -2.331148   1.000000
    3        2.604317   1.000000
    4        3.265958   1.000000
    5        8.522834   0.000000
    6       10.257745   0.000000
    7       11.200729   0.000000
    8       13.812041   0.000000
 
 -0.4782609E+00  0.1304348E+00  0.0000000E+00  0.1972549E-02
    1       -6.508161   1.000000
    2       -2.634050   1.000000
    3        2.453587   1.000000
    4        3.336021   1.000000
    5        8.546938   0.000000
    6       10.284801   0.000000
    7       11.068555   0.000000
    8       14.241136   0.000000
 
 -0.4347826E+00  0.1304348E+00  0.0000000E+00  0.1972549E-02
    1       -6.509924   1.000000
    2       -2.630180   1.000000
    3        2.346331   1.000000
    4        3.451037   1.000000
    5        8.593303   0.000000
    6       10.336715   0.000000
    7       10.935756   0.000000
    8       14.426168   0.000000
 
 -0.3913043E+00  0.1304348E+00  0.0000000E+00  0.1972549E-02
    1       -6.706250   1.000000
    2       -2.320658   1.000000
    3        2.286061   1.000000
    4        3.607823   1.000000
    5        8.661014   0.000000
    6       10.417957   0.000000
    7       10.802241   0.000000
    8       14.312019   0.000000
 
 -0.3478261E+00  0.1304348E+00  0.0000000E+00  0.1972549E-02
    1       -7.023728   1.000000
    2       -1.780882   1.000000
    3        2.275924   1.000000
    4        3.801880   1.000000
    5        8.746397   0.000000
    6       10.523035   0.000000
    7       10.658517   0.000000
    8       13.945149   0.000000
 
 -0.3043478E+00  0.1304348E+00  0.0000000E+00  0.1972549E-02
    1       -7.388026   1.000000
    2       -1.089704   1.000000
    3        2.319294   1.000000
    4        4.026898   1.000000
    5        8.844075   0.000000
    6       10.487634   0.000000
    7       10.631575   0.000000
    8       13.435647   0.000000
 
 -0.2608696E+00  0.1304348E+00  0.0000000E+00  0.1972549E-02
    1       -7.752452   1.000000
    2       -0.302337   1.000000
    3        2.420909   1.000000
    4        4.273979   1.000000
    5        8.946595   0.000000
    6       10.272177   0.000000
    7       10.697874   0.000000
    8       12.903752   0.000000
 
 -0.2173913E+00  0.1304348E+00  0.0000000E+00  0.1972549E-02
    1       -8.091383   1.000000
    2        0.538603   1.000000
    3        2.590156   1.000000
    4        4.530125   1.000000
    5        9.041677   0.000000
    6       10.007185   0.000000
    7       10.643878   0.000000
    8       12.460818   0.000000
 
 -0.1739130E+00  0.1304348E+00  0.0000000E+00  0.1972549E-02
    1       -8.390680   1.000000
    2        1.381476   1.000000
    3        2.851059   1.000000
    4        4.776074   1.000000
    5        9.104823   0.000000
    6        9.712740   0.000000
    7       10.415220   0.000000
    8       12.161642   0.000000
 
 -0.1304348E+00  0.1304348E+00  0.0000000E+00  0.9862743E-03
    1       -8.642315   1.000000
    2        2.133586   1.000000
    3        3.264274   1.000000
    4        4.983935   1.000000
    5        9.085096   0.000000
    6        9.435041   0.000000
    7       10.094084   0.000000
    8       11.922263   0.000000
 
  0.1739130E+00  0.1739130E+00  0.0000000E+00  0.4931372E-03
    1       -8.714066   1.000000
    2        3.023228   1.000000
    3        3.807316   1.000000
    4        3.807316   1.000000
    5        7.665606   0.000000
    6       10.636082   0.000000
    7       11.023958   0.000000
    8       11.023958   0.000000
 
  0.2173913E+00  0.1739130E+00  0.0000000E+00  0.1972549E-02
    1       -8.533128   1.000000
    2        2.401745   1.000000
    3        3.559773   1.000000
    4        3.603188   1.000000
    5        7.621555   0.000000
    6       10.474702   0.000000
    7       11.424730   0.000000
    8       11.454519   0.000000
 
  0.2608696E+00  0.1739130E+00  0.0000000E+00  0.1972549E-02
    1       -8.299080   1.000000
    2        1.615487   1.000000
    3        3.347099   1.000000
    4        3.379655   1.000000
    5        7.759843   0.000000
    6       10.343081   0.000000
    7       11.688510   0.000000
    8       11.752548   0.000000
 
  0.3043478E+00  0.1739130E+00  0.0000000E+00  0.1972549E-02
    1       -8.016048   1.000000
    2        0.787297   1.000000
    3        3.104344   1.000000
    4        3.176546   1.000000
    5        7.971336   0.000000
    6       10.334729   0.000000
    7       11.763578   0.000000
    8       11.973263   0.000000
 
  0.3478261E+00  0.1739130E+00  0.0000000E+00  0.1972549E-02
    1       -7.690930   1.000000
    2       -0.032581   1.000000
    3        2.807742   1.000000
    4        3.052689   1.000000
    5        8.149351   0.000000
    6       10.474371   0.000000
    7       11.814066   0.000000
    8       12.073886   0.000000
 
  0.3913043E+00  0.1739130E+00  0.0000000E+00  0.1972549E-02
    1       -7.335671   1.000000
    2       -0.809027   1.000000
    3        2.516402   1.000000
    4        2.978120   1.000000
    5        8.253578   0.000000
    6       10.679208   0.000000
    7       11.990553   0.000000
    8       12.067251   0.000000
 
  0.4347826E+00  0.1739130E+00  0.0000000E+00  0.1972549E-02
    1       -6.971616   1.000000
    2       -1.506371   1.000000
    3        2.247430   1.000000
    4        2.954010   1.000000
    5        8.309943   0.000000
    6       10.807145   0.000000
    7       11.982626   0.000000
    8       12.409452   0.000000
 
  0.4782609E+00  0.1739130E+00  0.0000000E+00  0.1972549E-02
    1       -6.637745   1.000000
    2       -2.076798   1.000000
    3        2.011742   1.000000
    4        2.980364   1.000000
    5        8.357217   0.000000
    6       10.844302   0.000000
    7       11.850941   0.000000
    8       13.022137   0.000000
 
 -0.4782609E+00  0.1739130E+00  0.0000000E+00  0.1972549E-02
    1       -6.399491   1.000000
    2       -2.449412   1.000000
    3        1.816903   1.000000
    4        3.056145   1.000000
    5        8.419968   0.000000
    6       10.850373   0.000000
    7       11.695577   0.000000
    8       13.684120   0.000000
 
 -0.4347826E+00  0.1739130E+00  0.0000000E+00  0.1972549E-02
    1       -6.335334   1.000000
    2       -2.543223   1.000000
    3        1.668631   1.000000
    4        3.179214   1.000000
    5        8.508582   0.000000
    6       10.862915   0.000000
    7       11.529258   0.000000
    8       14.201506   0.000000
 
 -0.3913043E+00  0.1739130E+00  0.0000000E+00  0.1972549E-02
    1       -6.472715   1.000000
    2       -2.330627   1.000000
    3        1.571930   1.000000
    4        3.346193   1.000000
    5        8.624015   0.000000
    6       10.898842   0.000000
    7       11.353811   0.000000
    8       14.298741   0.000000
 
 -0.3478261E+00  0.1739130E+00  0.0000000E+00  0.1972549E-02
    1       -6.755806   1.000000
    2       -1.870395   1.000000
    3        1.532076   1.000000
    4        3.552178   1.000000
    5        8.760720   0.000000
    6       10.963447   0.000000
    7       11.161050   0.000000
    8       13.930436   0.000000
 
 -0.3043478E+00  0.1739130E+00  0.0000000E+00  0.1972549E-02
    1       -7.106372   1.000000
    2       -1.248142   1.000000
    3        1.556381   1.000000
    4        3.790125   1.000000
    5        8.907916   0.000000
    6       10.935686   0.000000
    7       11.049262   0.000000
    8       13.345255   0.000000
 
 -0.2608696E+00  0.1739130E+00  0.0000000E+00  0.1972549E-02
    1       -7.469827   1.000000
    2       -0.534932   1.000000
    3        1.658230   1.000000
    4        4.049840   1.000000
    5        9.049396   0.000000
    6       10.663589   0.000000
    7       11.119548   0.000000
    8       12.741206   0.000000
 
 -0.2173913E+00  0.1739130E+00  0.0000000E+00  0.1972549E-02
    1       -7.815148   1.000000
    2        0.201441   1.000000
    3        1.867752   1.000000
    4        4.316561   1.000000
    5        9.160764   0.000000
    6       10.346328   0.000000
    7       11.063732   0.000000
    8       12.297531   0.000000
 
 -0.1739130E+00  0.1739130E+00  0.0000000E+00  0.9862743E-03
    1       -8.125344   1.000000
    2        0.868231   1.000000
    3        2.248130   1.000000
    4        4.568690   1.000000
    5        9.200646   0.000000
    6       10.012049   0.000000
    7       10.773079   0.000000
    8       12.154628   0.000000
 
  0.2173913E+00  0.2173913E+00  0.0000000E+00  0.4931372E-03
    1       -8.371214   1.000000
    2        2.115226   1.000000
    3        3.305050   1.000000
    4        3.305050   1.000000
    5        7.364540   0.000000
    6       10.299567   0.000000
    7       11.884625   0.000000
    8       11.884625   0.000000
 
  0.2608696E+00  0.2173913E+00  0.0000000E+00  0.1972549E-02
    1       -8.155916   1.000000
    2        1.546316   1.000000
    3        3.067582   1.000000
    4        3.084791   1.000000
    5        7.339428   0.000000
    6       10.059558   0.000000
    7       12.217737   0.000000
    8       12.280758   0.000000
 
  0.3043478E+00  0.2173913E+00  0.0000000E+00  0.1972549E-02
    1       -7.890811   1.000000
    2        0.856660   1.000000
    3        2.779442   1.000000
    4        2.906869   1.000000
    5        7.496169   0.000000
    6        9.928429   0.000000
    7       12.335930   0.000000
    8       12.572804   0.000000
 