       N       E                     dE             d eps       ncg     rms          rms(c)
DAV:   1     0.936863780087E+01    0.93686E+01   -0.38902E+03  5832   0.863E+02
DAV:   2    -0.116167451512E+02   -0.20985E+02   -0.20539E+02  8920   0.101E+02
DAV:   3    -0.119040099443E+02   -0.28726E+00   -0.28726E+00  6720   0.140E+01
DAV:   4    -0.119043856647E+02   -0.37572E-03   -0.37572E-03  8752   0.543E-01
DAV:   5    -0.119043858815E+02   -0.21678E-06   -0.21678E-06  6592   0.784E-03    0.369E+00
RMM:   6    -0.114115249603E+02    0.49286E+00   -0.55150E-01  5896   0.480E+00    0.159E+00
RMM:   7    -0.113640559636E+02    0.47469E-01   -0.84865E-02  6222   0.191E+00    0.724E-01
RMM:   8    -0.113582722854E+02    0.57837E-02   -0.20280E-02  6274   0.108E+00    0.824E-02
RMM:   9    -0.113586168425E+02   -0.34456E-03   -0.90705E-04  6680   0.222E-01    0.405E-02
RMM:  10    -0.113585940669E+02    0.22776E-04   -0.72673E-05  6583   0.715E-02    0.139E-02
RMM:  11    -0.113585971551E+02   -0.30881E-05   -0.63533E-05  6368   0.491E-02    0.116E-02
RMM:  12    -0.113585895683E+02    0.75868E-05   -0.97417E-06  6403   0.206E-02    0.398E-04
RMM:  13    -0.113585895994E+02   -0.31087E-07   -0.14066E-07  4313   0.290E-03
   1 F= -.11358590E+02 E0= -.11358590E+02  d E =0.000000E+00
