       N       E                     dE             d eps       ncg     rms          rms(c)
DAV:   1     0.414711248138E+02    0.41471E+02   -0.26447E+03 49888   0.324E+02
DAV:   2    -0.528595680418E+01   -0.46757E+02   -0.41291E+02 44464   0.899E+01
DAV:   3    -0.788642030310E+01   -0.26005E+01   -0.25631E+01 51360   0.193E+01
DAV:   4    -0.789282651814E+01   -0.64062E-02   -0.64039E-02 45496   0.940E-01
DAV:   5    -0.789282736129E+01   -0.84315E-06   -0.84279E-06 49992   0.109E-02    0.151E+01
DAV:   6    -0.824573642703E+01   -0.35291E+00   -0.59772E+00 47400   0.135E+01    0.376E+00
DAV:   7    -0.825112333299E+01   -0.53869E-02   -0.13790E-01 46072   0.179E+00    0.241E+00
DAV:   8    -0.824020209161E+01    0.10921E-01   -0.43939E-03 49808   0.224E-01    0.106E+00
DAV:   9    -0.823518905839E+01    0.50130E-02   -0.48208E-03 49672   0.177E-01    0.144E-01
DAV:  10    -0.823511412655E+01    0.74932E-04   -0.82613E-04 48712   0.168E-01    0.626E-02
DAV:  11    -0.823510614582E+01    0.79807E-05   -0.22056E-05 47136   0.176E-02    0.396E-02
DAV:  12    -0.823510815806E+01   -0.20122E-05   -0.81472E-06 50960   0.116E-02    0.139E-02
DAV:  13    -0.823510892145E+01   -0.76339E-06   -0.19019E-06 54616   0.717E-03    0.535E-03
DAV:  14    -0.823510889565E+01    0.25804E-07   -0.12783E-07 37448   0.127E-03
   1 F= -.82351089E+01 E0= -.82351089E+01  d E =0.000000E+00  mag=     2.1328
