unknown system                          
            1
    -1.399842    1.399842    1.399842
     1.399842   -1.399842    1.399842
     1.399842    1.399842   -1.399842
   Fe
     1
Direct configuration=     1
   0.00000000  0.00000000  0.00000000
