   3   3   0   0
  0.2288362E+02  0.4596074E-09  0.4596074E-09  0.4596074E-09  0.5000000E-15
  1.000000000000000E-004
  CAR
 unknown system
     13.96640778    -35.34061283  301     10.96774792      1.00000000
    -35.341  0.0000E+00  0.0000E+00
    -35.176  0.0000E+00  0.0000E+00
    -35.012  0.0000E+00  0.0000E+00
    -34.848  0.0000E+00  0.0000E+00
    -34.683  0.0000E+00  0.0000E+00
    -34.519  0.0000E+00  0.0000E+00
    -34.354  0.0000E+00  0.0000E+00
    -34.190  0.0000E+00  0.0000E+00
    -34.026  0.0000E+00  0.0000E+00
    -33.861  0.0000E+00  0.0000E+00
    -33.697  0.0000E+00  0.0000E+00
    -33.533  0.0000E+00  0.0000E+00
    -33.368  0.0000E+00  0.0000E+00
    -33.204  0.0000E+00  0.0000E+00
    -33.040  0.1217E+02  0.2000E+01
    -32.875  0.0000E+00  0.2000E+01
    -32.711  0.0000E+00  0.2000E+01
    -32.547  0.0000E+00  0.2000E+01
    -32.382  0.0000E+00  0.2000E+01
    -32.218  0.0000E+00  0.2000E+01
    -32.053  0.0000E+00  0.2000E+01
    -31.889  0.0000E+00  0.2000E+01
    -31.725  0.0000E+00  0.2000E+01
    -31.560  0.0000E+00  0.2000E+01
    -31.396  0.0000E+00  0.2000E+01
    -31.232  0.0000E+00  0.2000E+01
    -31.067  0.0000E+00  0.2000E+01
    -30.903  0.0000E+00  0.2000E+01
    -30.739  0.0000E+00  0.2000E+01
    -30.574  0.0000E+00  0.2000E+01
    -30.410  0.0000E+00  0.2000E+01
    -30.246  0.0000E+00  0.2000E+01
    -30.081  0.0000E+00  0.2000E+01
    -29.917  0.0000E+00  0.2000E+01
    -29.752  0.0000E+00  0.2000E+01
    -29.588  0.0000E+00  0.2000E+01
    -29.424  0.0000E+00  0.2000E+01
    -29.259  0.0000E+00  0.2000E+01
    -29.095  0.0000E+00  0.2000E+01
    -28.931  0.0000E+00  0.2000E+01
    -28.766  0.0000E+00  0.2000E+01
    -28.602  0.0000E+00  0.2000E+01
    -28.438  0.0000E+00  0.2000E+01
    -28.273  0.0000E+00  0.2000E+01
    -28.109  0.0000E+00  0.2000E+01
    -27.945  0.0000E+00  0.2000E+01
    -27.780  0.0000E+00  0.2000E+01
    -27.616  0.0000E+00  0.2000E+01
    -27.451  0.0000E+00  0.2000E+01
    -27.287  0.0000E+00  0.2000E+01
    -27.123  0.0000E+00  0.2000E+01
    -26.958  0.0000E+00  0.2000E+01
    -26.794  0.0000E+00  0.2000E+01
    -26.630  0.0000E+00  0.2000E+01
    -26.465  0.0000E+00  0.2000E+01
    -26.301  0.0000E+00  0.2000E+01
    -26.137  0.0000E+00  0.2000E+01
    -25.972  0.0000E+00  0.2000E+01
    -25.808  0.0000E+00  0.2000E+01
    -25.644  0.0000E+00  0.2000E+01
    -25.479  0.0000E+00  0.2000E+01
    -25.315  0.0000E+00  0.2000E+01
    -25.150  0.0000E+00  0.2000E+01
    -24.986  0.0000E+00  0.2000E+01
    -24.822  0.0000E+00  0.2000E+01
    -24.657  0.0000E+00  0.2000E+01
    -24.493  0.0000E+00  0.2000E+01
    -24.329  0.0000E+00  0.2000E+01
    -24.164  0.0000E+00  0.2000E+01
    -24.000  0.0000E+00  0.2000E+01
    -23.836  0.0000E+00  0.2000E+01
    -23.671  0.0000E+00  0.2000E+01
    -23.507  0.0000E+00  0.2000E+01
    -23.343  0.0000E+00  0.2000E+01
    -23.178  0.0000E+00  0.2000E+01
    -23.014  0.0000E+00  0.2000E+01
    -22.850  0.0000E+00  0.2000E+01
    -22.685  0.0000E+00  0.2000E+01
    -22.521  0.0000E+00  0.2000E+01
    -22.356  0.0000E+00  0.2000E+01
    -22.192  0.0000E+00  0.2000E+01
    -22.028  0.0000E+00  0.2000E+01
    -21.863  0.0000E+00  0.2000E+01
    -21.699  0.0000E+00  0.2000E+01
    -21.535  0.0000E+00  0.2000E+01
    -21.370  0.0000E+00  0.2000E+01
    -21.206  0.0000E+00  0.2000E+01
    -21.042  0.0000E+00  0.2000E+01
    -20.877  0.0000E+00  0.2000E+01
    -20.713  0.0000E+00  0.2000E+01
    -20.549  0.0000E+00  0.2000E+01
    -20.384  0.0000E+00  0.2000E+01
    -20.220  0.0000E+00  0.2000E+01
    -20.055  0.0000E+00  0.2000E+01
    -19.891  0.0000E+00  0.2000E+01
    -19.727  0.0000E+00  0.2000E+01
    -19.562  0.0000E+00  0.2000E+01
    -19.398  0.0000E+00  0.2000E+01
    -19.234  0.0000E+00  0.2000E+01
    -19.069  0.0000E+00  0.2000E+01
    -18.905  0.0000E+00  0.2000E+01
    -18.741  0.0000E+00  0.2000E+01
    -18.576  0.0000E+00  0.2000E+01
    -18.412  0.0000E+00  0.2000E+01
    -18.248  0.0000E+00  0.2000E+01
    -18.083  0.0000E+00  0.2000E+01
    -17.919  0.0000E+00  0.2000E+01
    -17.754  0.0000E+00  0.2000E+01
    -17.590  0.0000E+00  0.2000E+01
    -17.426  0.0000E+00  0.2000E+01
    -17.261  0.0000E+00  0.2000E+01
    -17.097  0.0000E+00  0.2000E+01
    -16.933  0.0000E+00  0.2000E+01
    -16.768  0.0000E+00  0.2000E+01
    -16.604  0.0000E+00  0.2000E+01
    -16.440  0.0000E+00  0.2000E+01
    -16.275  0.0000E+00  0.2000E+01
    -16.111  0.0000E+00  0.2000E+01
    -15.947  0.0000E+00  0.2000E+01
    -15.782  0.0000E+00  0.2000E+01
    -15.618  0.0000E+00  0.2000E+01
    -15.453  0.0000E+00  0.2000E+01
    -15.289  0.0000E+00  0.2000E+01
    -15.125  0.0000E+00  0.2000E+01
    -14.960  0.0000E+00  0.2000E+01
    -14.796  0.0000E+00  0.2000E+01
    -14.632  0.0000E+00  0.2000E+01
    -14.467  0.0000E+00  0.2000E+01
    -14.303  0.0000E+00  0.2000E+01
    -14.139  0.0000E+00  0.2000E+01
    -13.974  0.0000E+00  0.2000E+01
    -13.810  0.0000E+00  0.2000E+01
    -13.646  0.0000E+00  0.2000E+01
    -13.481  0.0000E+00  0.2000E+01
    -13.317  0.0000E+00  0.2000E+01
    -13.152  0.0000E+00  0.2000E+01
    -12.988  0.0000E+00  0.2000E+01
    -12.824  0.0000E+00  0.2000E+01
    -12.659  0.0000E+00  0.2000E+01
    -12.495  0.0000E+00  0.2000E+01
    -12.331  0.0000E+00  0.2000E+01
    -12.166  0.0000E+00  0.2000E+01
    -12.002  0.4769E+02  0.1200E+02
    -11.838  0.0000E+00  0.1200E+02
    -11.673  0.0000E+00  0.1200E+02
    -11.509  0.0000E+00  0.1200E+02
    -11.345  0.0000E+00  0.1200E+02
    -11.180  0.0000E+00  0.1200E+02
    -11.016  0.0000E+00  0.1200E+02
    -10.851  0.0000E+00  0.1200E+02
    -10.687  0.0000E+00  0.1200E+02
    -10.523  0.0000E+00  0.1200E+02
    -10.358  0.0000E+00  0.1200E+02
    -10.194  0.0000E+00  0.1200E+02
    -10.030  0.0000E+00  0.1200E+02
     -9.865  0.0000E+00  0.1200E+02
     -9.701  0.0000E+00  0.1200E+02
     -9.537  0.0000E+00  0.1200E+02
     -9.372  0.0000E+00  0.1200E+02
     -9.208  0.0000E+00  0.1200E+02
     -9.044  0.0000E+00  0.1200E+02
     -8.879  0.0000E+00  0.1200E+02
     -8.715  0.6656E+00  0.1211E+02
     -8.550  0.3272E+01  0.1398E+02
     -8.386  0.1285E+02  0.1758E+02
     -8.222  0.0000E+00  0.1800E+02
     -8.057  0.0000E+00  0.1800E+02
     -7.893  0.0000E+00  0.1800E+02
     -7.729  0.0000E+00  0.1800E+02
     -7.564  0.0000E+00  0.1800E+02
     -7.400  0.0000E+00  0.1800E+02
     -7.236  0.0000E+00  0.1800E+02
     -7.071  0.0000E+00  0.1800E+02
     -6.907  0.0000E+00  0.1800E+02
     -6.743  0.0000E+00  0.1800E+02
     -6.578  0.0000E+00  0.1800E+02
     -6.414  0.0000E+00  0.1800E+02
     -6.249  0.0000E+00  0.1800E+02
     -6.085  0.0000E+00  0.1800E+02
     -5.921  0.0000E+00  0.1800E+02
     -5.756  0.0000E+00  0.1800E+02
     -5.592  0.0000E+00  0.1800E+02
     -5.428  0.0000E+00  0.1800E+02
     -5.263  0.0000E+00  0.1800E+02
     -5.099  0.0000E+00  0.1800E+02
     -4.935  0.0000E+00  0.1800E+02
     -4.770  0.0000E+00  0.1800E+02
     -4.606  0.0000E+00  0.1800E+02
     -4.442  0.0000E+00  0.1800E+02
     -4.277  0.0000E+00  0.1800E+02
     -4.113  0.0000E+00  0.1800E+02
     -3.948  0.0000E+00  0.1800E+02
     -3.784  0.0000E+00  0.1800E+02
     -3.620  0.0000E+00  0.1800E+02
     -3.455  0.0000E+00  0.1800E+02
     -3.291  0.0000E+00  0.1800E+02
     -3.127  0.0000E+00  0.1800E+02
     -2.962  0.0000E+00  0.1800E+02
     -2.798  0.0000E+00  0.1800E+02
     -2.634  0.0000E+00  0.1800E+02
     -2.469  0.0000E+00  0.1800E+02
     -2.305  0.0000E+00  0.1800E+02
     -2.141  0.0000E+00  0.1800E+02
     -1.976  0.1776E-08  0.1800E+02
     -1.812  0.7752E-01  0.1801E+02
     -1.647  0.1315E+00  0.1805E+02
     -1.483  0.8463E-01  0.1807E+02
     -1.319  0.2739E+00  0.1815E+02
     -1.154  0.5165E+00  0.1826E+02
     -0.990  0.1312E+01  0.1853E+02
     -0.826  0.2157E+01  0.1923E+02
     -0.661  0.1506E+01  0.1984E+02
     -0.497  0.1768E+00  0.2000E+02
     -0.333  0.0000E+00  0.2000E+02
     -0.168  0.0000E+00  0.2000E+02
     -0.004  0.0000E+00  0.2000E+02
      0.160  0.0000E+00  0.2000E+02
      0.325  0.0000E+00  0.2000E+02
      0.489  0.0000E+00  0.2000E+02
      0.654  0.0000E+00  0.2000E+02
      0.818  0.0000E+00  0.2000E+02
      0.982  0.0000E+00  0.2000E+02
      1.147  0.0000E+00  0.2000E+02
      1.311  0.0000E+00  0.2000E+02
      1.475  0.0000E+00  0.2000E+02
      1.640  0.0000E+00  0.2000E+02
      1.804  0.0000E+00  0.2000E+02
      1.968  0.0000E+00  0.2000E+02
      2.133  0.0000E+00  0.2000E+02
      2.297  0.0000E+00  0.2000E+02
      2.461  0.0000E+00  0.2000E+02
      2.626  0.0000E+00  0.2000E+02
      2.790  0.0000E+00  0.2000E+02
      2.955  0.0000E+00  0.2000E+02
      3.119  0.0000E+00  0.2000E+02
      3.283  0.0000E+00  0.2000E+02
      3.448  0.0000E+00  0.2000E+02
      3.612  0.0000E+00  0.2000E+02
      3.776  0.0000E+00  0.2000E+02
      3.941  0.0000E+00  0.2000E+02
      4.105  0.0000E+00  0.2000E+02
      4.269  0.0000E+00  0.2000E+02
      4.434  0.1963E+00  0.2003E+02
      4.598  0.1688E+01  0.2038E+02
      4.762  0.8427E+00  0.2081E+02
      4.927  0.4764E+00  0.2113E+02
      5.091  0.1256E+01  0.2143E+02
      5.256  0.1505E+01  0.2174E+02
      5.420  0.2851E+01  0.2279E+02
      5.584  0.2525E+01  0.2371E+02
      5.749  0.2944E+01  0.2463E+02
      5.913  0.2486E+01  0.2553E+02
      6.077  0.6480E+00  0.2593E+02
      6.242  0.3003E+00  0.2607E+02
      6.406  0.5760E+01  0.2723E+02
      6.570  0.2678E+01  0.2862E+02
      6.735  0.3270E+01  0.2981E+02
      6.899  0.5141E+00  0.3023E+02
      7.063  0.1184E+01  0.3054E+02
      7.228  0.1385E+01  0.3103E+02
      7.392  0.1174E+01  0.3140E+02
      7.556  0.5480E+00  0.3162E+02
      7.721  0.1144E+01  0.3184E+02
      7.885  0.5933E+00  0.3200E+02
      8.050  0.6855E+00  0.3217E+02
      8.214  0.3314E+00  0.3247E+02
      8.378  0.5338E+00  0.3264E+02
      8.543  0.1196E+01  0.3304E+02
      8.707  0.2971E+00  0.3317E+02
      8.871  0.6673E+00  0.3347E+02
      9.036  0.3995E+00  0.3366E+02
      9.200  0.4437E+01  0.3460E+02
      9.364  0.2496E+01  0.3569E+02
      9.529  0.2879E+00  0.3597E+02
      9.693  0.1049E+00  0.3600E+02
      9.857  0.0000E+00  0.3600E+02
     10.022  0.1158E-05  0.3600E+02
     10.186  0.4897E-01  0.3603E+02
     10.351  0.1089E+01  0.3640E+02
     10.515  0.1904E+01  0.3701E+02
     10.679  0.2038E+01  0.3764E+02
     10.844  0.4080E+00  0.3801E+02
     11.008  0.1126E+02  0.4015E+02
     11.172  0.4889E+01  0.4188E+02
     11.337  0.9764E+01  0.4428E+02
     11.501  0.7198E+01  0.4706E+02
     11.665  0.7474E+00  0.4798E+02
     11.830  0.0000E+00  0.4800E+02
     11.994  0.0000E+00  0.4800E+02
     12.158  0.0000E+00  0.4800E+02
     12.323  0.0000E+00  0.4800E+02
     12.487  0.0000E+00  0.4800E+02
     12.652  0.0000E+00  0.4800E+02
     12.816  0.0000E+00  0.4800E+02
     12.980  0.0000E+00  0.4800E+02
     13.145  0.0000E+00  0.4800E+02
     13.309  0.0000E+00  0.4800E+02
     13.473  0.0000E+00  0.4800E+02
     13.638  0.0000E+00  0.4800E+02
     13.802  0.0000E+00  0.4800E+02
     13.966  0.0000E+00  0.4800E+02
