    3    3    1    1
  0.2288362E+02  0.4596074E-09  0.4596074E-09  0.4596074E-09  0.5000000E-15
  1.000000000000000E-004
  CAR
 unknown system
     39     84     24

  0.0000000E+00  0.0000000E+00  0.0000000E+00  0.4551661E-03
    1      -33.099385   1.000000
    2      -12.067583   1.000000
    3      -12.067583   1.000000
    4      -12.034771   1.000000
    5      -12.034771   1.000000
    6      -12.034771   1.000000
    7       -8.457710   1.000000
    8       -8.457710   1.000000
    9       -8.457710   1.000000
   10       -1.940993   1.000000
   11        6.064477   1.000000
   12        6.064477   1.000000
   13        6.064477   1.000000
   14        6.250506   1.000000
   15        6.250506   1.000000
   16        9.541378   1.000000
   17        9.678779   1.000000
   18        9.678779   1.000000
   19        9.678779   1.000000
   20       10.865398   1.000000
   21       10.865398   1.000000
   22       10.865398   1.000000
   23       11.250134   0.000000
   24       11.250134   0.000000

  0.7692308E-01  0.5016940E-17  0.1407200E-17  0.3641329E-02
    1      -33.098986   1.000000
    2      -12.069874   1.000000
    3      -12.069874   1.000000
    4      -12.035192   1.000000
    5      -12.034500   1.000000
    6      -12.034500   1.000000
    7       -8.477797   1.000000
    8       -8.452582   1.000000
    9       -8.452582   1.000000
   10       -1.859645   1.000000
   11        5.901846   1.000000
   12        5.901846   1.000000
   13        5.937789   1.000000
   14        6.403333   1.000000
   15        6.403333   1.000000
   16        8.943910   1.000000
   17        9.614936   1.000000
   18        9.614936   1.000000
   19       10.050450   1.000000
   20       10.871172   1.000000
   21       10.871172   1.000000
   22       10.903135   1.000000
   23       11.319850   0.000000
   24       11.342233   0.000000

  0.1538462E+00 -0.2813120E-18  0.1854186E-17  0.3641329E-02
    1      -33.097889   1.000000
    2      -12.076222   1.000000
    3      -12.076222   1.000000
    4      -12.036495   1.000000
    5      -12.033726   1.000000
    6      -12.033726   1.000000
    7       -8.530905   1.000000
    8       -8.438435   1.000000
    9       -8.438435   1.000000
   10       -1.633539   1.000000
   11        5.610537   1.000000
   12        5.703166   1.000000
   13        5.703166   1.000000
   14        6.560453   1.000000
   15        6.560453   1.000000
   16        8.257337   1.000000
   17        9.481624   1.000000
   18        9.481624   1.000000
   19       10.102454   1.000000
   20       10.888370   1.000000
   21       10.888370   1.000000
   22       11.154032   0.000000
   23       11.255441   0.000000
   24       11.466102   0.000000

  0.2307692E+00 -0.2203266E-17  0.4562576E-17  0.3641329E-02
    1      -33.096344   1.000000
    2      -12.085136   1.000000
    3      -12.085136   1.000000
    4      -12.038696   1.000000
    5      -12.032583   1.000000
    6      -12.032583   1.000000
    7       -8.599876   1.000000
    8       -8.418621   1.000000
    9       -8.418621   1.000000
   10       -1.312334   1.000000
   11        5.196274   1.000000
   12        5.556330   1.000000
   13        5.556330   1.000000
   14        6.612079   1.000000
   15        6.612079   1.000000
   16        7.646505   1.000000
   17        9.375132   1.000000
   18        9.375132   1.000000
   19       10.082052   1.000000
   20       10.917902   1.000000
   21       10.917902   1.000000
   22       11.269614   0.000000
   23       11.316879   0.000000
   24       11.562036   0.000000

  0.3076923E+00 -0.5626240E-18  0.3708371E-17  0.3641329E-02
    1      -33.094704   1.000000
    2      -12.094517   1.000000
    3      -12.094517   1.000000
    4      -12.041509   1.000000
    5      -12.031329   1.000000
    6      -12.031329   1.000000
    7       -8.666264   1.000000
    8       -8.397755   1.000000
    9       -8.397755   1.000000
   10       -0.967320   1.000000
   11        4.803971   1.000000
   12        5.476151   1.000000
   13        5.476151   1.000000
   14        6.548213   1.000000
   15        6.548213   1.000000
   16        7.169941   1.000000
   17        9.338743   1.000000
   18        9.338743   1.000000
   19       10.116103   1.000000
   20       10.961258   0.820660
   21       10.961258   0.820658
   22       11.273320   0.000000
   23       11.401480   0.000000
   24       11.541148   0.000000

  0.3846154E+00 -0.5952846E-17  0.9885030E-17  0.3641329E-02
    1      -33.093345   1.000000
    2      -12.102216   1.000000
    3      -12.102216   1.000000
    4      -12.044222   1.000000
    5      -12.030272   1.000000
    6      -12.030272   1.000000
    7       -8.716450   1.000000
    8       -8.380591   1.000000
    9       -8.380591   1.000000
   10       -0.677890   1.000000
   11        4.510802   1.000000
   12        5.456211   1.000000
   13        5.456211   1.000000
   14        6.422266   1.000000
   15        6.422266   1.000000
   16        6.849290   1.000000
   17        9.351698   1.000000
   18        9.351698   1.000000
   19       10.196179   1.000000
   20       11.016545   0.000000
   21       11.016545   0.000000
   22       11.271605   0.000000
   23       11.455520   0.000000
   24       11.455520   0.000000

  0.4615385E+00  0.1303385E-16 -0.8315231E-17  0.3641329E-02
    1      -33.092578   1.000000
    2      -12.106541   1.000000
    3      -12.106541   1.000000
    4      -12.045911   1.000000
    5      -12.029674   1.000000
    6      -12.029674   1.000000
    7       -8.742977   1.000000
    8       -8.370951   1.000000
    9       -8.370951   1.000000
   10       -0.513248   1.000000
   11        4.357634   1.000000
   12        5.466489   1.000000
   13        5.466489   1.000000
   14        6.321821   1.000000
   15        6.321821   1.000000
   16        6.688976   1.000000
   17        9.371528   1.000000
   18        9.371528   1.000000
   19       10.268605   1.000000
   20       11.066610   0.000000
   21       11.066610   0.000000
   22       11.371706   0.000000
   23       11.379217   0.000000
   24       11.381891   0.000000

  0.7692308E-01  0.7692308E-01 -0.6725004E-18  0.2730997E-02
    1      -33.098856   1.000000
    2      -12.073817   1.000000
    3      -12.067027   1.000000
    4      -12.035427   1.000000
    5      -12.034362   1.000000
    6      -12.034362   1.000000
    7       -8.468098   1.000000
    8       -8.459304   1.000000
    9       -8.459304   1.000000
   10       -1.834337   1.000000
   11        5.623794   1.000000
   12        6.077266   1.000000
   13        6.077266   1.000000
   14        6.264726   1.000000
   15        6.460999   1.000000
   16        8.931744   1.000000
   17        9.510347   1.000000
   18        9.510347   1.000000
   19       10.199030   1.000000
   20       10.814063   1.000000
   21       10.905166   1.000000
   22       10.905166   1.000000
   23       11.262453   0.000000
   24       11.336554   0.000000

  0.1538462E+00  0.7692308E-01  0.3321049E-17  0.1092399E-01
    1      -33.097997   1.000000
    2      -12.080810   1.000000
    3      -12.068872   1.000000
    4      -12.036434   1.000000
    5      -12.033825   1.000000
    6      -12.033678   1.000000
    7       -8.508678   1.000000
    8       -8.455636   1.000000
    9       -8.443427   1.000000
   10       -1.662136   1.000000
   11        5.326659   1.000000
   12        5.944596   1.000000
   13        5.950629   1.000000
   14        6.394405   1.000000
   15        6.581657   1.000000
   16        8.461537   1.000000
   17        9.365791   1.000000
   18        9.370079   1.000000
   19       10.270332   1.000000
   20       10.855034   1.000000
   21       10.922827   1.000000
   22       11.065359   0.000000
   23       11.269099   0.000000
   24       11.443702   0.000000

  0.2307692E+00  0.7692308E-01  0.8246792E-18  0.1092399E-01
    1      -33.096609   1.000000
    2      -12.089225   1.000000
    3      -12.075034   1.000000
    4      -12.038146   1.000000
    5      -12.033046   1.000000
    6      -12.032512   1.000000
    7       -8.572913   1.000000
    8       -8.442522   1.000000
    9       -8.421646   1.000000
   10       -1.382769   1.000000
   11        5.044675   1.000000
   12        5.685319   1.000000
   13        5.799705   1.000000
   14        6.482141   1.000000
   15        6.679868   1.000000
   16        7.888901   1.000000
   17        9.231139   1.000000
   18        9.269589   1.000000
   19       10.240761   1.000000
   20       10.892304   1.000000
   21       10.936709   0.999994
   22       11.262848   0.000000
   23       11.272741   0.000000
   24       11.533631   0.000000

  0.3076923E+00  0.7692308E-01  0.7777614E-17  0.1092399E-01
    1      -33.095008   1.000000
    2      -12.097143   1.000000
    3      -12.083965   1.000000
    4      -12.040492   1.000000
    5      -12.032091   1.000000
    6      -12.031185   1.000000
    7       -8.640045   1.000000
    8       -8.423067   1.000000
    9       -8.401486   1.000000
   10       -1.060579   1.000000
   11        4.783827   1.000000
   12        5.476332   1.000000
   13        5.691971   1.000000
   14        6.454763   1.000000
   15        6.678584   1.000000
   16        7.376706   1.000000
   17        9.160647   1.000000
   18        9.254428   1.000000
   19       10.226288   1.000000
   20       10.946642   0.998581
   21       10.961813   0.799339
   22       11.275912   0.000000
   23       11.354440   0.000000
   24       11.535468   0.000000

  0.3846154E+00  0.7692308E-01  0.1048600E-16  0.1092399E-01
    1      -33.093562   1.000000
    2      -12.102801   1.000000
    3      -12.093511   1.000000
    4      -12.043022   1.000000
    5      -12.031131   1.000000
    6      -12.030067   1.000000
    7       -8.695018   1.000000
    8       -8.401764   1.000000
    9       -8.387421   1.000000
   10       -0.770298   1.000000
   11        4.570784   1.000000
   12        5.384925   1.000000
   13        5.618006   1.000000
   14        6.366327   1.000000
   15        6.584465   1.000000
   16        6.990454   1.000000
   17        9.158829   1.000000
   18        9.288596   1.000000
   19       10.259698   1.000000
   20       11.004019   0.000000
   21       11.008010   0.000000
   22       11.276862   0.000000
   23       11.392150   0.000000
   24       11.493215   0.000000

  0.4615385E+00  0.7692308E-01  0.9631800E-17  0.1092399E-01
    1      -33.092603   1.000000
    2      -12.104962   1.000000
    3      -12.101479   1.000000
    4      -12.044919   1.000000
    5      -12.030379   1.000000
    6      -12.029437   1.000000
    7       -8.728714   1.000000
    8       -8.383430   1.000000
    9       -8.382459   1.000000
   10       -0.578305   1.000000
   11        4.441255   1.000000
   12        5.400870   1.000000
   13        5.541073   1.000000
   14        6.316983   1.000000
   15        6.451731   1.000000
   16        6.760155   1.000000
   17        9.183375   1.000000
   18        9.322306   1.000000
   19       10.318535   1.000000
   20       11.058547   0.000000
   21       11.059810   0.000000
   22       11.271551   0.000000
   23       11.369589   0.000000
   24       11.440631   0.000000

 -0.4615385E+00  0.7692308E-01 -0.6698074E-17  0.1092399E-01
    1      -33.092346   1.000000
    2      -12.106137   1.000000
    3      -12.103199   1.000000
    4      -12.045423   1.000000
    5      -12.030051   1.000000
    6      -12.029435   1.000000
    7       -8.737123   1.000000
    8       -8.387518   1.000000
    9       -8.372143   1.000000
   10       -0.525902   1.000000
   11        4.408158   1.000000
   12        5.440916   1.000000
   13        5.482961   1.000000
   14        6.346860   1.000000
   15        6.370294   1.000000
   16        6.703523   1.000000
   17        9.188039   1.000000
   18        9.330849   1.000000
   19       10.343695   1.000000
   20       11.065347   0.000000
   21       11.094176   0.000000
   22       11.260655   0.000000
   23       11.376296   0.000000
   24       11.389254   0.000000

 -0.3846154E+00  0.7692308E-01 -0.7552279E-17  0.1092399E-01
    1      -33.092854   1.000000
    2      -12.106501   1.000000
    3      -12.097868   1.000000
    4      -12.044301   1.000000
    5      -12.030244   1.000000
    6      -12.030032   1.000000
    7       -8.719560   1.000000
    8       -8.401306   1.000000
    9       -8.370426   1.000000
   10       -0.624085   1.000000
   11        4.476818   1.000000
   12        5.350719   1.000000
   13        5.583599   1.000000
   14        6.325053   1.000000
   15        6.502747   1.000000
   16        6.822061   1.000000
   17        9.147662   1.000000
   18        9.321876   1.000000
   19       10.307200   1.000000
   20       11.024278   0.000000
   21       11.063334   0.000000
   22       11.267251   0.000000
   23       11.408809   0.000000
   24       11.427790   0.000000

 -0.3076923E+00  0.7692308E-01 -0.8312156E-17  0.1092399E-01
    1      -33.094009   1.000000
    2      -12.102503   1.000000
    3      -12.090078   1.000000
    4      -12.042027   1.000000
    5      -12.031061   1.000000
    6      -12.030944   1.000000
    7       -8.678033   1.000000
    8       -8.420585   1.000000
    9       -8.378730   1.000000
   10       -0.853379   1.000000
   11        4.657680   1.000000
   12        5.313438   1.000000
   13        5.684098   1.000000
   14        6.384365   1.000000
   15        6.647191   1.000000
   16        7.104595   1.000000
   17        9.072495   1.000000
   18        9.326363   1.000000
   19       10.252194   1.000000
   20       10.978298   0.067844
   21       10.999134   0.000005
   22       11.272470   0.000000
   23       11.405301   0.000000
   24       11.477548   0.000000

 -0.2307692E+00  0.7692308E-01 -0.9166361E-17  0.1092399E-01
    1      -33.095547   1.000000
    2      -12.095023   1.000000
    3      -12.081533   1.000000
    4      -12.039455   1.000000
    5      -12.032267   1.000000
    6      -12.031985   1.000000
    7       -8.618447   1.000000
    8       -8.440767   1.000000
    9       -8.395260   1.000000
   10       -1.162930   1.000000
   11        4.943238   1.000000
   12        5.352747   1.000000
   13        5.809004   1.000000
   14        6.445467   1.000000
   15        6.732402   1.000000
   16        7.534163   1.000000
   17        9.015336   1.000000
   18        9.381027   1.000000
   19       10.227787   1.000000
   20       10.936030   0.999996
   21       10.945074   0.999329
   22       11.270415   0.000000
   23       11.341311   0.000000
   24       11.533132   0.000000

 -0.1538462E+00  0.7692308E-01 -0.2989702E-17  0.1092399E-01
    1      -33.097116   1.000000
    2      -12.085704   1.000000
    3      -12.074228   1.000000
    4      -12.037303   1.000000
    5      -12.033371   1.000000
    6      -12.033103   1.000000
    7       -8.552645   1.000000
    8       -8.456550   1.000000
    9       -8.416302   1.000000
   10       -1.480452   1.000000
   11        5.289199   1.000000
   12        5.473908   1.000000
   13        5.973991   1.000000
   14        6.422037   1.000000
   15        6.711812   1.000000
   16        8.068229   1.000000
   17        9.061688   1.000000
   18        9.492124   1.000000
   19       10.241554   1.000000
   20       10.884219   1.000000
   21       10.922883   1.000000
   22       11.230836   0.000000
   23       11.265425   0.000000
   24       11.507090   0.000000

 -0.7692308E-01  0.7692308E-01  0.1360853E-17  0.5461994E-02
    1      -33.098359   1.000000
    2      -12.076632   1.000000
    3      -12.069988   1.000000
    4      -12.035878   1.000000
    5      -12.034149   1.000000
    6      -12.034002   1.000000
    7       -8.499866   1.000000
    8       -8.461311   1.000000
    9       -8.437032   1.000000
   10       -1.731960   1.000000
   11        5.632983   1.000000
   12        5.666526   1.000000
   13        6.088650   1.000000
   14        6.344647   1.000000
   15        6.587994   1.000000
   16        8.589494   1.000000
   17        9.298506   1.000000
   18        9.601290   1.000000
   19       10.218858   1.000000
   20       10.856545   1.000000
   21       10.895493   1.000000
   22       11.036549   0.000000
   23       11.258639   0.000000
   24       11.399670   0.000000

  0.1538462E+00  0.1538462E+00 -0.1345001E-17  0.2730997E-02
    1      -33.097418   1.000000
    2      -12.086764   1.000000
    3      -12.065483   1.000000
    4      -12.037435   1.000000
    5      -12.033158   1.000000
    6      -12.033158   1.000000
    7       -8.498047   1.000000
    8       -8.463911   1.000000
    9       -8.463911   1.000000
   10       -1.560753   1.000000
   11        5.006505   1.000000
   12        6.097833   1.000000
   13        6.097833   1.000000
   14        6.304683   1.000000
   15        6.519453   1.000000
   16        8.427649   1.000000
   17        9.223900   1.000000
   18        9.223900   1.000000
   19       10.286356   1.000000
   20       10.947691   0.997719
   21       10.947691   0.997719
   22       11.011828   0.000000
   23       11.299619   0.000000
   24       11.499833   0.000000

  0.2307692E+00  0.1538462E+00 -0.5421270E-17  0.1092399E-01
    1      -33.096282   1.000000
    2      -12.092655   1.000000
    3      -12.067070   1.000000
    4      -12.038884   1.000000
    5      -12.032410   1.000000
    6      -12.032086   1.000000
    7       -8.545596   1.000000
    8       -8.461387   1.000000
    9       -8.448178   1.000000
   10       -1.357771   1.000000
   11        4.756652   1.000000
   12        5.947938   1.000000
   13        6.014864   1.000000
   14        6.377900   1.000000
   15        6.578194   1.000000
   16        8.117834   1.000000
   17        9.052988   1.000000
   18        9.138378   1.000000
   19       10.316205   1.000000
   20       10.917003   1.000000
   21       10.960998   0.830109
   22       11.182314   0.000000
   23       11.314320   0.000000
   24       11.561436   0.000000

  0.3076923E+00  0.1538462E+00  0.7602313E-17  0.1092399E-01
    1      -33.094852   1.000000
    2      -12.097149   1.000000
    3      -12.073218   1.000000
    4      -12.040500   1.000000
    5      -12.031877   1.000000
    6      -12.030699   1.000000
    7       -8.608207   1.000000
    8       -8.448761   1.000000
    9       -8.428689   1.000000
   10       -1.106614   1.000000
   11        4.607285   1.000000
   12        5.688199   1.000000
   13        5.903522   1.000000
   14        6.391471   1.000000
   15        6.653693   1.000000
   16        7.691373   1.000000
   17        8.889817   1.000000
   18        9.138800   1.000000
   19       10.360248   1.000000
   20       10.937298   0.999992
   21       10.978173   0.070204
   22       11.278288   0.000000
   23       11.315776   0.000000
   24       11.564123   0.000000

  0.3846154E+00  0.1538462E+00  0.7708323E-17  0.1092399E-01
    1      -33.093457   1.000000
    2      -12.099277   1.000000
    3      -12.082278   1.000000
    4      -12.042125   1.000000
    5      -12.031556   1.000000
    6      -12.029485   1.000000
    7       -8.662979   1.000000
    8       -8.429010   1.000000
    9       -8.417581   1.000000
   10       -0.869367   1.000000
   11        4.564118   1.000000
   12        5.485999   1.000000
   13        5.789219   1.000000
   14        6.354128   1.000000
   15        6.652175   1.000000
   16        7.272394   1.000000
   17        8.817061   1.000000
   18        9.187167   1.000000
   19       10.381194   1.000000
   20       10.994152   0.000094
   21       11.010265   0.000000
   22       11.309691   0.000000
   23       11.317070   0.000000
   24       11.532126   0.000000

  0.4615385E+00  0.1538462E+00  0.6854118E-17  0.1092399E-01
    1      -33.092414   1.000000
    2      -12.098667   1.000000
    3      -12.092070   1.000000
    4      -12.043394   1.000000
    5      -12.031369   1.000000
    6      -12.028800   1.000000
    7       -8.699358   1.000000
    8       -8.417461   1.000000
    9       -8.406645   1.000000
   10       -0.696355   1.000000
   11        4.590756   1.000000
   12        5.399386   1.000000
   13        5.641514   1.000000
   14        6.359315   1.000000
   15        6.575519   1.000000
   16        6.960863   1.000000
   17        8.803516   1.000000
   18        9.226076   1.000000
   19       10.416237   1.000000
   20       11.042354   0.000000
   21       11.060610   0.000000
   22       11.293169   0.000000
   23       11.336652   0.000000
   24       11.505479   0.000000

 -0.4615385E+00  0.1538462E+00 -0.4270995E-17  0.1092399E-01
    1      -33.091961   1.000000
    2      -12.100386   1.000000
    3      -12.095558   1.000000
    4      -12.043748   1.000000
    5      -12.031310   1.000000
    6      -12.028771   1.000000
    7       -8.712726   1.000000
    8       -8.427727   1.000000
    9       -8.386694   1.000000
   10       -0.614821   1.000000
   11        4.613399   1.000000
   12        5.439905   1.000000
   13        5.470074   1.000000
   14        6.446220   1.000000
   15        6.461887   1.000000
   16        6.833403   1.000000
   17        8.791107   1.000000
   18        9.231358   1.000000
   19       10.452046   1.000000
   20       11.046032   0.000000
   21       11.118651   0.000000
   22       11.258924   0.000000
   23       11.370660   0.000000
   24       11.443993   0.000000

 -0.3846154E+00  0.1538462E+00 -0.5125200E-17  0.1092399E-01
    1      -33.092203   1.000000
    2      -12.105461   1.000000
    3      -12.090660   1.000000
    4      -12.042925   1.000000
    5      -12.031403   1.000000
    6      -12.029359   1.000000
    7       -8.702638   1.000000
    8       -8.445080   1.000000
    9       -8.373621   1.000000
   10       -0.635969   1.000000
   11        4.600400   1.000000
   12        5.320505   1.000000
   13        5.575157   1.000000
   14        6.370554   1.000000
   15        6.586810   1.000000
   16        6.915723   1.000000
   17        8.732104   1.000000
   18        9.218931   1.000000
   19       10.452413   1.000000
   20       11.012674   0.000000
   21       11.132313   0.000000
   22       11.241471   0.000000
   23       11.407106   0.000000
   24       11.419424   0.000000

 -0.3076923E+00  0.1538462E+00  0.1146098E-16  0.1092399E-01
    1      -33.093084   1.000000
    2      -12.106230   1.000000
    3      -12.084888   1.000000
    4      -12.041305   1.000000
    5      -12.031646   1.000000
    6      -12.030372   1.000000
    7       -8.671895   1.000000
    8       -8.464074   1.000000
    9       -8.370406   1.000000
   10       -0.762959   1.000000
   11        4.611967   1.000000
   12        5.231172   1.000000
   13        5.754752   1.000000
   14        6.332367   1.000000
   15        6.728315   1.000000
   16        7.174727   1.000000
   17        8.619658   1.000000
   18        9.226739   1.000000
   19       10.421379   1.000000
   20       10.978975   0.056178
   21       11.070871   0.000000
   22       11.268790   0.000000
   23       11.394837   0.000000
   24       11.438577   0.000000

 -0.2307692E+00  0.1538462E+00 -0.6739282E-17  0.1092399E-01
    1      -33.094403   1.000000
    2      -12.102533   1.000000
    3      -12.079365   1.000000
    4      -12.039628   1.000000
    5      -12.032007   1.000000
    6      -12.031549   1.000000
    7       -8.627495   1.000000
    8       -8.477462   1.000000
    9       -8.377876   1.000000
   10       -0.980404   1.000000
   11        4.726094   1.000000
   12        5.224128   1.000000
   13        5.942412   1.000000
   14        6.323081   1.000000
   15        6.813693   1.000000
   16        7.546496   1.000000
   17        8.516622   1.000000
   18        9.289117   1.000000
   19       10.385722   1.000000
   20       10.958438   0.906017
   21       10.996364   0.000026
   22       11.281174   0.000000
   23       11.356886   0.000000
   24       11.486829   0.000000

 -0.1538462E+00  0.1538462E+00 -0.5626240E-18  0.5461994E-02
    1      -33.095858   1.000000
    2      -12.095164   1.000000
    3      -12.075413   1.000000
    4      -12.038323   1.000000
    5      -12.032615   1.000000
    6      -12.032490   1.000000
    7       -8.583099   1.000000
    8       -8.476099   1.000000
    9       -8.394427   1.000000
   10       -1.241847   1.000000
   11        4.964692   1.000000
   12        5.307045   1.000000
   13        6.085440   1.000000
   14        6.307870   1.000000
   15        6.806859   1.000000
   16        7.887963   1.000000
   17        8.614553   1.000000
   18        9.400232   1.000000
   19       10.344465   1.000000
   20       10.927784   1.000000
   21       10.944381   0.999524
   22       11.277627   0.000000
   23       11.302907   0.000000
   24       11.521505   0.000000

  0.2307692E+00  0.2307692E+00 -0.2017501E-17  0.2730997E-02
    1      -33.095438   1.000000
    2      -12.094510   1.000000
    3      -12.063313   1.000000
    4      -12.040431   1.000000
    5      -12.031227   1.000000
    6      -12.031227   1.000000
    7       -8.543920   1.000000
    8       -8.470879   1.000000
    9       -8.470879   1.000000
   10       -1.252377   1.000000
   11        4.560635   1.000000
   12        6.086392   1.000000
   13        6.086392   1.000000
   14        6.362472   1.000000
   15        6.404507   1.000000
   16        8.086120   1.000000
   17        9.062493   1.000000
   18        9.062493   1.000000
   19       10.259527   1.000000
   20       10.977585   0.082077
   21       10.977585   0.082076
   22       11.141619   0.000000
   23       11.361624   0.000000
   24       11.630661   0.000000

  0.3076923E+00  0.2307692E+00 -0.6109802E-17  0.1092399E-01
    1      -33.094272   1.000000
    2      -12.094334   1.000000
    3      -12.064838   1.000000
    4      -12.041949   1.000000
    5      -12.030385   1.000000
    6      -12.029928   1.000000
    7       -8.587111   1.000000
    8       -8.468899   1.000000
    9       -8.463294   1.000000
   10       -1.103977   1.000000
   11        4.502621   1.000000
   12        5.899868   1.000000
   13        6.023171   1.000000
   14        6.389670   1.000000
   15        6.451990   1.000000
   16        7.867480   1.000000
   17        8.914602   1.000000
   18        9.073249   1.000000
   19       10.360159   1.000000
   20       10.961665   0.805181
   21       10.993710   0.000121
   22       11.194380   0.000000
   23       11.383011   0.000000
   24       11.631581   0.000000

  0.3846154E+00  0.2307692E+00  0.9175186E-17  0.1092399E-01
    1      -33.093052   1.000000
    2      -12.092203   1.000000
    3      -12.071108   1.000000
    4      -12.043004   1.000000
    5      -12.030274   1.000000
    6      -12.028649   1.000000
    7       -8.634876   1.000000
    8       -8.456395   1.000000
    9       -8.456002   1.000000
   10       -0.954596   1.000000
   11        4.588040   1.000000
   12        5.651177   1.000000
   13        5.907027   1.000000
   14        6.394453   1.000000
   15        6.544520   1.000000
   16        7.555268   1.000000
   17        8.687510   1.000000
   18        9.129148   1.000000
   19       10.469851   1.000000
   20       10.973907   0.191854
   21       11.019768   0.000000
   22       11.239874   0.000000
   23       11.378333   0.000000
   24       11.584718   0.000000

  0.4615385E+00  0.2307692E+00  0.5718601E-17  0.1092399E-01
    1      -33.092054   1.000000
    2      -12.088756   1.000000
    3      -12.080411   1.000000
    4      -12.043292   1.000000
    5      -12.030915   1.000000
    6      -12.027879   1.000000
    7       -8.667376   1.000000
    8       -8.461644   1.000000
    9       -8.435192   1.000000
   10       -0.833174   1.000000
   11        4.769587   1.000000
   12        5.483716   1.000000
   13        5.739544   1.000000
   14        6.430047   1.000000
   15        6.570913   1.000000
   16        7.237079   1.000000
   17        8.519313   1.000000
   18        9.163559   1.000000
   19       10.516593   1.000000
   20       11.011291   0.000000
   21       11.061842   0.000000
   22       11.285589   0.000000
   23       11.353677   0.000000
   24       11.532080   0.000000

 -0.4615385E+00  0.2307692E+00 -0.2622084E-16  0.1092399E-01
    1      -33.091510   1.000000
    2      -12.090581   1.000000
    3      -12.085022   1.000000
    4      -12.042525   1.000000
    5      -12.032046   1.000000
    6      -12.027807   1.000000
    7       -8.678733   1.000000
    8       -8.478430   1.000000
    9       -8.411184   1.000000
   10       -0.750676   1.000000
   11        4.925457   1.000000
   12        5.424415   1.000000
   13        5.544157   1.000000
   14        6.511683   1.000000
   15        6.521711   1.000000
   16        7.056246   1.000000
   17        8.405289   1.000000
   18        9.151323   1.000000
   19       10.549783   1.000000
   20       11.012440   0.000000
   21       11.117120   0.000000
   22       11.306889   0.000000
   23       11.353340   0.000000
   24       11.501421   0.000000

 -0.3846154E+00  0.2307692E+00 -0.2707504E-16  0.1092399E-01
    1      -33.091542   1.000000
    2      -12.099384   1.000000
    3      -12.081921   1.000000
    4      -12.040839   1.000000
    5      -12.033198   1.000000
    6      -12.028371   1.000000
    7       -8.670244   1.000000
    8       -8.500564   1.000000
    9       -8.389358   1.000000
   10       -0.712369   1.000000
   11        4.904142   1.000000
   12        5.364230   1.000000
   13        5.489363   1.000000
   14        6.426492   1.000000
   15        6.647761   1.000000
   16        7.105270   1.000000
   17        8.301384   1.000000
   18        9.118972   1.000000
   19       10.568609   1.000000
   20       10.978775   0.059438
   21       11.171528   0.000000
   22       11.244945   0.000000