       N       E                     dE             d eps       ncg     rms          rms(c)
DAV:   1     0.433489674554E+03    0.43349E+03   -0.22537E+04  4032   0.236E+03
DAV:   2     0.305118362419E+02   -0.40298E+03   -0.39471E+03  4344   0.508E+02
DAV:   3    -0.207281902346E+02   -0.51240E+02   -0.50138E+02  5032   0.182E+02
DAV:   4    -0.259041549223E+02   -0.51760E+01   -0.51519E+01  7440   0.465E+01
DAV:   5    -0.260648011952E+02   -0.16065E+00   -0.16031E+00  5488   0.690E+00    0.155E+01
DAV:   6    -0.321125073753E+02   -0.60477E+01   -0.17694E+02  6168   0.882E+01    0.222E+01
DAV:   7    -0.243320417618E+02    0.77805E+01   -0.25968E+01  5840   0.285E+01    0.914E+00
DAV:   8    -0.243055279297E+02    0.26514E-01   -0.24300E+01  5976   0.222E+01    0.703E+00
DAV:   9    -0.236542076037E+02    0.65132E+00   -0.74790E+00  6160   0.166E+01    0.128E+00
DAV:  10    -0.236681022392E+02   -0.13895E-01   -0.24306E-01  6384   0.272E+00    0.935E-01
DAV:  11    -0.236535047501E+02    0.14597E-01   -0.14525E-01  6000   0.211E+00    0.312E-01
DAV:  12    -0.236536190783E+02   -0.11433E-03   -0.61231E-03  6848   0.513E-01    0.526E-02
DAV:  13    -0.236535839593E+02    0.35119E-04   -0.65011E-04  6160   0.181E-01    0.331E-02
DAV:  14    -0.236535818525E+02    0.21068E-05   -0.50703E-04  5864   0.115E-01    0.304E-02
DAV:  15    -0.236535702965E+02    0.11556E-04   -0.13882E-04  5960   0.669E-02    0.441E-03
DAV:  16    -0.236535702353E+02    0.61202E-07   -0.45620E-06  6632   0.129E-02    0.338E-03
DAV:  17    -0.236535702520E+02   -0.16664E-07   -0.28493E-07  4096   0.298E-03
   1 F= -.23653570E+02 E0= -.23652807E+02  d E =-.152710E-02
