 vasp.6.0.8 29Jun18 (build Jun 13 2019 12:54:44) complex

 executed on      IFC18_CrayMPICH date 2021.12.05  14:21:47
 running   64 mpi-ranks, with    1 threads/rank
 distrk:  each k-point on   16 cores,    4 groups
 distr:  one band on NCORES_PER_BAND=   4 cores,    4 groups


--------------------------------------------------------------------------------------------------------


 INCAR:
 POTCAR:    PAW_PBE U 06Sep2000
 POTCAR:    PAW_PBE Bi_d 06Sep2000
 POTCAR:    PAW_PBE Pt 04Feb2005
 POTCAR:    PAW_PBE U 06Sep2000
   VRHFIN =U:  [Xe,5d,4f]
   LEXCH  = PE
   EATOM  =  1405.3058 eV,  103.2871 Ry

   TITEL  = PAW_PBE U 06Sep2000
   LULTRA =        F    use ultrasoft PP ?
   IUNSCR =        1    unscreen: 0-lin 1-nonlin 2-no
   RPACOR =    2.200    partial core radius
   POMASS =  238.029; ZVAL   =   14.000    mass and valenz
   RCORE  =    2.800    outmost cutoff radius
   RWIGS  =    3.000; RWIGS  =    1.588    wigner-seitz radius (au A)
   ENMAX  =  252.502; ENMIN  =  189.376 eV
   RCLOC  =    1.811    cutoff for local pot
   LCOR   =        T    correct aug charges
   LPAW   =        T    paw PP
   EAUG   =  526.410
   DEXC   =    0.000
   RMAX   =    2.863    core radius for proj-oper
   RAUG   =    1.300    factor for augmentation sphere
   RDEP   =    2.950    radius for radial grids
   RDEPT  =    2.270    core radius for aug-charge

   Atomic configuration
   18 entries
     n  l   j            E        occ.
     1  0  0.50   -116038.1941   2.0000
     2  0  0.50    -21694.8835   2.0000
     2  1  1.50    -18009.1553   6.0000
     3  0  0.50     -5481.2929   2.0000
     3  1  1.50     -4458.9283   6.0000
     3  2  2.50     -3575.9978  10.0000
     4  0  0.50     -1400.5351   2.0000
     4  1  1.50     -1066.7807   6.0000
     4  2  2.50      -732.1336  10.0000
     4  3  3.50      -377.4393  14.0000
     5  0  0.50      -314.7366   2.0000
     5  1  1.50      -211.6057   6.0000
     5  2  2.50      -103.2045  10.0000
     6  0  0.50       -50.6026   2.0000
     7  0  0.50        -4.5896   2.0000
     6  1  1.50       -25.2884   6.0000
     6  2  1.50        -3.1039   2.0000
     5  3  2.50        -6.3670   2.0000
   Description
     l       E           TYP  RCUT    TYP  RCUT
     0    -50.6026097     23  2.600
     0     -4.5896371     23  2.600
     1    -25.2883770     23  2.500
     1     27.2116520     23  2.500
     2     -3.1038686     23  2.500
     2      0.8290654     23  2.500
     3     -6.3670133     23  2.800
     3     -7.7275959     23  2.800
  local pseudopotential read in
  partial core-charges read in
  partial kinetic energy density read in
  atomic valenz-charges read in
  non local Contribution for L=           0  read in
    real space projection operators read in
  non local Contribution for L=           0  read in
    real space projection operators read in
  non local Contribution for L=           1  read in
    real space projection operators read in
  non local Contribution for L=           1  read in
    real space projection operators read in
  non local Contribution for L=           2  read in
    real space projection operators read in
  non local Contribution for L=           2  read in
    real space projection operators read in
  non local Contribution for L=           3  read in
    real space projection operators read in
  non local Contribution for L=           3  read in
    real space projection operators read in
    PAW grid and wavefunctions read in

   number of l-projection  operators is LMAX  =           8
   number of lm-projection operators is LMMAX =          32

 POTCAR:    PAW_PBE Bi_d 06Sep2000
   VRHFIN =Bi:
   LEXCH  = PE
   EATOM  =  1959.2045 eV,  143.9975 Ry

   TITEL  = PAW_PBE Bi_d 06Sep2000
   LULTRA =        F    use ultrasoft PP ?
   IUNSCR =        1    unscreen: 0-lin 1-nonlin 2-no
   RPACOR =    2.200    partial core radius
   POMASS =  208.980; ZVAL   =   15.000    mass and valenz
   RCORE  =    2.500    outmost cutoff radius
   RWIGS  =    3.090; RWIGS  =    1.635    wigner-seitz radius (au A)
   ENMAX  =  242.839; ENMIN  =  182.129 eV
   ICORE  =        3    local potential
   LCOR   =        T    correct aug charges
   LPAW   =        T    paw PP
   EAUG   =  442.899
   DEXC   =    0.000
   RMAX   =    2.551    core radius for proj-oper
   RAUG   =    1.300    factor for augmentation sphere
   RDEP   =    2.650    radius for radial grids
   RDEPT  =    2.039    core radius for aug-charge

   Atomic configuration
   16 entries
     n  l   j            E        occ.
     1  0  0.50    -90639.6581   2.0000
     2  0  0.50    -16282.4666   2.0000
     2  1  1.50    -13922.8286   6.0000
     3  0  0.50     -3930.4763   2.0000
     3  1  1.50     -3256.7013   6.0000
     3  2  2.50     -2581.6168  10.0000
     4  0  0.50      -902.2614   2.0000
     4  1  1.50      -681.5915   6.0000
     4  2  2.50      -429.8249  10.0000
     4  3  3.50      -152.6004  14.0000
     5  0  0.50      -157.7156   2.0000
     5  1  1.50       -95.8054   6.0000
     5  2  2.50       -27.0806  10.0000
     6  0  0.50       -14.4732   2.0000
     6  1  1.50        -4.5702   3.0000
     5  3  2.50        -2.7212   0.0000
   Description
     l       E           TYP  RCUT    TYP  RCUT
     2    -27.0805982     23  2.500
     2     -1.3605826     23  2.500
     0    -14.4732271     23  2.500
     0      6.8029130     23  2.500
     1     -4.5701651     23  2.500
     1     13.6058260     23  2.500
     3     -1.3605826      7  2.500
  local pseudopotential read in
  partial core-charges read in
  partial kinetic energy density read in
  atomic valenz-charges read in
  non local Contribution for L=           2  read in
    real space projection operators read in
  non local Contribution for L=           2  read in
    real space projection operators read in
  non local Contribution for L=           0  read in
    real space projection operators read in
  non local Contribution for L=           0  read in
    real space projection operators read in
  non local Contribution for L=           1  read in
    real space projection operators read in
  non local Contribution for L=           1  read in
    real space projection operators read in
    PAW grid and wavefunctions read in

   number of l-projection  operators is LMAX  =           6
   number of lm-projection operators is LMMAX =          18

 POTCAR:    PAW_PBE Pt 04Feb2005
   VRHFIN =Pt: s1d9
   LEXCH  = PE
   EATOM  =   729.1176 eV,   53.5886 Ry

   TITEL  = PAW_PBE Pt 04Feb2005
   LULTRA =        F    use ultrasoft PP ?
   IUNSCR =        1    unscreen: 0-lin 1-nonlin 2-no
   RPACOR =    2.330    partial core radius
   POMASS =  195.080; ZVAL   =   10.000    mass and valenz
   RCORE  =    2.600    outmost cutoff radius
   RWIGS  =    2.750; RWIGS  =    1.455    wigner-seitz radius (au A)
   ENMAX  =  230.283; ENMIN  =  172.712 eV
   ICORE  =        3    local potential
   LCOR   =        T    correct aug charges
   LPAW   =        T    paw PP
   EAUG   =  358.966
   DEXC   =    0.000
   RMAX   =    2.658    core radius for proj-oper
   RAUG   =    1.300    factor for augmentation sphere
   RDEP   =    2.761    radius for radial grids
   RDEPT  =    2.203    core radius for aug-charge

   Atomic configuration
   16 entries
     n  l   j            E        occ.
     1  0  0.50    -78401.1885   2.0000
     2  0  0.50    -13770.7750   2.0000
     2  1  1.50    -11931.0468   6.0000
     3  0  0.50     -3234.7234   2.0000
     3  1  1.50     -2699.2216   6.0000
     3  2  2.50     -2119.5714  10.0000
     4  0  0.50      -695.1528   2.0000
     4  1  1.50      -519.6034   6.0000
     4  2  2.50      -306.6786  10.0000
     4  3  3.50       -70.1041  14.0000
     5  0  0.50      -101.7747   2.0000
     5  1  1.50       -55.9873   6.0000
     5  2  2.50        -6.1423   9.0000
     6  0  0.50        -5.6573   1.0000
     6  1  1.50        -6.8029   0.0000
     5  3  2.50        -1.3606   0.0000
   Description
     l       E           TYP  RCUT    TYP  RCUT
     2     -6.1423404     23  2.500
     2     -7.5029230     23  2.500
     0     -5.6573207     23  2.500
     0      0.7416693     23  2.500
     1     -2.7211652     23  2.600
     1     20.4087390     23  2.600
     3     -1.3605826     23  2.500
  local pseudopotential read in
  partial core-charges read in
  partial kinetic energy density read in
  atomic valenz-charges read in
  non local Contribution for L=           2  read in
    real space projection operators read in
  non local Contribution for L=           2  read in
    real space projection operators read in
  non local Contribution for L=           0  read in
    real space projection operators read in
  non local Contribution for L=           0  read in
    real space projection operators read in
  non local Contribution for L=           1  read in
    real space projection operators read in
  non local Contribution for L=           1  read in
    real space projection operators read in
    PAW grid and wavefunctions read in

   number of l-projection  operators is LMAX  =           6
   number of lm-projection operators is LMMAX =          18

 WARNING: PSMAXN for non-local potential too small
          PSMAXN should be >   13.5545592237991       NTYP=           1

 -----------------------------------------------------------------------------
|                                                                             |
|  ADVICE TO THIS USER RUNNING 'VASP/VAMP'   (HEAR YOUR MASTER'S VOICE ...):  |
|                                                                             |
|      You enforced a specific xc-type in the INCAR file,                     |
|      a different type was found on the POTCAR file                          |
|          I HOPE YOU KNOW, WHAT YOU ARE  DOING                               |
|                                                                             |
 -----------------------------------------------------------------------------

  PAW_PBE U 06Sep2000                   :
 energy of atom  1       EATOM=-1405.3058
 kinetic energy error for atom=    0.0006 (will be added to EATOM!!)
  PAW_PBE Bi_d 06Sep2000                :
 energy of atom  2       EATOM=-1959.2045
 kinetic energy error for atom=    0.0012 (will be added to EATOM!!)
  PAW_PBE Pt 04Feb2005                  :
 energy of atom  3       EATOM= -729.1176
 kinetic energy error for atom=    0.0010 (will be added to EATOM!!)


 POSCAR: U1 Bi1 Pt1
  positions in direct lattice
  No initial velocities read in
 exchange correlation table for  LEXCH =       14
   RHO(1)=    0.500       N(1)  =     2000
   RHO(2)=  100.500       N(2)  =     4000



--------------------------------------------------------------------------------------------------------


 ion  position               nearest neighbor table
   1  0.250  0.250  0.250-   3 2.81   3 2.81   3 2.81   3 2.81   2 3.25   2 3.25   2 3.25   2 3.25
                             2 3.25   2 3.25
   2  0.750  0.750  0.750-   3 2.81   3 2.81   3 2.81   3 2.81   1 3.25   1 3.25   1 3.25   1 3.25
                             1 3.25   1 3.25
   3  0.000  0.000  0.000-   2 2.81   2 2.81   1 2.81   2 2.81   1 2.81   1 2.81   1 2.81   2 2.81


  LATTYP: Found a face centered cubic cell.
 ALAT       =     6.4998300746

  Lattice vectors:

 A1 = (   0.0000000000,   3.2499150373,   3.2499150373)
 A2 = (   3.2499150373,   0.0000000000,   3.2499150373)
 A3 = (   3.2499150373,   3.2499150373,   0.0000000000)


Analysis of symmetry for initial positions (statically):
=====================================================================
 Subroutine PRICEL returns:
 Original cell was already a primitive cell.


 Routine SETGRP: Setting up the symmetry group for a
 face centered cubic supercell.


 Subroutine GETGRP returns: Found 24 space group operations
 (whereof 24 operations were pure point group operations)
 out of a pool of 48 trial point group operations.


The static configuration has the point symmetry T_d .


Analysis of symmetry for dynamics (positions and initial velocities):
=====================================================================
 Subroutine PRICEL returns:
 Original cell was already a primitive cell.


 Routine SETGRP: Setting up the symmetry group for a
 face centered cubic supercell.


 Subroutine GETGRP returns: Found 24 space group operations
 (whereof 24 operations were pure point group operations)
 out of a pool of 48 trial point group operations.


The dynamic configuration has the point symmetry T_d .


 Subroutine INISYM returns: Found 24 space group operations
 (whereof 24 operations are pure point group operations),
 and found     1 'primitive' translations


----------------------------------------------------------------------------------------

                                     Primitive cell

  volume of cell :      68.6509

  direct lattice vectors                    reciprocal lattice vectors
     0.000000000  3.249915037  3.249915037    -0.153850176  0.153850176  0.153850176
     3.249915037  0.000000000  3.249915037     0.153850176 -0.153850176  0.153850176
     3.249915037  3.249915037  0.000000000     0.153850176  0.153850176 -0.153850176

  length of vectors
     4.596073922  4.596073922  4.596073922     0.266476321  0.266476321  0.266476321

  position of ions in fractional coordinates (direct lattice)
     0.250000000  0.250000000  0.250000000
     0.750000000  0.750000000  0.750000000
     0.000000000  0.000000000  0.000000000

  ion indices of the primitive-cell ions
   primitive index   ion index
                 1           1
                 2           2
                 3           3

----------------------------------------------------------------------------------------



 KPOINTS: KPOINTS

Automatic generation of k-mesh.
Space group operators:
 irot       det(A)        alpha          n_x          n_y          n_z        tau_x        tau_y        tau_z
    1     1.000000     0.000000     1.000000     0.000000     0.000000     0.000000     0.000000     0.000000
    2     1.000000   120.000000    -0.577350    -0.577350    -0.577350     0.000000     0.000000     0.000000
    3     1.000000   120.000000     0.577350     0.577350     0.577350     0.000000     0.000000     0.000000
    4    -1.000000    90.000000    -0.000000    -0.000000    -1.000000     0.000000     0.000000     0.000000
    5    -1.000000   180.000000     0.000000     0.707107     0.707107     0.000000     0.000000     0.000000
    6    -1.000000    90.000000    -0.000000     1.000000     0.000000     0.000000     0.000000     0.000000
    7     1.000000   180.000000     0.000000     0.000000    -1.000000     0.000000     0.000000     0.000000
    8     1.000000   120.000000    -0.577350     0.577350     0.577350     0.000000     0.000000     0.000000
    9     1.000000   120.000000    -0.577350     0.577350    -0.577350     0.000000     0.000000     0.000000
   10    -1.000000    90.000000     0.000000     0.000000     1.000000     0.000000     0.000000     0.000000
   11    -1.000000    90.000000    -1.000000     0.000000    -0.000000     0.000000     0.000000     0.000000
   12    -1.000000   180.000000     0.707107     0.000000     0.707107     0.000000     0.000000     0.000000
   13     1.000000   120.000000     0.577350    -0.577350     0.577350     0.000000     0.000000     0.000000
   14     1.000000   120.000000    -0.577350    -0.577350     0.577350     0.000000     0.000000     0.000000
   15     1.000000   180.000000     1.000000     0.000000     0.000000     0.000000     0.000000     0.000000
   16    -1.000000    90.000000     0.000000    -1.000000     0.000000     0.000000     0.000000     0.000000
   17    -1.000000   180.000000     0.707107     0.707107    -0.000000     0.000000     0.000000     0.000000
   18    -1.000000    90.000000     1.000000     0.000000     0.000000     0.000000     0.000000     0.000000
   19     1.000000   120.000000     0.577350    -0.577350    -0.577350     0.000000     0.000000     0.000000
   20     1.000000   180.000000    -0.000000    -1.000000     0.000000     0.000000     0.000000     0.000000
   21     1.000000   120.000000     0.577350     0.577350    -0.577350     0.000000     0.000000     0.000000
   22    -1.000000   180.000000     0.000000    -0.707107     0.707107     0.000000     0.000000     0.000000
   23    -1.000000   180.000000     0.707107    -0.707107     0.000000     0.000000     0.000000     0.000000
   24    -1.000000   180.000000    -0.707107     0.000000     0.707107     0.000000     0.000000     0.000000

 Subroutine IBZKPT returns following result:
 ===========================================

 Found     84 irreducible k-points:

 Following reciprocal coordinates:
            Coordinates               Weight
  0.000000  0.000000  0.000000      1.000000
  0.076923  0.000000  0.000000      8.000000
  0.153846 -0.000000  0.000000      8.000000
  0.230769 -0.000000  0.000000      8.000000
  0.307692 -0.000000  0.000000      8.000000
  0.384615 -0.000000  0.000000      8.000000
  0.461538  0.000000 -0.000000      8.000000
  0.076923  0.076923 -0.000000      6.000000
  0.153846  0.076923  0.000000     24.000000
  0.230769  0.076923  0.000000     24.000000
  0.307692  0.076923  0.000000     24.000000
  0.384615  0.076923  0.000000     24.000000
  0.461538  0.076923  0.000000     24.000000
 -0.461538  0.076923 -0.000000     24.000000
 -0.384615  0.076923 -0.000000     24.000000
 -0.307692  0.076923 -0.000000     24.000000
 -0.230769  0.076923 -0.000000     24.000000
 -0.153846  0.076923 -0.000000     24.000000
 -0.076923  0.076923  0.000000     12.000000
  0.153846  0.153846 -0.000000      6.000000
  0.230769  0.153846 -0.000000     24.000000
  0.307692  0.153846  0.000000     24.000000
  0.384615  0.153846  0.000000     24.000000
  0.461538  0.153846  0.000000     24.000000
 -0.461538  0.153846 -0.000000     24.000000
 -0.384615  0.153846 -0.000000     24.000000
 -0.307692  0.153846  0.000000     24.000000
 -0.230769  0.153846 -0.000000     24.000000
 -0.153846  0.153846 -0.000000     12.000000
  0.230769  0.230769 -0.000000      6.000000
  0.307692  0.230769 -0.000000     24.000000
  0.384615  0.230769  0.000000     24.000000
  0.461538  0.230769  0.000000     24.000000
 -0.461538  0.230769 -0.000000     24.000000
 -0.384615  0.230769 -0.000000     24.000000
 -0.307692  0.230769 -0.000000     24.000000
 -0.230769  0.230769 -0.000000     12.000000
  0.307692  0.307692 -0.000000      6.000000
  0.384615  0.307692 -0.000000     24.000000
  0.461538  0.307692  0.000000     24.000000
 -0.461538  0.307692 -0.000000     24.000000
 -0.384615  0.307692 -0.000000     24.000000
 -0.307692  0.307692 -0.000000     12.000000
  0.384615  0.384615 -0.000000      6.000000
  0.461538  0.384615 -0.000000     24.000000
 -0.461538  0.384615 -0.000000     24.000000
 -0.384615  0.384615 -0.000000     12.000000
  0.461538  0.461538 -0.000000      6.000000
 -0.461538  0.461538  0.000000     12.000000
  0.230769  0.153846  0.076923     24.000000
  0.307692  0.153846  0.076923     48.000000
  0.384615  0.153846  0.076923     48.000000
  0.461538  0.153846  0.076923     48.000000
 -0.461538  0.153846  0.076923     48.000000
  0.307692  0.230769  0.076923     24.000000
  0.384615  0.230769  0.076923     48.000000
  0.461538  0.230769  0.076923     48.000000
 -0.461538  0.230769  0.076923     48.000000
 -0.384615  0.230769  0.076923     48.000000
 -0.307692  0.230769  0.076923     48.000000
 -0.230769  0.230769  0.076923     48.000000
 -0.153846  0.230769  0.076923     24.000000
  0.384615  0.307692  0.076923     24.000000
  0.461538  0.307692  0.076923     48.000000
 -0.461538  0.307692  0.076923     48.000000
 -0.384615  0.307692  0.076923     48.000000
 -0.307692  0.307692  0.076923     48.000000
 -0.230769  0.307692  0.076923     24.000000
  0.461538  0.384615  0.076923     24.000000
 -0.461538  0.384615  0.076923     48.000000
 -0.384615  0.384615  0.076923     48.000000
 -0.307692  0.384615  0.076923     24.000000
 -0.461538  0.461538  0.076923     24.000000
 -0.384615  0.461538  0.076923     24.000000
  0.461538  0.307692  0.153846     24.000000
 -0.461538  0.307692  0.153846     48.000000
 -0.384615  0.307692  0.153846     48.000000
 -0.461538  0.384615  0.153846     24.000000
 -0.384615  0.384615  0.153846     48.000000
 -0.307692  0.384615  0.153846     48.000000
 -0.230769  0.384615  0.153846     24.000000
 -0.384615  0.461538  0.153846     24.000000
 -0.307692  0.461538  0.153846     24.000000
 -0.307692  0.461538  0.230769     24.000000

 Following cartesian coordinates:
            Coordinates               Weight
  0.000000  0.000000  0.000000      1.000000
 -0.011593  0.011593  0.011593      8.000000
 -0.023186  0.023186  0.023186      8.000000
 -0.034779  0.034779  0.034779      8.000000
 -0.046372  0.046372  0.046372      8.000000
 -0.057965  0.057965  0.057965      8.000000
 -0.069558  0.069558  0.069558      8.000000
  0.000000 -0.000000  0.023186      6.000000
 -0.011593  0.011593  0.034779     24.000000
 -0.023186  0.023186  0.046372     24.000000
 -0.034779  0.034779  0.057965     24.000000
 -0.046372  0.046372  0.069558     24.000000
 -0.057965  0.057965  0.081151     24.000000
  0.081151 -0.081151 -0.057965     24.000000
  0.069558 -0.069558 -0.046372     24.000000
  0.057965 -0.057965 -0.034779     24.000000
  0.046372 -0.046372 -0.023186     24.000000
  0.034779 -0.034779 -0.011593     24.000000
  0.023186 -0.023186 -0.000000     12.000000
 -0.000000  0.000000  0.046372      6.000000
 -0.011593  0.011593  0.057965     24.000000
 -0.023186  0.023186  0.069558     24.000000
 -0.034779  0.034779  0.081151     24.000000
 -0.046372  0.046372  0.092744     24.000000
  0.092744 -0.092744 -0.046372     24.000000
  0.081151 -0.081151 -0.034779     24.000000
  0.069558 -0.069558 -0.023186     24.000000
  0.057965 -0.057965 -0.011593     24.000000
  0.046372 -0.046372 -0.000000     12.000000
 -0.000000  0.000000  0.069558      6.000000
 -0.011593  0.011593  0.081151     24.000000
 -0.023186  0.023186  0.092744     24.000000
 -0.034779  0.034779  0.104337     24.000000
  0.104337 -0.104337 -0.034779     24.000000
  0.092744 -0.092744 -0.023186     24.000000
  0.081151 -0.081151 -0.011593     24.000000
  0.069558 -0.069558 -0.000000     12.000000
 -0.000000  0.000000  0.092744      6.000000
 -0.011593  0.011593  0.104337     24.000000
 -0.023186  0.023186  0.115930     24.000000
  0.115930 -0.115930 -0.023186     24.000000
  0.104337 -0.104337 -0.011593     24.000000
  0.092744 -0.092744 -0.000000     12.000000
 -0.000000  0.000000  0.115930      6.000000
 -0.011593  0.011593  0.127523     24.000000
  0.127523 -0.127523 -0.011593     24.000000
  0.115930 -0.115930 -0.000000     12.000000
  0.000000 -0.000000  0.139116      6.000000
  0.139116 -0.139116 -0.000000     12.000000
 -0.000000  0.023186  0.046372     24.000000
 -0.011593  0.034779  0.057965     48.000000
 -0.023186  0.046372  0.069558     48.000000
 -0.034779  0.057965  0.081151     48.000000
  0.104337 -0.081151 -0.057965     48.000000
  0.000000  0.023186  0.069558     24.000000
 -0.011593  0.034779  0.081151     48.000000
 -0.023186  0.046372  0.092744     48.000000
  0.115930 -0.092744 -0.046372     48.000000
  0.104337 -0.081151 -0.034779     48.000000
  0.092744 -0.069558 -0.023186     48.000000
  0.081151 -0.057965 -0.011593     48.000000
  0.069558 -0.046372  0.000000     24.000000
 -0.000000  0.023186  0.092744     24.000000
 -0.011593  0.034779  0.104337     48.000000
  0.127523 -0.104337 -0.034779     48.000000
  0.115930 -0.092744 -0.023186     48.000000
  0.104337 -0.081151 -0.011593     48.000000
  0.092744 -0.069558 -0.000000     24.000000
  0.000000  0.023186  0.115930     24.000000
  0.139116 -0.115930 -0.023186     48.000000
  0.127523 -0.104337 -0.011593     48.000000
  0.115930 -0.092744 -0.000000     24.000000
  0.150709 -0.127523 -0.011593     24.000000
  0.139116 -0.115930 -0.000000     24.000000
 -0.000000  0.046372  0.092744     24.000000
  0.139116 -0.092744 -0.046372     48.000000
  0.127523 -0.081151 -0.034779     48.000000
  0.150709 -0.104337 -0.034779     24.000000
  0.139116 -0.092744 -0.023186     48.000000
  0.127523 -0.081151 -0.011593     48.000000
  0.115930 -0.069558 -0.000000     24.000000
  0.150709 -0.104337 -0.011593     24.000000
  0.139116 -0.092744 -0.000000     24.000000
  0.150709 -0.081151 -0.011593     24.000000



--------------------------------------------------------------------------------------------------------




 Dimension of arrays:
   k-points           NKPTS =     84   k-points in BZ     NKDIM =     84   number of bands    NBANDS=     24
   number of dos      NEDOS =    301   number of ions     NIONS =      3
   non local maximal  LDIM  =      8   non local SUM 2l+1 LMDIM =     32
   total plane-waves  NPLWV =  64000
   max r-space proj   IRMAX =      1   max aug-charges    IRDMAX= 455025
   dimension x,y,z NGX =    40 NGY =   40 NGZ =   40
   dimension x,y,z NGXF=    80 NGYF=   80 NGZF=   80
   support grid    NGXF=   160 NGYF=  160 NGZF=  160
   ions per type =               1   1   1
   NGX,Y,Z   is equivalent  to a cutoff of  14.47, 14.47, 14.47 a.u.
   NGXF,Y,Z  is equivalent  to a cutoff of  28.94, 28.94, 28.94 a.u.

 SYSTEM =  unknown system
 POSCAR =  U1 Bi1 Pt1

 Startparameter for this run:
   NWRITE =      2    write-flag & timer
   PREC   = acc       normal or accurate (medium, high low for compatibility)
   ISTART =      0    job   : 0-new  1-cont  2-samecut
   ICHARG =      2    charge: 1-file 2-atom 10-const
   ISPIN  =      1    spin polarized calculation?
   LNONCOLLINEAR =      F non collinear calculations
   LSORBIT =      F    spin-orbit coupling
   INIWAV =      1    electr: 0-lowe 1-rand  2-diag
   LASPH  =      F    aspherical Exc in radial PAW
   METAGGA=      F    non-selfconsistent MetaGGA calc.

 Electronic Relaxation 1
   ENCUT  =  700.0 eV  51.45 Ry    7.17 a.u.   9.91  9.91  9.91*2*pi/ulx,y,z
   ENINI  =  700.0     initial cutoff
   ENAUG  =  526.4 eV  augmentation charge cutoff
   NELM   =     60;   NELMIN=  5; NELMDL= -5     # of ELM steps
   EDIFF  = 0.1E-06   stopping-criterion for ELM
   LREAL  =      F    real-space projection
   NLSPLINE    = F    spline interpolate recip. space projectors
   LCOMPAT=      F    compatible to vasp.4.4
   GGA_COMPAT  = T    GGA compatible to vasp.4.4-vasp.4.6
   LMAXPAW     = -100 max onsite density
   LMAXMIX     =    2 max onsite mixed and CHGCAR
   VOSKOWN=      0    Vosko Wilk Nusair interpolation
   ROPT   =    0.00000   0.00000   0.00000
 Ionic relaxation
   EDIFFG = 0.1E-05   stopping-criterion for IOM
   NSW    =      0    number of steps for IOM
   NBLOCK =      1;   KBLOCK =      1    inner block; outer block
   IBRION =     -1    ionic relax: 0-MD 1-quasi-New 2-CG
   NFREE  =      0    steps in history (QN), initial steepest desc. (CG)
   ISIF   =      3    stress and relaxation
   IWAVPR =     10    prediction:  0-non 1-charg 2-wave 3-comb
   ISYM   =      2    0-nonsym 1-usesym 2-fastsym
   LCORR  =      T    Harris-Foulkes like correction to forces

   POTIM  = 0.5000    time-step for ionic-motion
   TEIN   =    0.0    initial temperature
   TEBEG  =    0.0;   TEEND  =   0.0 temperature during run
   SMASS  =  -3.00    Nose mass-parameter (am)
   estimated Nose-frequenzy (Omega)   =  0.10E-29 period in steps = 0.13E+47 mass=  -0.483E-27a.u.
   SCALEE = 1.0000    scale energy and forces
   NPACO  =    256;   APACO  = 16.0  distance and # of slots for P.C.
   PSTRESS=    0.0 pullay stress

  Mass of Ions in am
   POMASS = 238.03208.98195.08
  Ionic Valenz
   ZVAL   =  14.00 15.00 10.00
  Atomic Wigner-Seitz radii
   RWIGS  =  -1.00 -1.00 -1.00
  virtual crystal weights
   VCA    =   1.00  1.00  1.00
   NELECT =      39.0000    total number of electrons
   NUPDOWN=      -1.0000    fix difference up-down

 DOS related values:
   EMIN   =  10.00;   EMAX   =-10.00  energy-range for DOS
   EFERMI =   0.00
   ISMEAR =     0;   SIGMA  =   0.01  broadening in eV -4-tet -1-fermi 0-gaus

 Electronic relaxation 2 (details)
   IALGO  =     38    algorithm
   LDIAG  =      T    sub-space diagonalisation (order eigenvalues)
   LSUBROT=      F    optimize rotation matrix (better conditioning)
   TURBO    =      0    0=normal 1=particle mesh
   IRESTART =      0    0=no restart 2=restart with 2 vectors
   NREBOOT  =      0    no. of reboots
   NMIN     =      0    reboot dimension
   EREF     =   0.00    reference energy to select bands
   IMIX   =      4    mixing-type and parameters
     AMIX     =   0.40;   BMIX     =  1.00
     AMIX_MAG =   1.60;   BMIX_MAG =  1.00
     AMIN     =   0.10
     WC   =   100.;   INIMIX=   1;  MIXPRE=   1;  MAXMIX= -45

 Intra band minimization:
   WEIMIN = 0.0000     energy-eigenvalue tresh-hold
   EBREAK =  0.10E-08  absolut break condition
   DEPER  =   0.30     relativ break condition

   TIME   =   0.40     timestep for ELM

  volume/ion in A,a.u.               =      22.88       154.43
  Fermi-wavevector in a.u.,A,eV,Ry     =   1.355858  2.562201 25.012300  1.838352
  Thomas-Fermi vector in A             =   2.482911

 Write flags
   LWAVE        =      F    write WAVECAR
   LDOWNSAMPLE  =      F    k-point downsampling of WAVECAR
   LCHARG       =      F    write CHGCAR
   LVTOT        =      F    write LOCPOT, total local potential
   LVHAR        =      F    write LOCPOT, Hartree potential only
   LELF         =      F    write electronic localiz. function (ELF)
   LORBIT       =      0    0 simple, 1 ext, 2 COOP (PROOUT), +10 PAW based schemes


 Dipole corrections
   LMONO  =      F    monopole corrections only (constant potential shift)
   LDIPOL =      F    correct potential (dipole corrections)
   IDIPOL =      0    1-x, 2-y, 3-z, 4-all directions
   EPSILON=  1.0000000 bulk dielectric constant

 Exchange correlation treatment:
   GGA     =    PS    GGA type
   LEXCH   =    14    internal setting for exchange type
   VOSKOWN=      0    Vosko Wilk Nusair interpolation
   LHFCALC =     F    Hartree Fock is set to
   LHFONE  =     F    Hartree Fock one center treatment
   AEXX    =    0.0000 exact exchange contribution

 Linear response parameters
   LEPSILON=     F    determine dielectric tensor
   LRPA    =     F    only Hartree local field effects (RPA)
   LNABLA  =     F    use nabla operator in PAW spheres
   LVEL    =     F    velocity operator in full k-point grid
   LINTERFAST=   F  fast interpolation
   KINTER  =     0    interpolate to denser k-point grid
   CSHIFT  =0.1000    complex shift for real part using Kramers Kronig
   OMEGAMAX=  -1.0    maximum frequency
   DEG_THRESHOLD= 0.2000000E-02 threshold for treating states as degnerate
   RTIME   =   -0.100 relaxation time in fs
  (WPLASMAI=    0.000 imaginary part of plasma frequency in eV, 0.658/RTIME)
   DFIELD  = 0.0000000 0.0000000 0.0000000 field for delta impulse in time

 Orbital magnetization related:
   ORBITALMAG=     F  switch on orbital magnetization
   LCHIMAG   =     F  perturbation theory with respect to B field
   DQ        =  0.001000  dq finite difference perturbation B field
   LLRAUG    =     F  two centre corrections for induced B field



--------------------------------------------------------------------------------------------------------


 Static calculation
 charge density and potential will be updated during run
 non-spin polarized calculation
 Variant of blocked Davidson
 Davidson routine will perform the subspace rotation
 perform sub-space diagonalisation
    after iterative eigenvector-optimisation
 modified Broyden-mixing scheme, WC =      100.0
 initial mixing is a Kerker type mixing with AMIX =  0.4000 and BMIX =      1.0000
 Hartree-type preconditioning will be used
 using additional bands            4
 reciprocal scheme for non local part
 use partial core corrections
 calculate Harris-corrections to forces
   (improved forces if not selfconsistent)
 use gradient corrections
 use of overlap-Matrix (Vanderbilt PP)
 Gauss-broadening in eV      SIGMA  =   0.01


--------------------------------------------------------------------------------------------------------


  energy-cutoff  :      700.00
  volume of cell :       68.65
      direct lattice vectors                 reciprocal lattice vectors
     0.000000000  3.249915037  3.249915037    -0.153850176  0.153850176  0.153850176
     3.249915037  0.000000000  3.249915037     0.153850176 -0.153850176  0.153850176
     3.249915037  3.249915037  0.000000000     0.153850176  0.153850176 -0.153850176

  length of vectors
     4.596073922  4.596073922  4.596073922     0.266476321  0.266476321  0.266476321



 k-points in units of 2pi/SCALE and weight: KPOINTS
   0.00000000  0.00000000  0.00000000       0.000
  -0.01159304  0.01159304  0.01159304       0.004
  -0.02318608  0.02318608  0.02318608       0.004
  -0.03477911  0.03477911  0.03477911       0.004
  -0.04637215  0.04637215  0.04637215       0.004
  -0.05796519  0.05796519  0.05796519       0.004
  -0.06955823  0.06955823  0.06955823       0.004
   0.00000000 -0.00000000  0.02318608       0.003
  -0.01159304  0.01159304  0.03477911       0.011
  -0.02318608  0.02318608  0.04637215       0.011
  -0.03477911  0.03477911  0.05796519       0.011
  -0.04637215  0.04637215  0.06955823       0.011
  -0.05796519  0.05796519  0.08115127       0.011
   0.08115127 -0.08115127 -0.05796519       0.011
   0.06955823 -0.06955823 -0.04637215       0.011
   0.05796519 -0.05796519 -0.03477911       0.011
   0.04637215 -0.04637215 -0.02318608       0.011
   0.03477911 -0.03477911 -0.01159304       0.011
   0.02318608 -0.02318608 -0.00000000       0.005
  -0.00000000  0.00000000  0.04637215       0.003
  -0.01159304  0.01159304  0.05796519       0.011
  -0.02318608  0.02318608  0.06955823       0.011
  -0.03477911  0.03477911  0.08115127       0.011
  -0.04637215  0.04637215  0.09274430       0.011
   0.09274430 -0.09274430 -0.04637215       0.011
   0.08115127 -0.08115127 -0.03477911       0.011
   0.06955823 -0.06955823 -0.02318608       0.011
   0.05796519 -0.05796519 -0.01159304       0.011
   0.04637215 -0.04637215 -0.00000000       0.005
  -0.00000000  0.00000000  0.06955823       0.003
  -0.01159304  0.01159304  0.08115127       0.011
  -0.02318608  0.02318608  0.09274430       0.011
  -0.03477911  0.03477911  0.10433734       0.011
   0.10433734 -0.10433734 -0.03477911       0.011
   0.09274430 -0.09274430 -0.02318608       0.011
   0.08115127 -0.08115127 -0.01159304       0.011
   0.06955823 -0.06955823 -0.00000000       0.005
  -0.00000000  0.00000000  0.09274430       0.003
  -0.01159304  0.01159304  0.10433734       0.011
  -0.02318608  0.02318608  0.11593038       0.011
   0.11593038 -0.11593038 -0.02318608       0.011
   0.10433734 -0.10433734 -0.01159304       0.011
   0.09274430 -0.09274430 -0.00000000       0.005
  -0.00000000  0.00000000  0.11593038       0.003
  -0.01159304  0.01159304  0.12752342       0.011
   0.12752342 -0.12752342 -0.01159304       0.011
   0.11593038 -0.11593038 -0.00000000       0.005
   0.00000000 -0.00000000  0.13911646       0.003
   0.13911646 -0.13911646 -0.00000000       0.005
  -0.00000000  0.02318608  0.04637215       0.011
  -0.01159304  0.03477911  0.05796519       0.022
  -0.02318608  0.04637215  0.06955823       0.022
  -0.03477911  0.05796519  0.08115127       0.022
   0.10433734 -0.08115127 -0.05796519       0.022
   0.00000000  0.02318608  0.06955823       0.011
  -0.01159304  0.03477911  0.08115127       0.022
  -0.02318608  0.04637215  0.09274430       0.022
   0.11593038 -0.09274430 -0.04637215       0.022
   0.10433734 -0.08115127 -0.03477911       0.022
   0.09274430 -0.06955823 -0.02318608       0.022
   0.08115127 -0.05796519 -0.01159304       0.022
   0.06955823 -0.04637215  0.00000000       0.011
  -0.00000000  0.02318608  0.09274430       0.011
  -0.01159304  0.03477911  0.10433734       0.022
   0.12752342 -0.10433734 -0.03477911       0.022
   0.11593038 -0.09274430 -0.02318608       0.022
   0.10433734 -0.08115127 -0.01159304       0.022
   0.09274430 -0.06955823 -0.00000000       0.011
   0.00000000  0.02318608  0.11593038       0.011
   0.13911646 -0.11593038 -0.02318608       0.022
   0.12752342 -0.10433734 -0.01159304       0.022
   0.11593038 -0.09274430 -0.00000000       0.011
   0.15070950 -0.12752342 -0.01159304       0.011
   0.13911646 -0.11593038 -0.00000000       0.011
  -0.00000000  0.04637215  0.09274430       0.011
   0.13911646 -0.09274430 -0.04637215       0.022
   0.12752342 -0.08115127 -0.03477911       0.022
   0.15070950 -0.10433734 -0.03477911       0.011
   0.13911646 -0.09274430 -0.02318608       0.022
   0.12752342 -0.08115127 -0.01159304       0.022
   0.11593038 -0.06955823 -0.00000000       0.011
   0.15070950 -0.10433734 -0.01159304       0.011
   0.13911646 -0.09274430 -0.00000000       0.011
   0.15070950 -0.08115127 -0.01159304       0.011

 k-points in reciprocal lattice and weights: KPOINTS
   0.00000000  0.00000000  0.00000000       0.000
   0.07692308  0.00000000  0.00000000       0.004
   0.15384615 -0.00000000  0.00000000       0.004
   0.23076923 -0.00000000  0.00000000       0.004
   0.30769231 -0.00000000  0.00000000       0.004
   0.38461538 -0.00000000  0.00000000       0.004
   0.46153846  0.00000000 -0.00000000       0.004
   0.07692308  0.07692308 -0.00000000       0.003
   0.15384615  0.07692308  0.00000000       0.011
   0.23076923  0.07692308  0.00000000       0.011
   0.30769231  0.07692308  0.00000000       0.011
   0.38461538  0.07692308  0.00000000       0.011
   0.46153846  0.07692308  0.00000000       0.011
  -0.46153846  0.07692308 -0.00000000       0.011
  -0.38461538  0.07692308 -0.00000000       0.011
  -0.30769231  0.07692308 -0.00000000       0.011
  -0.23076923  0.07692308 -0.00000000       0.011
  -0.15384615  0.07692308 -0.00000000       0.011
  -0.07692308  0.07692308  0.00000000       0.005
   0.15384615  0.15384615 -0.00000000       0.003
   0.23076923  0.15384615 -0.00000000       0.011
   0.30769231  0.15384615  0.00000000       0.011
   0.38461538  0.15384615  0.00000000       0.011
   0.46153846  0.15384615  0.00000000       0.011
  -0.46153846  0.15384615 -0.00000000       0.011
  -0.38461538  0.15384615 -0.00000000       0.011
  -0.30769231  0.15384615  0.00000000       0.011
  -0.23076923  0.15384615 -0.00000000       0.011
  -0.15384615  0.15384615 -0.00000000       0.005
   0.23076923  0.23076923 -0.00000000       0.003
   0.30769231  0.23076923 -0.00000000       0.011
   0.38461538  0.23076923  0.00000000       0.011
   0.46153846  0.23076923  0.00000000       0.011
  -0.46153846  0.23076923 -0.00000000       0.011
  -0.38461538  0.23076923 -0.00000000       0.011
  -0.30769231  0.23076923 -0.00000000       0.011
  -0.23076923  0.23076923 -0.00000000       0.005
   0.30769231  0.30769231 -0.00000000       0.003
   0.38461538  0.30769231 -0.00000000       0.011
   0.46153846  0.30769231  0.00000000       0.011
  -0.46153846  0.30769231 -0.00000000       0.011
  -0.38461538  0.30769231 -0.00000000       0.011
  -0.30769231  0.30769231 -0.00000000       0.005
   0.38461538  0.38461538 -0.00000000       0.003
   0.46153846  0.38461538 -0.00000000       0.011
  -0.46153846  0.38461538 -0.00000000       0.011
  -0.38461538  0.38461538 -0.00000000       0.005
   0.46153846  0.46153846 -0.00000000       0.003
  -0.46153846  0.46153846  0.00000000       0.005
   0.23076923  0.15384615  0.07692308       0.011
   0.30769231  0.15384615  0.07692308       0.022
   0.38461538  0.15384615  0.07692308       0.022
   0.46153846  0.15384615  0.07692308       0.022
  -0.46153846  0.15384615  0.07692308       0.022
   0.30769231  0.23076923  0.07692308       0.011
   0.38461538  0.23076923  0.07692308       0.022
   0.46153846  0.23076923  0.07692308       0.022
  -0.46153846  0.23076923  0.07692308       0.022
  -0.38461538  0.23076923  0.07692308       0.022
  -0.30769231  0.23076923  0.07692308       0.022
  -0.23076923  0.23076923  0.07692308       0.022
  -0.15384615  0.23076923  0.07692308       0.011
   0.38461538  0.30769231  0.07692308       0.011
   0.46153846  0.30769231  0.07692308       0.022
  -0.46153846  0.30769231  0.07692308       0.022
  -0.38461538  0.30769231  0.07692308       0.022
  -0.30769231  0.30769231  0.07692308       0.022
  -0.23076923  0.30769231  0.07692308       0.011
   0.46153846  0.38461538  0.07692308       0.011
  -0.46153846  0.38461538  0.07692308       0.022
  -0.38461538  0.38461538  0.07692308       0.022
  -0.30769231  0.38461538  0.07692308       0.011
  -0.46153846  0.46153846  0.07692308       0.011
  -0.38461538  0.46153846  0.07692308       0.011
   0.46153846  0.30769231  0.15384615       0.011
  -0.46153846  0.30769231  0.15384615       0.022
  -0.38461538  0.30769231  0.15384615       0.022
  -0.46153846  0.38461538  0.15384615       0.011
  -0.38461538  0.38461538  0.15384615       0.022
  -0.30769231  0.38461538  0.15384615       0.022
  -0.23076923  0.38461538  0.15384615       0.011
  -0.38461538  0.46153846  0.15384615       0.011
  -0.30769231  0.46153846  0.15384615       0.011
  -0.30769231  0.46153846  0.23076923       0.011

 position of ions in fractional coordinates (direct lattice)
   0.25000000  0.25000000  0.25000000
   0.75000000  0.75000000  0.75000000
   0.00000000  0.00000000  0.00000000

 position of ions in cartesian coordinates  (Angst):
   1.62495752  1.62495752  1.62495752
   4.87487256  4.87487256  4.87487256
   0.00000000  0.00000000  0.00000000



--------------------------------------------------------------------------------------------------------


 k-point  1 :   0.0000 0.0000 0.0000  plane waves:    2891
 k-point  2 :   0.0769 0.0000 0.0000  plane waves:    2852
 k-point  3 :   0.1538-0.0000 0.0000  plane waves:    2860
 k-point  4 :   0.2308-0.0000 0.0000  plane waves:    2884
 k-point  5 :   0.3077-0.0000 0.0000  plane waves:    2899
 k-point  6 :   0.3846-0.0000 0.0000  plane waves:    2881
 k-point  7 :   0.4615 0.0000-0.0000  plane waves:    2899
 k-point  8 :   0.0769 0.0769-0.0000  plane waves:    2846
 k-point  9 :   0.1538 0.0769 0.0000  plane waves:    2849
 k-point 10 :   0.2308 0.0769 0.0000  plane waves:    2872
 k-point 11 :   0.3077 0.0769 0.0000  plane waves:    2880
 k-point 12 :   0.3846 0.0769 0.0000  plane waves:    2895
 k-point 13 :   0.4615 0.0769 0.0000  plane waves:    2886
 k-point 14 :  -0.4615 0.0769-0.0000  plane waves:    2888
 k-point 15 :  -0.3846 0.0769-0.0000  plane waves:    2886
 k-point 16 :  -0.3077 0.0769-0.0000  plane waves:    2890
 k-point 17 :  -0.2308 0.0769-0.0000  plane waves:    2879
 k-point 18 :  -0.1538 0.0769-0.0000  plane waves:    2863
 k-point 19 :  -0.0769 0.0769 0.0000  plane waves:    2848
 k-point 20 :   0.1538 0.1538-0.0000  plane waves:    2874
 k-point 21 :   0.2308 0.1538-0.0000  plane waves:    2876
 k-point 22 :   0.3077 0.1538 0.0000  plane waves:    2882
 k-point 23 :   0.3846 0.1538 0.0000  plane waves:    2895
 k-point 24 :   0.4615 0.1538 0.0000  plane waves:    2888
 k-point 25 :  -0.4615 0.1538-0.0000  plane waves:    2896
 k-point 26 :  -0.3846 0.1538-0.0000  plane waves:    2889
 k-point 27 :  -0.3077 0.1538 0.0000  plane waves:    2888
 k-point 28 :  -0.2308 0.1538-0.0000  plane waves:    2888
 k-point 29 :  -0.1538 0.1538-0.0000  plane waves:    2862
 k-point 30 :   0.2308 0.2308-0.0000  plane waves:    2886
 k-point 31 :   0.3077 0.2308-0.0000  plane waves:    2882
 k-point 32 :   0.3846 0.2308 0.0000  plane waves:    2893
 k-point 33 :   0.4615 0.2308 0.0000  plane waves:    2890
 k-point 34 :  -0.4615 0.2308-0.0000  plane waves:    2891
 k-point 35 :  -0.3846 0.2308-0.0000  plane waves:    2896
 k-point 36 :  -0.3077 0.2308-0.0000  plane waves:    2885
 k-point 37 :  -0.2308 0.2308-0.0000  plane waves:    2880
 k-point 38 :   0.3077 0.3077-0.0000  plane waves:    2878
 k-point 39 :   0.3846 0.3077-0.0000  plane waves:    2881
 k-point 40 :   0.4615 0.3077 0.0000  plane waves:    2884
 k-point 41 :  -0.4615 0.3077-0.0000  plane waves:    2899
 k-point 42 :  -0.3846 0.3077-0.0000  plane waves:    2889
 k-point 43 :  -0.3077 0.3077-0.0000  plane waves:    2890
 k-point 44 :   0.3846 0.3846-0.0000  plane waves:    2894
 k-point 45 :   0.4615 0.3846-0.0000  plane waves:    2885
 k-point 46 :  -0.4615 0.3846-0.0000  plane waves:    2897
 k-point 47 :  -0.3846 0.3846-0.0000  plane waves:    2874
 k-point 48 :   0.4615 0.4615-0.0000  plane waves:    2898
 k-point 49 :  -0.4615 0.4615 0.0000  plane waves:    2900
 k-point 50 :   0.2308 0.1538 0.0769  plane waves:    2873
 k-point 51 :   0.3077 0.1538 0.0769  plane waves:    2886
 k-point 52 :   0.3846 0.1538 0.0769  plane waves:    2886
 k-point 53 :   0.4615 0.1538 0.0769  plane waves:    2887
 k-point 54 :  -0.4615 0.1538 0.0769  plane waves:    2893
 k-point 55 :   0.3077 0.2308 0.0769  plane waves:    2879
 k-point 56 :   0.3846 0.2308 0.0769  plane waves:    2889
 k-point 57 :   0.4615 0.2308 0.0769  plane waves:    2889
 k-point 58 :  -0.4615 0.2308 0.0769  plane waves:    2890
 k-point 59 :  -0.3846 0.2308 0.0769  plane waves:    2902
 k-point 60 :  -0.3077 0.2308 0.0769  plane waves:    2884
 k-point 61 :  -0.2308 0.2308 0.0769  plane waves:    2885
 k-point 62 :  -0.1538 0.2308 0.0769  plane waves:    2880
 k-point 63 :   0.3846 0.3077 0.0769  plane waves:    2886
 k-point 64 :   0.4615 0.3077 0.0769  plane waves:    2891
 k-point 65 :  -0.4615 0.3077 0.0769  plane waves:    2895
 k-point 66 :  -0.3846 0.3077 0.0769  plane waves:    2895
 k-point 67 :  -0.3077 0.3077 0.0769  plane waves:    2893
 k-point 68 :  -0.2308 0.3077 0.0769  plane waves:    2898
 k-point 69 :   0.4615 0.3846 0.0769  plane waves:    2885
 k-point 70 :  -0.4615 0.3846 0.0769  plane waves:    2894
 k-point 71 :  -0.3846 0.3846 0.0769  plane waves:    2886
 k-point 72 :  -0.3077 0.3846 0.0769  plane waves:    2889
 k-point 73 :  -0.4615 0.4615 0.0769  plane waves:    2891
 k-point 74 :  -0.3846 0.4615 0.0769  plane waves:    2883
 k-point 75 :   0.4615 0.3077 0.1538  plane waves:    2889
 k-point 76 :  -0.4615 0.3077 0.1538  plane waves:    2896
 k-point 77 :  -0.3846 0.3077 0.1538  plane waves:    2888
 k-point 78 :  -0.4615 0.3846 0.1538  plane waves:    2900
 k-point 79 :  -0.3846 0.3846 0.1538  plane waves:    2893
 k-point 80 :  -0.3077 0.3846 0.1538  plane waves:    2890
 k-point 81 :  -0.2308 0.3846 0.1538  plane waves:    2888
 k-point 82 :  -0.3846 0.4615 0.1538  plane waves:    2893
 k-point 83 :  -0.3077 0.4615 0.1538  plane waves:    2886
 k-point 84 :  -0.3077 0.4615 0.2308  plane waves:    2886

 maximum and minimum number of plane-waves per node :       738      703

 maximum number of plane-waves:      2902
 maximum index in each direction:
   IXMAX=   10   IYMAX=    9   IZMAX=    9
   IXMIN=  -10   IYMIN=  -10   IZMIN=  -10


 parallel 3D FFT for wavefunctions:
    minimum data exchange during FFTs selected (reduces bandwidth)
 parallel 3D FFT for charge:
    minimum data exchange during FFTs selected (reduces bandwidth)


 total amount of memory used by VASP MPI-rank0    91403. kBytes
=======================================================================

   base      :      30000. kBytes
   nonl-proj :      47257. kBytes
   fftplans  :       5205. kBytes
   grid      :       2732. kBytes
   one-center:         49. kBytes
   wavefun   :       6160. kBytes

     INWAV:  cpu time    0.0003: real time    0.0179
 Broyden mixing: mesh for mixing (old mesh)
   NGX = 19   NGY = 19   NGZ = 19
  (NGX  = 80   NGY  = 80   NGZ  = 80)
  gives a total of   6859 points

 initial charge density was supplied:
 charge density of overlapping atoms calculated
 number of electron      39.0000000 magnetization
 keeping initial charge density in first step


--------------------------------------------------------------------------------------------------------


 Maximum index for augmentation-charges        27662 (set IRDMAX)


--------------------------------------------------------------------------------------------------------


 First call to EWALD:  gamma=   0.433
 Maximum number of real-space cells 3x 3x 3
 Maximum number of reciprocal cells 3x 3x 3

    FEWALD:  cpu time    0.0055: real time    0.0060


--------------------------------------- Iteration      1(   1)  ---------------------------------------


    POTLOK:  cpu time    0.0489: real time    0.1161
    SETDIJ:  cpu time    0.0933: real time    0.0939
     EDDAV:  cpu time    1.4231: real time    1.4423
       DOS:  cpu time    0.0041: real time    0.0048
    --------------------------------------------
      LOOP:  cpu time    1.5698: real time    1.6584

 eigenvalue-minimisations  :  4032
 total energy-change (2. order) : 0.4334897E+03  (-0.2253656E+04)
 number of electron      39.0000000 magnetization
 augmentation part       39.0000000 magnetization

 Free energy of the ion-electron system (eV)
  ---------------------------------------------------
  alpha Z        PSCENC =       229.05442675
  Ewald energy   TEWEN  =     -3668.19119976
  -Hartree energ DENC   =      -752.79805535
  -exchange      EXHF   =         0.00000000
  -V(xc)+E(xc)   XCENC  =        91.12200465
  PAW double counting   =      3513.29252893    -3436.88002192
  entropy T*S    EENTRO =        -0.00013144
  eigenvalues    EBANDS =       362.53803636
  atomic energy  EATOM  =      4095.35208632
  Solvation  Ediel_sol  =         0.00000000
  ---------------------------------------------------
  free energy    TOTEN  =       433.48967455 eV

  energy without entropy =      433.48980599  energy(sigma->0) =      433.48974027


--------------------------------------------------------------------------------------------------------




--------------------------------------- Iteration      1(   2)  ---------------------------------------


     EDDAV:  cpu time    1.4944: real time    1.5251
       DOS:  cpu time    0.0031: real time    0.0033
    --------------------------------------------
      LOOP:  cpu time    1.4975: real time    1.5306

 eigenvalue-minimisations  :  4344
 total energy-change (2. order) :-0.4029778E+03  (-0.3947129E+03)
 number of electron      39.0000000 magnetization
 augmentation part       39.0000000 magnetization

 Free energy of the ion-electron system (eV)
  ---------------------------------------------------
  alpha Z        PSCENC =       229.05442675
  Ewald energy   TEWEN  =     -3668.19119976
  -Hartree energ DENC   =      -752.79805535
  -exchange      EXHF   =         0.00000000
  -V(xc)+E(xc)   XCENC  =        91.12200465
  PAW double counting   =      3513.29252893    -3436.88002192
  entropy T*S    EENTRO =        -0.00055091
  eigenvalues    EBANDS =       -40.43938248
  atomic energy  EATOM  =      4095.35208632
  Solvation  Ediel_sol  =         0.00000000
  ---------------------------------------------------
  free energy    TOTEN  =        30.51183624 eV

  energy without entropy =       30.51238715  energy(sigma->0) =       30.51211170


--------------------------------------------------------------------------------------------------------




--------------------------------------- Iteration      1(   3)  ---------------------------------------


     EDDAV:  cpu time    1.6800: real time    1.7001
       DOS:  cpu time    0.0031: real time    0.0038
    --------------------------------------------
      LOOP:  cpu time    1.6830: real time    1.7016

 eigenvalue-minimisations  :  5032
 total energy-change (2. order) :-0.5124003E+02  (-0.5013770E+02)
 number of electron      39.0000000 magnetization
 augmentation part       39.0000000 magnetization

 Free energy of the ion-electron system (eV)
  ---------------------------------------------------
  alpha Z        PSCENC =       229.05442675
  Ewald energy   TEWEN  =     -3668.19119976
  -Hartree energ DENC   =      -752.79805535
  -exchange      EXHF   =         0.00000000
  -V(xc)+E(xc)   XCENC  =        91.12200465
  PAW double counting   =      3513.29252893    -3436.88002192
  entropy T*S    EENTRO =        -0.00065660
  eigenvalues    EBANDS =       -91.67930326
  atomic energy  EATOM  =      4095.35208632
  Solvation  Ediel_sol  =         0.00000000
  ---------------------------------------------------
  free energy    TOTEN  =       -20.72819023 eV

  energy without entropy =      -20.72753363  energy(sigma->0) =      -20.72786193


--------------------------------------------------------------------------------------------------------




--------------------------------------- Iteration      1(   4)  ---------------------------------------


     EDDAV:  cpu time    2.2816: real time    2.3017
       DOS:  cpu time    0.0032: real time    0.0034
    --------------------------------------------
      LOOP:  cpu time    2.2848: real time    2.3062

 eigenvalue-minimisations  :  7440
 total energy-change (2. order) :-0.5175965E+01  (-0.5151889E+01)
 number of electron      39.0000000 magnetization
 augmentation part       39.0000000 magnetization

 Free energy of the ion-electron system (eV)
  ---------------------------------------------------
  alpha Z        PSCENC =       229.05442675
  Ewald energy   TEWEN  =     -3668.19119976
  -Hartree energ DENC   =      -752.79805535
  -exchange      EXHF   =         0.00000000
  -V(xc)+E(xc)   XCENC  =        91.12200465
  PAW double counting   =      3513.29252893    -3436.88002192
  entropy T*S    EENTRO =        -0.00089933
  eigenvalues    EBANDS =       -96.85502522
  atomic energy  EATOM  =      4095.35208632
  Solvation  Ediel_sol  =         0.00000000
  ---------------------------------------------------
  free energy    TOTEN  =       -25.90415492 eV

  energy without entropy =      -25.90325559  energy(sigma->0) =      -25.90370526


--------------------------------------------------------------------------------------------------------




--------------------------------------- Iteration      1(   5)  ---------------------------------------


     EDDAV:  cpu time    1.7690: real time    1.7963
       DOS:  cpu time    0.0032: real time    0.0034
    CHARGE:  cpu time    0.3334: real time    0.3338
    MIXING:  cpu time    0.0087: real time    0.0089
    --------------------------------------------
      LOOP:  cpu time    2.1143: real time    2.1419

 eigenvalue-minimisations  :  5488
 total energy-change (2. order) :-0.1606463E+00  (-0.1603120E+00)
 number of electron      39.0000001 magnetization
 augmentation part        8.7221065 magnetization

 Broyden mixing:
  rms(total) = 0.15462E+01    rms(broyden)= 0.15462E+01
  rms(prec ) = 0.43718E+01
  weight for this iteration     100.00

 Free energy of the ion-electron system (eV)
  ---------------------------------------------------
  alpha Z        PSCENC =       229.05442675
  Ewald energy   TEWEN  =     -3668.19119976
  -Hartree energ DENC   =      -752.79805535
  -exchange      EXHF   =         0.00000000
  -V(xc)+E(xc)   XCENC  =        91.12200465
  PAW double counting   =      3513.29252893    -3436.88002192
  entropy T*S    EENTRO =        -0.00082286
  eigenvalues    EBANDS =       -97.01574796
  atomic energy  EATOM  =      4095.35208632
  Solvation  Ediel_sol  =         0.00000000
  ---------------------------------------------------
  free energy    TOTEN  =       -26.06480120 eV

  energy without entropy =      -26.06397833  energy(sigma->0) =      -26.06438976


--------------------------------------------------------------------------------------------------------




--------------------------------------- Iteration      1(   6)  ---------------------------------------


    POTLOK:  cpu time    0.0351: real time    0.0617
    SETDIJ:  cpu time    0.0844: real time    0.0845
     EDDAV:  cpu time    1.9259: real time    1.9262
       DOS:  cpu time    0.0031: real time    0.0033
    CHARGE:  cpu time    0.2985: real time    0.2985
    MIXING:  cpu time    0.0056: real time    0.0058
    --------------------------------------------
      LOOP:  cpu time    2.3525: real time    2.3817

 eigenvalue-minimisations  :  6168
 total energy-change (2. order) :-0.6047706E+01  (-0.1769419E+02)
 number of electron      39.0000000 magnetization
 augmentation part        7.0263281 magnetization

 Broyden mixing:
  rms(total) = 0.22232E+01    rms(broyden)= 0.22232E+01
  rms(prec ) = 0.58247E+01
  weight for this iteration     100.00

 eigenvalues of (default mixing * dielectric matrix)
  average eigenvalue GAMMA=   0.3437
  0.3437

 Free energy of the ion-electron system (eV)
  ---------------------------------------------------
  alpha Z        PSCENC =       229.05442675
  Ewald energy   TEWEN  =     -3668.19119976
  -Hartree energ DENC   =      -758.08396389
  -exchange      EXHF   =         0.00000000
  -V(xc)+E(xc)   XCENC  =        91.57146684
  PAW double counting   =      3882.68969453    -3807.19276234
  entropy T*S    EENTRO =        -0.00018169
  eigenvalues    EBANDS =       -97.31207413
  atomic energy  EATOM  =      4095.35208632
  Solvation  Ediel_sol  =         0.00000000
  ---------------------------------------------------
  free energy    TOTEN  =       -32.11250738 eV

  energy without entropy =      -32.11232569  energy(sigma->0) =      -32.11241653


--------------------------------------------------------------------------------------------------------




--------------------------------------- Iteration      1(   7)  ---------------------------------------


    POTLOK:  cpu time    0.0458: real time    0.0664
    SETDIJ:  cpu time    0.0888: real time    0.0889
     EDDAV:  cpu time    1.8336: real time    1.8337
       DOS:  cpu time    0.0033: real time    0.0036
    CHARGE:  cpu time    0.2719: real time    0.2722
    MIXING:  cpu time    0.0049: real time    0.0052
    --------------------------------------------
      LOOP:  cpu time    2.2482: real time    2.2678

 eigenvalue-minimisations  :  5840
 total energy-change (2. order) : 0.7780466E+01  (-0.2596796E+01)
 number of electron      39.0000001 magnetization
 augmentation part        7.6202370 magnetization

 Broyden mixing:
  rms(total) = 0.91438E+00    rms(broyden)= 0.91437E+00
  rms(prec ) = 0.24942E+01
  weight for this iteration     100.00

 eigenvalues of (default mixing * dielectric matrix)
  average eigenvalue GAMMA=   0.7872
  0.7872  0.7872

 Free energy of the ion-electron system (eV)
  ---------------------------------------------------
  alpha Z        PSCENC =       229.05442675
  Ewald energy   TEWEN  =     -3668.19119976
  -Hartree energ DENC   =      -745.88738440
  -exchange      EXHF   =         0.00000000
  -V(xc)+E(xc)   XCENC  =        90.97874396
  PAW double counting   =      4005.32122523    -3934.06112048
  entropy T*S    EENTRO =        -0.00091354
  eigenvalues    EBANDS =       -96.89790584
  atomic energy  EATOM  =      4095.35208632
  Solvation  Ediel_sol  =         0.00000000
  ---------------------------------------------------
  free energy    TOTEN  =       -24.33204176 eV

  energy without entropy =      -24.33112822  energy(sigma->0) =      -24.33158499


--------------------------------------------------------------------------------------------------------




--------------------------------------- Iteration      1(   8)  ---------------------------------------


    POTLOK:  cpu time    0.0374: real time    0.4042
    SETDIJ:  cpu time    0.0819: real time    0.0820
     EDDAV:  cpu time    1.8902: real time    1.8904
       DOS:  cpu time    0.0032: real time    0.0034
    CHARGE:  cpu time    0.2806: real time    0.2822
    MIXING:  cpu time    0.0069: real time    0.0070
    --------------------------------------------
      LOOP:  cpu time    2.3003: real time    2.6688

 eigenvalue-minimisations  :  5976
 total energy-change (2. order) : 0.2651383E-01  (-0.2430018E+01)
 number of electron      39.0000001 magnetization
 augmentation part        8.6564605 magnetization

 Broyden mixing:
  rms(total) = 0.70288E+00    rms(broyden)= 0.70287E+00
  rms(prec ) = 0.23176E+01
  weight for this iteration     100.00

 eigenvalues of (default mixing * dielectric matrix)
  average eigenvalue GAMMA=   1.0124
  1.8971  0.5701  0.5701

 Free energy of the ion-electron system (eV)
  ---------------------------------------------------
  alpha Z        PSCENC =       229.05442675
  Ewald energy   TEWEN  =     -3668.19119976
  -Hartree energ DENC   =      -736.27520562
  -exchange      EXHF   =         0.00000000
  -V(xc)+E(xc)   XCENC  =        90.57336195
  PAW double counting   =      4144.45673528    -4076.61864081
  entropy T*S    EENTRO =        -0.00114526
  eigenvalues    EBANDS =      -102.65594678
  atomic energy  EATOM  =      4095.35208632
  Solvation  Ediel_sol  =         0.00000000
  ---------------------------------------------------
  free energy    TOTEN  =       -24.30552793 eV

  energy without entropy =      -24.30438267  energy(sigma->0) =      -24.30495530


--------------------------------------------------------------------------------------------------------




--------------------------------------- Iteration      1(   9)  ---------------------------------------


    POTLOK:  cpu time    0.0395: real time    0.0608
    SETDIJ:  cpu time    0.0883: real time    0.0885
     EDDAV:  cpu time    1.9293: real time    1.9295
       DOS:  cpu time    0.0033: real time    0.0034
    CHARGE:  cpu time    0.2725: real time    0.2726
    MIXING:  cpu time    0.0059: real time    0.0060
    --------------------------------------------
      LOOP:  cpu time    2.3388: real time    2.3631

 eigenvalue-minimisations  :  6160
 total energy-change (2. order) : 0.6513203E+00  (-0.7478969E+00)
 number of electron      39.0000001 magnetization
 augmentation part        7.9383840 magnetization

 Broyden mixing:
  rms(total) = 0.12845E+00    rms(broyden)= 0.12845E+00
  rms(prec ) = 0.29474E+00
  weight for this iteration     100.00

 eigenvalues of (default mixing * dielectric matrix)
  average eigenvalue GAMMA=   1.0059
  2.2483  0.5829  0.5829  0.6097

 Free energy of the ion-electron system (eV)
  ---------------------------------------------------
  alpha Z        PSCENC =       229.05442675
  Ewald energy   TEWEN  =     -3668.19119976
  -Hartree energ DENC   =      -739.03506579
  -exchange      EXHF   =         0.00000000
  -V(xc)+E(xc)   XCENC  =        90.73705187
  PAW double counting   =      4310.44560577    -4243.87950155
  entropy T*S    EENTRO =        -0.00137223
  eigenvalues    EBANDS =       -98.13623898
  atomic energy  EATOM  =      4095.35208632
  Solvation  Ediel_sol  =         0.00000000
  ---------------------------------------------------
  free energy    TOTEN  =       -23.65420760 eV

  energy without entropy =      -23.65283537  energy(sigma->0) =      -23.65352149


--------------------------------------------------------------------------------------------------------




--------------------------------------- Iteration      1(  10)  ---------------------------------------


    POTLOK:  cpu time    0.0418: real time    0.0616
    SETDIJ:  cpu time    0.0885: real time    0.0886
     EDDAV:  cpu time    2.0066: real time    2.0069
       DOS:  cpu time    0.0031: real time    0.0035
    CHARGE:  cpu time    0.2730: real time    0.2731
    MIXING:  cpu time    0.0058: real time    0.0059
    --------------------------------------------
      LOOP:  cpu time    2.4189: real time    2.4376

 eigenvalue-minimisations  :  6384
 total energy-change (2. order) :-0.1389464E-01  (-0.2430624E-01)
 number of electron      39.0000001 magnetization
 augmentation part        7.9445530 magnetization

 Broyden mixing:
  rms(total) = 0.93524E-01    rms(broyden)= 0.93524E-01
  rms(prec ) = 0.30373E+00
  weight for this iteration     100.00

 eigenvalues of (default mixing * dielectric matrix)
  average eigenvalue GAMMA=   0.9688
  1.9317  0.5588  0.5588  0.8117  0.9831

 Free energy of the ion-electron system (eV)
  ---------------------------------------------------
  alpha Z        PSCENC =       229.05442675
  Ewald energy   TEWEN  =     -3668.19119976
  -Hartree energ DENC   =      -737.66563735
  -exchange      EXHF   =         0.00000000
  -V(xc)+E(xc)   XCENC  =        90.69199792
  PAW double counting   =      4369.06261662    -4303.18611454
  entropy T*S    EENTRO =        -0.00141864
  eigenvalues    EBANDS =       -98.78485957
  atomic energy  EATOM  =      4095.35208632
  Solvation  Ediel_sol  =         0.00000000
  ---------------------------------------------------
  free energy    TOTEN  =       -23.66810224 eV

  energy without entropy =      -23.66668360  energy(sigma->0) =      -23.66739292


--------------------------------------------------------------------------------------------------------




--------------------------------------- Iteration      1(  11)  ---------------------------------------


    POTLOK:  cpu time    0.0422: real time    0.0592
    SETDIJ:  cpu time    0.0918: real time    0.0919
     EDDAV:  cpu time    1.8753: real time    1.8755
       DOS:  cpu time    0.0033: real time    0.0035
    CHARGE:  cpu time    0.2721: real time    0.2723
    MIXING:  cpu time    0.0069: real time    0.0070
    --------------------------------------------
      LOOP:  cpu time    2.2917: real time    2.3107

 eigenvalue-minimisations  :  6000
 total energy-change (2. order) : 0.1459749E-01  (-0.1452474E-01)
 number of electron      39.0000001 magnetization
 augmentation part        8.0337019 magnetization

 Broyden mixing:
  rms(total) = 0.31205E-01    rms(broyden)= 0.31205E-01
  rms(prec ) = 0.59229E-01
  weight for this iteration     100.00

 eigenvalues of (default mixing * dielectric matrix)
  average eigenvalue GAMMA=   1.2507
  2.4637  2.3774  0.5594  0.5594  0.8404  0.7040

 Free energy of the ion-electron system (eV)
  ---------------------------------------------------
  alpha Z        PSCENC =       229.05442675
  Ewald energy   TEWEN  =     -3668.19119976
  -Hartree energ DENC   =      -737.18164649
  -exchange      EXHF   =         0.00000000
  -V(xc)+E(xc)   XCENC  =        90.66272564
  PAW double counting   =      4360.12279091    -4294.26712636
  entropy T*S    EENTRO =        -0.00151926
  eigenvalues    EBANDS =       -99.20404250
  atomic energy  EATOM  =      4095.35208632
  Solvation  Ediel_sol  =         0.00000000
  ---------------------------------------------------
  free energy    TOTEN  =       -23.65350475 eV

  energy without entropy =      -23.65198549  energy(sigma->0) =      -23.65274512


--------------------------------------------------------------------------------------------------------




--------------------------------------- Iteration      1(  12)  ---------------------------------------


    POTLOK:  cpu time    0.0443: real time    0.0754
    SETDIJ:  cpu time    0.0885: real time    0.0885
     EDDAV:  cpu time    2.0886: real time    2.0888
       DOS:  cpu time    0.0034: real time    0.0036
    CHARGE:  cpu time    0.2730: real time    0.2731
    MIXING:  cpu time    0.0053: real time    0.0054
    --------------------------------------------
      LOOP:  cpu time    2.5031: real time    2.5361

 eigenvalue-minimisations  :  6848
 total energy-change (2. order) :-0.1143282E-03  (-0.6123106E-03)
 number of electron      39.0000001 magnetization
 augmentation part        8.0222524 magnetization

 Broyden mixing:
  rms(total) = 0.52598E-02    rms(broyden)= 0.52597E-02
  rms(prec ) = 0.14187E-01
  weight for this iteration     100.00

 eigenvalues of (default mixing * dielectric matrix)
  average eigenvalue GAMMA=   1.2348
  2.7037  2.1096  0.5612  0.5612  1.0191  1.0191  0.6700

 Free energy of the ion-electron system (eV)
  ---------------------------------------------------
  alpha Z        PSCENC =       229.05442675
  Ewald energy   TEWEN  =     -3668.19119976
  -Hartree energ DENC   =      -737.26718180
  -exchange      EXHF   =         0.00000000
  -V(xc)+E(xc)   XCENC  =        90.66327698
  PAW double counting   =      4373.14263370    -4307.26317341
  entropy T*S    EENTRO =        -0.00152351
  eigenvalues    EBANDS =       -99.14296435
  atomic energy  EATOM  =      4095.35208632
  Solvation  Ediel_sol  =         0.00000000
  ---------------------------------------------------
  free energy    TOTEN  =       -23.65361908 eV

  energy without entropy =      -23.65209557  energy(sigma->0) =      -23.65285733


--------------------------------------------------------------------------------------------------------




--------------------------------------- Iteration      1(  13)  ---------------------------------------


    POTLOK:  cpu time    0.0341: real time    0.0639
    SETDIJ:  cpu time    0.0884: real time    0.0885
     EDDAV:  cpu time    1.9157: real time    1.9160
       DOS:  cpu time    0.0034: real time    0.0036
    CHARGE:  cpu time    0.2854: real time    0.2855
    MIXING:  cpu time    0.0068: real time    0.0069
    --------------------------------------------
      LOOP:  cpu time    2.3336: real time    2.3635

 eigenvalue-minimisations  :  6160
 total energy-change (2. order) : 0.3511902E-04  (-0.6501078E-04)
 number of electron      39.0000001 magnetization
 augmentation part        8.0171902 magnetization

 Broyden mixing:
  rms(total) = 0.33078E-02    rms(broyden)= 0.33078E-02
  rms(prec ) = 0.10808E-01
  weight for this iteration     100.00

 eigenvalues of (default mixing * dielectric matrix)
  average eigenvalue GAMMA=   1.2373
  2.4825  2.1004  1.6937  0.5611  0.5611  0.9124  0.9124  0.6745

 Free energy of the ion-electron system (eV)
  ---------------------------------------------------
  alpha Z        PSCENC =       229.05442675
  Ewald energy   TEWEN  =     -3668.19119976
  -Hartree energ DENC   =      -737.32248822
  -exchange      EXHF   =         0.00000000
  -V(xc)+E(xc)   XCENC  =        90.66495044
  PAW double counting   =      4373.24772870    -4307.30418304
  entropy T*S    EENTRO =        -0.00152005
  eigenvalues    EBANDS =       -99.15338510
  atomic energy  EATOM  =      4095.35208632
  Solvation  Ediel_sol  =         0.00000000
  ---------------------------------------------------
  free energy    TOTEN  =       -23.65358396 eV

  energy without entropy =      -23.65206391  energy(sigma->0) =      -23.65282394


--------------------------------------------------------------------------------------------------------




--------------------------------------- Iteration      1(  14)  ---------------------------------------


    POTLOK:  cpu time    0.0348: real time    0.0649
    SETDIJ:  cpu time    0.0866: real time    0.0868
     EDDAV:  cpu time    1.8626: real time    1.8627
       DOS:  cpu time    0.0034: real time    0.0036
    CHARGE:  cpu time    0.2726: real time    0.2728
    MIXING:  cpu time    0.0071: real time    0.0072
    --------------------------------------------
      LOOP:  cpu time    2.2671: real time    2.2990

 eigenvalue-minimisations  :  5864
 total energy-change (2. order) : 0.2106783E-05  (-0.5070258E-04)
 number of electron      39.0000001 magnetization
 augmentation part        8.0210569 magnetization

 Broyden mixing:
  rms(total) = 0.30417E-02    rms(broyden)= 0.30417E-02
  rms(prec ) = 0.95017E-02
  weight for this iteration     100.00

 eigenvalues of (default mixing * dielectric matrix)
  average eigenvalue GAMMA=   1.2765
  2.6913  2.1416  1.4145  1.4145  0.5612  0.5612  1.0842  0.9416  0.6786

 Free energy of the ion-electron system (eV)
  ---------------------------------------------------
  alpha Z        PSCENC =       229.05442675
  Ewald energy   TEWEN  =     -3668.19119976
  -Hartree energ DENC   =      -737.29633218
  -exchange      EXHF   =         0.00000000
  -V(xc)+E(xc)   XCENC  =        90.66330866
  PAW double counting   =      4373.56401678    -4307.60068826
  entropy T*S    EENTRO =        -0.00153168
  eigenvalues    EBANDS =       -99.19766848
  atomic energy  EATOM  =      4095.35208632
  Solvation  Ediel_sol  =         0.00000000
  ---------------------------------------------------
  free energy    TOTEN  =       -23.65358185 eV

  energy without entropy =      -23.65205017  energy(sigma->0) =      -23.65281601


--------------------------------------------------------------------------------------------------------




--------------------------------------- Iteration      1(  15)  ---------------------------------------


    POTLOK:  cpu time    0.0439: real time    0.0664
    SETDIJ:  cpu time    0.0861: real time    0.0862
     EDDAV:  cpu time    1.8805: real time    1.8808
       DOS:  cpu time    0.0032: real time    0.0035
    CHARGE:  cpu time    0.2742: real time    0.2743
    MIXING:  cpu time    0.0069: real time    0.0070
    --------------------------------------------
      LOOP:  cpu time    2.2949: real time    2.3173

 eigenvalue-minimisations  :  5960
 total energy-change (2. order) : 0.1155600E-04  (-0.1388250E-04)
 number of electron      39.0000001 magnetization
 augmentation part        8.0194025 magnetization

 Broyden mixing:
  rms(total) = 0.44103E-03    rms(broyden)= 0.44096E-03
  rms(prec ) = 0.11541E-02
  weight for this iteration     100.00

 eigenvalues of (default mixing * dielectric matrix)
  average eigenvalue GAMMA=   1.2918
  2.6098  2.3965  1.9574  0.5611  0.5611  1.1816  1.0413  1.0413  0.6815  0.8860

 Free energy of the ion-electron system (eV)
  ---------------------------------------------------
  alpha Z        PSCENC =       229.05442675
  Ewald energy   TEWEN  =     -3668.19119976
  -Hartree energ DENC   =      -737.30895796
  -exchange      EXHF   =         0.00000000
  -V(xc)+E(xc)   XCENC  =        90.66382256
  PAW double counting   =      4374.06085488    -4308.09539928
  entropy T*S    EENTRO =        -0.00152665
  eigenvalues    EBANDS =       -99.18767715
  atomic energy  EATOM  =      4095.35208632
  Solvation  Ediel_sol  =         0.00000000
  ---------------------------------------------------
  free energy    TOTEN  =       -23.65357030 eV

  energy without entropy =      -23.65204364  energy(sigma->0) =      -23.65280697


--------------------------------------------------------------------------------------------------------




--------------------------------------- Iteration      1(  16)  ---------------------------------------


    POTLOK:  cpu time    0.0393: real time    0.0637
    SETDIJ:  cpu time    0.0864: real time    0.0865
     EDDAV:  cpu time    2.0484: real time    2.0487
       DOS:  cpu time    0.0033: real time    0.0036
    CHARGE:  cpu time    0.2713: real time    0.2714
    MIXING:  cpu time    0.0065: real time    0.0093
    --------------------------------------------
      LOOP:  cpu time    2.4552: real time    2.4842

 eigenvalue-minimisations  :  6632
 total energy-change (2. order) : 0.6120172E-07  (-0.4562049E-06)
 number of electron      39.0000001 magnetization
 augmentation part        8.0194830 magnetization

 Broyden mixing:
  rms(total) = 0.33762E-03    rms(broyden)= 0.33753E-03
  rms(prec ) = 0.90301E-03
  weight for this iteration     100.00

 eigenvalues of (default mixing * dielectric matrix)
  average eigenvalue GAMMA=   1.2837
  2.7471  2.2018  2.2018  1.4033  0.5611  0.5611  1.0122  1.0122  0.6783  0.8706
  0.8706

 Free energy of the ion-electron system (eV)
  ---------------------------------------------------
  alpha Z        PSCENC =       229.05442675
  Ewald energy   TEWEN  =     -3668.19119976
  -Hartree energ DENC   =      -737.31226146
  -exchange      EXHF   =         0.00000000
  -V(xc)+E(xc)   XCENC  =        90.66391180
  PAW double counting   =      4374.15037947    -4308.18072840
  entropy T*S    EENTRO =        -0.00152714
  eigenvalues    EBANDS =       -99.18865782
  atomic energy  EATOM  =      4095.35208632
  Solvation  Ediel_sol  =         0.00000000
  ---------------------------------------------------
  free energy    TOTEN  =       -23.65357024 eV

  energy without entropy =      -23.65204310  energy(sigma->0) =      -23.65280667


--------------------------------------------------------------------------------------------------------




--------------------------------------- Iteration      1(  17)  ---------------------------------------


    POTLOK:  cpu time    0.0323: real time    0.0662
    SETDIJ:  cpu time    0.0862: real time    0.0863
     EDDAV:  cpu time    1.4499: real time    1.4500
       DOS:  cpu time    0.0033: real time    0.0036
    --------------------------------------------
      LOOP:  cpu time    1.5715: real time    1.6032

 eigenvalue-minimisations  :  4096
 total energy-change (2. order) :-0.1666376E-07  (-0.2849307E-07)
 number of electron      39.0000001 magnetization
 augmentation part        8.0194830 magnetization

 Free energy of the ion-electron system (eV)
  ---------------------------------------------------
  alpha Z        PSCENC =       229.05442675
  Ewald energy   TEWEN  =     -3668.19119976
  -Hartree energ DENC   =      -737.31216828
  -exchange      EXHF   =         0.00000000
  -V(xc)+E(xc)   XCENC  =        90.66393841
  PAW double counting   =      4374.22499076    -4308.25595926
  entropy T*S    EENTRO =        -0.00152710
  eigenvalues    EBANDS =       -99.18815809
  atomic energy  EATOM  =      4095.35208632
  Solvation  Ediel_sol  =         0.00000000
  ---------------------------------------------------
  free energy    TOTEN  =       -23.65357025 eV

  energy without entropy =      -23.65204315  energy(sigma->0) =      -23.65280670


--------------------------------------------------------------------------------------------------------




 average (electrostatic) potential at core
  the test charge radii are     1.2087  1.0856  1.2059
  (the norm of the test charge is              1.0000)
       1 -82.6024       2 -99.8754       3 -63.8465



 E-fermi :  10.9677     XC(G=0): -11.8441     alpha+bet :-17.0675


 k-point     1 :       0.0000    0.0000    0.0000
  band No.  band energies     occupation
      1     -33.0994      2.00000
      2     -12.0676      2.00000
      3     -12.0676      2.00000
      4     -12.0348      2.00000
      5     -12.0348      2.00000
      6     -12.0348      2.00000
      7      -8.4577      2.00000
      8      -8.4577      2.00000
      9      -8.4577      2.00000
     10      -1.9410      2.00000
     11       6.0645      2.00000
     12       6.0645      2.00000
     13       6.0645      2.00000
     14       6.2505      2.00000
     15       6.2505      2.00000
     16       9.5414      2.00000
     17       9.6788      2.00000
     18       9.6788      2.00000
     19       9.6788      2.00000
     20      10.8654      2.00000
     21      10.8654      2.00000
     22      10.8654      2.00000
     23      11.2501      0.00000
     24      11.2501      0.00000

 k-point     2 :       0.0769    0.0000    0.0000
  band No.  band energies     occupation
      1     -33.0990      2.00000
      2     -12.0699      2.00000
      3     -12.0699      2.00000
      4     -12.0352      2.00000
      5     -12.0345      2.00000
      6     -12.0345      2.00000
      7      -8.4778      2.00000
      8      -8.4526      2.00000
      9      -8.4526      2.00000
     10      -1.8596      2.00000
     11       5.9018      2.00000
     12       5.9018      2.00000
     13       5.9378      2.00000
     14       6.4033      2.00000
     15       6.4033      2.00000
     16       8.9439      2.00000
     17       9.6149      2.00000
     18       9.6149      2.00000
     19      10.0505      2.00000
     20      10.8712      2.00000
     21      10.8712      2.00000
     22      10.9031      2.00000
     23      11.3198      0.00000
     24      11.3422      0.00000

 k-point     3 :       0.1538   -0.0000    0.0000
  band No.  band energies     occupation
      1     -33.0979      2.00000
      2     -12.0762      2.00000
      3     -12.0762      2.00000
      4     -12.0365      2.00000
      5     -12.0337      2.00000
      6     -12.0337      2.00000
      7      -8.5309      2.00000
      8      -8.4384      2.00000
[...]
  212              fftbas_plan_mpi                       0.060712                     12   6
  213                dfftw_execute                         0.025828                   36   7
  214                map_backward                          0.004345                   12   7
  215                  map_gather                            0.000731                  6   8
  216                  m_alltoallv_z                         0.002135                  6   8
  217                  map_scatter                           0.001203                  6   8
  218                map_forward                           0.027642                   12   7
  219                  map_gather                            0.015288                  6   8
  220                  m_alltoallv_z                         0.005434                  6   8
  221                  map_scatter                           0.006634                  6   8
  222            M_sumb_d                              0.000938                        6   5
  223          M_sumb_d                              0.000029                          1   4
  224        setdij_                               1.423126                           20   3
  225          fft3d_mpi                             0.215208                         40   4
  226            fftbas_plan_mpi                       0.198087                       40   5
  227              dfftw_execute                         0.086649                    120   6
  228              map_backward                          0.013753                     40   6
  229                map_gather                            0.003003                   20   7
  230                m_alltoallv_z                         0.006157                   20   7
  231                map_scatter                           0.003636                   20   7
  232              map_forward                           0.087857                     40   6
  233                map_gather                            0.048452                   20   7
  234                m_alltoallv_z                         0.017334                   20   7
  235                map_scatter                           0.021033                   20   7
  236          M_sumb_d                              0.006395                         20   4
  237        set_dd_magatom                        0.000004                            1   3
  238        set_dd_paw                            0.015347                            1   3
  239          set_rsgf_all                          0.000004                          1   4
  240          M_sumb_d                              0.015205                          8   4
  241        strkin                                0.001232                            1   3
  242          M_sumb_d                              0.000577                          1   4
  243        strelo                                0.002570                            1   3
  244          M_sumb_d                              0.000499                          2   4
  245        strenl                                1.018976                            1   3
  246          spher                                 0.748902                         19   4
  247          phase                                 0.012039                        189   4
  248          proj1                                 0.224679                       1134   4
  249            crexp_mul_wave                        0.030407                     3402   5
  250            M_sumb_d                              0.063552                     1134   5
  251          M_sumb_d                              0.011470                          1   4
  252        M_sumb_d                              0.000283                            6   3
  253        fft3d_mpi                             0.015590                           11   3
  254          fftbas_plan_mpi                       0.014581                         11   4
  255            dfftw_execute                         0.005245                       33   5
  256            map_forward                           0.003126                       10   5
  257              map_gather                            0.000586                      5   6
  258              m_alltoallv_z                         0.001435                      5   6
  259              map_scatter                           0.000868                      5   6
  260            map_backward                          0.003729                       12   5
  261              map_gather                            0.000685                      6   6
  262              m_alltoallv_z                         0.001644                      6   6
  263              map_scatter                           0.001118                      6   6
  264        ggaall_grid                           0.001587                            1   3
  265        forhar                                0.005950                            2   3
  266          M_sumb_d                              0.000232                          2   4
  267        strehar                               0.002663                            1   3
  268          M_sumb_d                              0.000156                          1   4
  269        chggra                                0.006109                            1   3
  270          fft3d_mpi                             0.004175                          3   4
  271            fftbas_plan_mpi                       0.003897                        3   5
  272              dfftw_execute                         0.001407                      9   6
  273              map_backward                          0.000665                      2   6
  274                map_gather                            0.000115                    1   7
  275                m_alltoallv_z                         0.000244                    1   7
  276                map_scatter                           0.000250                    1   7
  277              map_forward                           0.001103                      4   6
  278                map_gather                            0.000248                    2   7
  279                m_alltoallv_z                         0.000514                    2   7
  280                map_scatter                           0.000247                    2   7
  281          M_sumb_d                              0.000130                          3   4
  282        brmix                                 0.012654                            1   3
  283          M_sumb_d                              0.000292                          6   4
  284          brpre                                 0.000047                          1   4
  285          setg0                                 0.001112                          1   4
  286          broyd                                 0.002557                          1   4
  287            M_sumb_d                              0.000753                       19   5
  288            brget                                 0.000327                       69   5
  289            brsav                                 0.000075                       17   5
  290          M_bcast_z                             0.007721                          1   4
  291          M_bcast_d                             0.000033                          1   4
  292        M_bcast_d                             0.000297                            2   3
  293      potlok                                0.026023                              1   2
  294        fft3d_mpi                             0.017670                           13   3
  295          fftbas_plan_mpi                       0.016494                         13   4
  296            dfftw_execute                         0.005713                       39   5
  297            map_forward                           0.003963                       14   5
  298              map_gather                            0.000857                      8   6
  299              m_alltoallv_z                         0.001915                      8   6
  300              map_scatter                           0.000852                      8   6
  301            map_backward                          0.003743                       12   5
  302              map_gather                            0.000777                      6   6
  303              m_alltoallv_z                         0.001501                      6   6
  304              map_scatter                           0.001175                      6   6
  305        ggaall_grid                           0.001579                            1   3
  306        M_sumb_d                              0.000358                            6   3
  307        M_bcast_d                             0.000106                            1   3
  308      potlok_metagga                        0.000003                              1   2
  309      set_dd_magatom                        0.000004                              1   2
  310      set_dd_paw                            0.000476                              1   2
  311        set_rsgf_all                          0.000004                            1   3
  312        M_sumb_d                              0.000263                            8   3
  313      densta                                0.002630                              1   2
  314        M_sumb_d                              0.000986                           44   3
  315      lprj_proall                           0.000007                              1   2

 Flat profile
 ============

             routine name                   CPU           calls
 ---------------------------------------------------------------
 total_time                             13.515861           1
 eddav                                   5.757381          17
 dfftw_execute                           5.349831       55017
 fftbas_plan_mpi                         3.678453       18341
 M_sumb_d                                2.970142       50642
 setdij_                                 2.590560          41
 set_charge                              2.165607          13
 m_alltoallv_z                           2.033760       18366
 pdssyex_zheevx                          1.578189         357
 elmin                                   1.528239           1
 M_alltoall_d                            1.287037       60830
 orth1                                   0.983869       12462
 proj1                                   0.982679        7412
 gemm                                    0.873184       24882
 spher                                   0.865991          20
 vhamil                                  0.838414        8294
 fftwav_mpi                              0.707926        9740
 map_forward                             0.697857       19774
 map_gather                              0.670126       18366
 map_scatter                             0.617536       18366
 vnlac0                                  0.559685        8294
 redis_pw                                0.511001       23496
 M_bcast_z                               0.505027        6700
 redis_proj                              0.452790       29669
 hamiltmu                                0.451132        4147
 w1_copy                                 0.348243       24882
 crpa_reader                             0.299508           1
 map_backward                            0.299388       16904
 fft3d_mpi                               0.292718       18339
 work_mul_crexp                          0.287017       24882
 fftext_mpi                              0.265942        8294
 crexp_mul_wave                          0.213284       22236
 eccp                                    0.190095        2142
 kinhamil                                0.167760        8294
 overl                                   0.162645       14467
 M_bcast_d                               0.135332        4181
 overl1                                  0.103339        8294
 potlok                                  0.090384          14
 pw_charge                               0.089268        1446
 apply_precond                           0.084485        6152
 setup_precond                           0.070762        2142
 w1_projall                              0.067567        3076
 lincom                                  0.061902         378
 force_and_stress                        0.054304           1
 fornl                                   0.044881           1
 phase                                   0.037625         589
 truncate_high_frequency_w1              0.035837       10436
 soft_charge                             0.034077          13
 densta                                  0.029567          18
 brmix                                   0.027425          13
 ggaall_grid                             0.023443          15
 strenl                                  0.021886           1
 setg0                                   0.015139          14
 broyd                                   0.013814          13
 depsum                                  0.005721          13
 forhar                                  0.005718           2
 forloc                                  0.003360           1
 set_dd_paw                              0.003150          15
 strehar                                 0.002507           1
 brget                                   0.002349         501
 strelo                                  0.002071           1
 orthch                                  0.002044           1
 chggra                                  0.001804           1
 choleski                                0.001745          21
 proj                                    0.001567          21
 brgrid                                  0.001173           1
 brpre                                   0.000976          13
 brsav                                   0.000773         145
 strkin                                  0.000655           1
 fordep                                  0.000116           1
 set_rsgf_all                            0.000073          15
 vectorpot                               0.000072          14
 set_dd_magatom                          0.000059          15
 potlok_metagga                          0.000053          14
 set_kineden                             0.000045          12
 rotate_active_occupied_orbital          0.000014           1
 lprj_proall                             0.000007           1
 redis_pw_over_bands                     0.000003           1
 ---------------------------------------------------------------
  summed up times    55.7759649753571

 Accumulative profile
 ====================

             routine name                   CPU           calls
 ---------------------------------------------------------------
 total_time                             55.775965           1
 elmin                                  37.827272           1
 eddav                                  31.318310          17
 fft3d_mpi                              13.593534       18339
 fftbas_plan_mpi                        13.346951       18341
 hamiltmu                                9.704013        4147
 fftwav_mpi                              7.708717        9740
 kinhamil                                6.068126        8294
 fftext_mpi                              5.900366        8294
 dfftw_execute                           5.349831       55017
 set_charge                              3.641424          13
 force_and_stress                        3.332656           1
 setdij_                                 3.087190          41
 M_sumb_d                                2.970142       50642
 map_forward                             2.529416       19774
 vnlac0                                  2.243002        8294
 m_alltoallv_z                           2.033760       18366
 map_backward                            1.789251       16904
 proj1                                   1.681178        7412
 pdssyex_zheevx                          1.578189         357
 w1_projall                              1.499367        3076
 M_alltoall_d                            1.287037       60830
 soft_charge                             1.254947          13
 redis_pw                                1.234128       23496
 strenl                                  1.018976           1
 redis_proj                              1.016700       29669
 orth1                                   0.983869       12462
 gemm                                    0.873184       24882
 spher                                   0.865991          20
 vhamil                                  0.838414        8294
 map_gather                              0.670126       18366
 map_scatter                             0.617536       18366
 M_bcast_z                               0.505027        6700
 fordep                                  0.437604           1
 potlok                                  0.369885          14
 w1_copy                                 0.348243       24882
 eccp                                    0.315935        2142
 crpa_reader                             0.299508           1
 work_mul_crexp                          0.287017       24882
 crexp_mul_wave                          0.213284       22236
 set_dd_paw                              0.163970          15
 overl                                   0.162645       14467
 M_bcast_d                               0.135332        4181
 setup_precond                           0.122226        2142
 overl1                                  0.103339        8294
 brmix                                   0.090508          13
 pw_charge                               0.089268        1446
 apply_precond                           0.084485        6152
 fornl                                   0.063008           1
 lincom                                  0.061902         378
 densta                                  0.044353          18
 phase                                   0.037625         589
 truncate_high_frequency_w1              0.035837       10436
 orthch                                  0.027379           1
 proj                                    0.026266          21
 ggaall_grid                             0.023443          15
 broyd                                   0.022580          13
 setg0                                   0.015139          14
 depsum                                  0.009187          13
 chggra                                  0.006109           1
 forhar                                  0.005950           2
 forloc                                  0.003724           1
 strehar                                 0.002663           1
 strelo                                  0.002570           1
 brget                                   0.002349         501
 choleski                                0.001745          21
 strkin                                  0.001232           1
 brgrid                                  0.001173           1
 brpre                                   0.000976          13
 brsav                                   0.000773         145
 set_rsgf_all                            0.000073          15
 vectorpot                               0.000072          14
 set_dd_magatom                          0.000059          15
 potlok_metagga                          0.000053          14
 set_kineden                             0.000045          12
 rotate_active_occupied_orbital          0.000014           1
 lprj_proall                             0.000007           1
 redis_pw_over_bands                     0.000003           1
 ---------------------------------------------------------------

Profiling took   1.445736  1.747996  0.006422  0.005027 seconds
Profiling took   1.415778 seconds
