<?xml version="1.0" encoding="ISO-8859-1"?>
<modeling>
 <generator>
  <i name="program" type="string">vasp </i>
  <i name="version" type="string">6.0.8  </i>
  <i name="subversion" type="string">29Jun18 (build Jun 13 2019 12:54:44) complex                          parallel </i>
  <i name="platform" type="string">IFC18_CrayMPICH </i>
  <i name="date" type="string">2021 12 05 </i>
  <i name="time" type="string">14:21:47 </i>
 </generator>
 <incar>
  <i type="int" name="KPAR">     4</i>
  <i type="int" name="NPAR">     4</i>
  <i type="int" name="ISTART">     0</i>
  <i type="string" name="PREC"> ACC</i>
  <i type="string" name="ALGO"> Normal</i>
  <i type="logical" name="ADDGRID"> T  </i>
  <i type="int" name="ISPIN">     1</i>
  <i type="int" name="NELMIN">     5</i>
  <i type="int" name="IBRION">    -1</i>
  <i name="EDIFF">      0.00000010</i>
  <i type="int" name="NSW">     0</i>
  <i type="int" name="ISIF">     3</i>
  <i name="ENCUT">    700.00000000</i>
  <i type="logical" name="LREAL"> F  </i>
  <i type="int" name="ISMEAR">     0</i>
  <i name="SIGMA">      0.01000000</i>
  <i type="logical" name="LWAVE"> F  </i>
  <i type="logical" name="LCHARG"> F  </i>
  <i type="logical" name="LVTOT"> F  </i>
  <i type="string" name="ALGO"> Normal</i>
  <i type="string" name="GGA"> PS</i>
  <i name="EDIFF">      0.00000010</i>
  <i type="int" name="ISPIN">     1</i>
 </incar>
 <structure name="primitive_cell" >
  <crystal>
   <varray name="basis" >
    <v>       0.00000000       3.24991504       3.24991504 </v>
    <v>       3.24991504       0.00000000       3.24991504 </v>
    <v>       3.24991504       3.24991504       0.00000000 </v>
   </varray>
   <i name="volume">     68.65086563 </i>
   <varray name="rec_basis" >
    <v>      -0.15385018       0.15385018       0.15385018 </v>
    <v>       0.15385018      -0.15385018       0.15385018 </v>
    <v>       0.15385018       0.15385018      -0.15385018 </v>
   </varray>
  </crystal>
  <varray name="positions" >
   <v>       0.25000000       0.25000000       0.25000000 </v>
   <v>       0.75000000       0.75000000       0.75000000 </v>
   <v>       0.00000000       0.00000000       0.00000000 </v>
  </varray>
 </structure>
 <varray name="primitive_index" >
  <v type="int" >        1 </v>
  <v type="int" >        2 </v>
  <v type="int" >        3 </v>
 </varray>
 <kpoints>
  <generation param="Gamma">
   <v type="int" name="divisions">      13       13       13 </v>
   <v name="usershift">      0.00000000       0.00000000       0.00000000 </v>
   <v name="genvec1">      0.07692308       0.00000000      -0.00000000 </v>
   <v name="genvec2">      0.00000000       0.07692308       0.00000000 </v>
   <v name="genvec3">     -0.00000000      -0.00000000       0.07692308 </v>
   <v name="shift">      0.00000000       0.00000000       0.00000000 </v>
  </generation>
  <varray name="kpointlist" >
   <v>       0.00000000       0.00000000       0.00000000 </v>
   <v>       0.07692308       0.00000000       0.00000000 </v>
   <v>       0.15384615      -0.00000000       0.00000000 </v>
   <v>       0.23076923      -0.00000000       0.00000000 </v>
   <v>       0.30769231      -0.00000000       0.00000000 </v>
   <v>       0.38461538      -0.00000000       0.00000000 </v>
   <v>       0.46153846       0.00000000      -0.00000000 </v>
   <v>       0.07692308       0.07692308      -0.00000000 </v>
   <v>       0.15384615       0.07692308       0.00000000 </v>
   <v>       0.23076923       0.07692308       0.00000000 </v>
   <v>       0.30769231       0.07692308       0.00000000 </v>
   <v>       0.38461538       0.07692308       0.00000000 </v>
   <v>       0.46153846       0.07692308       0.00000000 </v>
   <v>      -0.46153846       0.07692308      -0.00000000 </v>
   <v>      -0.38461538       0.07692308      -0.00000000 </v>
   <v>      -0.30769231       0.07692308      -0.00000000 </v>
   <v>      -0.23076923       0.07692308      -0.00000000 </v>
   <v>      -0.15384615       0.07692308      -0.00000000 </v>
   <v>      -0.07692308       0.07692308       0.00000000 </v>
   <v>       0.15384615       0.15384615      -0.00000000 </v>
   <v>       0.23076923       0.15384615      -0.00000000 </v>
   <v>       0.30769231       0.15384615       0.00000000 </v>
   <v>       0.38461538       0.15384615       0.00000000 </v>
   <v>       0.46153846       0.15384615       0.00000000 </v>
   <v>      -0.46153846       0.15384615      -0.00000000 </v>
   <v>      -0.38461538       0.15384615      -0.00000000 </v>
   <v>      -0.30769231       0.15384615       0.00000000 </v>
   <v>      -0.23076923       0.15384615      -0.00000000 </v>
   <v>      -0.15384615       0.15384615      -0.00000000 </v>
   <v>       0.23076923       0.23076923      -0.00000000 </v>
   <v>       0.30769231       0.23076923      -0.00000000 </v>
   <v>       0.38461538       0.23076923       0.00000000 </v>
   <v>       0.46153846       0.23076923       0.00000000 </v>
   <v>      -0.46153846       0.23076923      -0.00000000 </v>
   <v>      -0.38461538       0.23076923      -0.00000000 </v>
   <v>      -0.30769231       0.23076923      -0.00000000 </v>
   <v>      -0.23076923       0.23076923      -0.00000000 </v>
   <v>       0.30769231       0.30769231      -0.00000000 </v>
   <v>       0.38461538       0.30769231      -0.00000000 </v>
   <v>       0.46153846       0.30769231       0.00000000 </v>
   <v>      -0.46153846       0.30769231      -0.00000000 </v>
   <v>      -0.38461538       0.30769231      -0.00000000 </v>
   <v>      -0.30769231       0.30769231      -0.00000000 </v>
   <v>       0.38461538       0.38461538      -0.00000000 </v>
   <v>       0.46153846       0.38461538      -0.00000000 </v>
   <v>      -0.46153846       0.38461538      -0.00000000 </v>
   <v>      -0.38461538       0.38461538      -0.00000000 </v>
   <v>       0.46153846       0.46153846      -0.00000000 </v>
   <v>      -0.46153846       0.46153846       0.00000000 </v>
   <v>       0.23076923       0.15384615       0.07692308 </v>
   <v>       0.30769231       0.15384615       0.07692308 </v>
   <v>       0.38461538       0.15384615       0.07692308 </v>
   <v>       0.46153846       0.15384615       0.07692308 </v>
   <v>      -0.46153846       0.15384615       0.07692308 </v>
   <v>       0.30769231       0.23076923       0.07692308 </v>
   <v>       0.38461538       0.23076923       0.07692308 </v>
   <v>       0.46153846       0.23076923       0.07692308 </v>
   <v>      -0.46153846       0.23076923       0.07692308 </v>
   <v>      -0.38461538       0.23076923       0.07692308 </v>
   <v>      -0.30769231       0.23076923       0.07692308 </v>
   <v>      -0.23076923       0.23076923       0.07692308 </v>
   <v>      -0.15384615       0.23076923       0.07692308 </v>
   <v>       0.38461538       0.30769231       0.07692308 </v>
   <v>       0.46153846       0.30769231       0.07692308 </v>
   <v>      -0.46153846       0.30769231       0.07692308 </v>
   <v>      -0.38461538       0.30769231       0.07692308 </v>
   <v>      -0.30769231       0.30769231       0.07692308 </v>
   <v>      -0.23076923       0.30769231       0.07692308 </v>
   <v>       0.46153846       0.38461538       0.07692308 </v>
   <v>      -0.46153846       0.38461538       0.07692308 </v>
   <v>      -0.38461538       0.38461538       0.07692308 </v>
   <v>      -0.30769231       0.38461538       0.07692308 </v>
   <v>      -0.46153846       0.46153846       0.07692308 </v>
   <v>      -0.38461538       0.46153846       0.07692308 </v>
   <v>       0.46153846       0.30769231       0.15384615 </v>
   <v>      -0.46153846       0.30769231       0.15384615 </v>
   <v>      -0.38461538       0.30769231       0.15384615 </v>
   <v>      -0.46153846       0.38461538       0.15384615 </v>
   <v>      -0.38461538       0.38461538       0.15384615 </v>
   <v>      -0.30769231       0.38461538       0.15384615 </v>
   <v>      -0.23076923       0.38461538       0.15384615 </v>
   <v>      -0.38461538       0.46153846       0.15384615 </v>
   <v>      -0.30769231       0.46153846       0.15384615 </v>
   <v>      -0.30769231       0.46153846       0.23076923 </v>
  </varray>
  <varray name="weights" >
   <v>       0.00045517 </v>
   <v>       0.00364133 </v>
   <v>       0.00364133 </v>
   <v>       0.00364133 </v>
   <v>       0.00364133 </v>
   <v>       0.00364133 </v>
   <v>       0.00364133 </v>
   <v>       0.00273100 </v>
   <v>       0.01092399 </v>
   <v>       0.01092399 </v>
   <v>       0.01092399 </v>
   <v>       0.01092399 </v>
   <v>       0.01092399 </v>
   <v>       0.01092399 </v>
   <v>       0.01092399 </v>
   <v>       0.01092399 </v>
   <v>       0.01092399 </v>
   <v>       0.01092399 </v>
   <v>       0.00546199 </v>
   <v>       0.00273100 </v>
   <v>       0.01092399 </v>
   <v>       0.01092399 </v>
   <v>       0.01092399 </v>
   <v>       0.01092399 </v>
   <v>       0.01092399 </v>
   <v>       0.01092399 </v>
   <v>       0.01092399 </v>
   <v>       0.01092399 </v>
   <v>       0.00546199 </v>
   <v>       0.00273100 </v>
   <v>       0.01092399 </v>
   <v>       0.01092399 </v>
   <v>       0.01092399 </v>
   <v>       0.01092399 </v>
   <v>       0.01092399 </v>
   <v>       0.01092399 </v>
   <v>       0.00546199 </v>
   <v>       0.00273100 </v>
   <v>       0.01092399 </v>
   <v>       0.01092399 </v>
   <v>       0.01092399 </v>
   <v>       0.01092399 </v>
   <v>       0.00546199 </v>
   <v>       0.00273100 </v>
   <v>       0.01092399 </v>
   <v>       0.01092399 </v>
   <v>       0.00546199 </v>
   <v>       0.00273100 </v>
   <v>       0.00546199 </v>
   <v>       0.01092399 </v>
   <v>       0.02184797 </v>
   <v>       0.02184797 </v>
   <v>       0.02184797 </v>
   <v>       0.02184797 </v>
   <v>       0.01092399 </v>
   <v>       0.02184797 </v>
   <v>       0.02184797 </v>
   <v>       0.02184797 </v>
   <v>       0.02184797 </v>
   <v>       0.02184797 </v>
   <v>       0.02184797 </v>
   <v>       0.01092399 </v>
   <v>       0.01092399 </v>
   <v>       0.02184797 </v>
   <v>       0.02184797 </v>
   <v>       0.02184797 </v>
   <v>       0.02184797 </v>
   <v>       0.01092399 </v>
   <v>       0.01092399 </v>
   <v>       0.02184797 </v>
   <v>       0.02184797 </v>
   <v>       0.01092399 </v>
   <v>       0.01092399 </v>
   <v>       0.01092399 </v>
   <v>       0.01092399 </v>
   <v>       0.02184797 </v>
   <v>       0.02184797 </v>
   <v>       0.01092399 </v>
   <v>       0.02184797 </v>
   <v>       0.02184797 </v>
   <v>       0.01092399 </v>
   <v>       0.01092399 </v>
   <v>       0.01092399 </v>
   <v>       0.01092399 </v>
  </varray>
 </kpoints>
 <parameters>
  <separator name="general" >
   <i type="string" name="SYSTEM">unknown system</i>
   <i type="logical" name="LCOMPAT"> F  </i>
  </separator>
  <separator name="electronic" >
   <i type="string" name="PREC">acc</i>
   <i name="ENMAX">    700.00000000</i>
   <i name="ENAUG">    526.41000000</i>
   <i name="EDIFF">      0.00000010</i>
   <i type="int" name="IALGO">    38</i>
   <i type="int" name="IWAVPR">    10</i>
   <i type="int" name="NBANDS">    24</i>
   <i type="int" name="NBANDSLOW">    -1</i>
   <i type="int" name="NBANDSHIGH">    -1</i>
   <i name="NELECT">     39.00000000</i>
   <i type="int" name="TURBO">     0</i>
   <i type="int" name="IRESTART">     0</i>
   <i type="int" name="NREBOOT">     0</i>
   <i type="int" name="NMIN">     0</i>
   <i name="EREF">      0.00000000</i>
   <separator name="electronic smearing" >
    <i type="int" name="ISMEAR">     0</i>
    <i name="SIGMA">      0.01000000</i>
    <i name="KSPACING">      0.50000000</i>
    <i type="logical" name="KGAMMA"> T  </i>
    <i type="logical" name="KBLOWUP"> T  </i>
   </separator>
   <separator name="electronic projectors" >
    <i type="logical" name="LREAL"> F  </i>
    <v name="ROPT">      0.00000000      0.00000000      0.00000000</v>
    <i type="int" name="LMAXPAW">  -100</i>
    <i type="int" name="LMAXMIX">     2</i>
    <i type="logical" name="NLSPLINE"> F  </i>
   </separator>
   <separator name="electronic startup" >
    <i type="int" name="ISTART">     0</i>
    <i type="int" name="ICHARG">     2</i>
    <i type="int" name="INIWAV">     1</i>
   </separator>
   <separator name="electronic spin" >
    <i type="int" name="ISPIN">     1</i>
    <i type="logical" name="LNONCOLLINEAR"> F  </i>
    <v name="MAGMOM">      1.00000000      1.00000000      1.00000000</v>
    <i name="NUPDOWN">     -1.00000000</i>
    <i type="logical" name="LSORBIT"> F  </i>
    <v name="SAXIS">      0.00000000      0.00000000      1.00000000</v>
    <i type="logical" name="LSPIRAL"> F  </i>
    <v name="QSPIRAL">      0.00000000      0.00000000      0.00000000</v>
    <i type="logical" name="LZEROZ"> F  </i>
   </separator>
   <separator name="electronic exchange-correlation" >
    <i type="logical" name="LASPH"> F  </i>
    <i type="logical" name="LMETAGGA"> F  </i>
   </separator>
   <separator name="electronic convergence" >
    <i type="int" name="NELM">    60</i>
    <i type="int" name="NELMDL">    -5</i>
    <i type="int" name="NELMIN">     5</i>
    <i name="ENINI">    700.00000000</i>
    <separator name="electronic convergence detail" >
     <i type="logical" name="LDIAG"> T  </i>
     <i type="logical" name="LSUBROT"> F  </i>
     <i name="WEIMIN">      0.00000000</i>
     <i name="EBREAK">      0.00000000</i>
     <i name="DEPER">      0.30000000</i>
     <i type="int" name="NRMM">     4</i>
     <i name="TIME">      0.40000000</i>
    </separator>
   </separator>
   <separator name="electronic mixer" >
    <i name="AMIX">      0.40000000</i>
    <i name="BMIX">      1.00000000</i>
    <i name="AMIN">      0.10000000</i>
    <i name="AMIX_MAG">      1.60000000</i>
    <i name="BMIX_MAG">      1.00000000</i>
    <separator name="electronic mixer details" >
     <i type="int" name="IMIX">     4</i>
     <i type="logical" name="MIXFIRST"> F  </i>
     <i type="int" name="MAXMIX">   -45</i>
     <i name="WC">    100.00000000</i>
     <i type="int" name="INIMIX">     1</i>
     <i type="int" name="MIXPRE">     1</i>
     <i type="int" name="MREMOVE">     5</i>
    </separator>
   </separator>
   <separator name="electronic dipolcorrection" >
    <i type="logical" name="LDIPOL"> F  </i>
    <i type="logical" name="LMONO"> F  </i>
    <i type="int" name="IDIPOL">     0</i>
    <i name="EPSILON">      1.00000000</i>
    <v name="DIPOL">   -100.00000000   -100.00000000   -100.00000000</v>
    <i name="EFIELD">      0.00000000</i>
   </separator>
  </separator>
  <separator name="grids" >
   <i type="int" name="NGX">    40</i>
   <i type="int" name="NGY">    40</i>
   <i type="int" name="NGZ">    40</i>
   <i type="int" name="NGXF">    80</i>
   <i type="int" name="NGYF">    80</i>
   <i type="int" name="NGZF">    80</i>
   <i type="logical" name="ADDGRID"> T  </i>
  </separator>
  <separator name="ionic" >
   <i type="int" name="NSW">     0</i>
   <i type="int" name="IBRION">    -1</i>
   <i type="int" name="MDALGO">     0</i>
   <i type="int" name="ISIF">     3</i>
   <i name="PSTRESS">      0.00000000</i>
   <i name="EDIFFG">      0.00000100</i>
   <i type="int" name="NFREE">     0</i>
   <i name="POTIM">      0.50000000</i>
   <i name="SMASS">     -3.00000000</i>
   <i name="SCALEE">      1.00000000</i>
  </separator>
  <separator name="ionic md" >
   <i name="TEBEG">      0.00010000</i>
   <i name="TEEND">      0.00010000</i>
   <i type="int" name="NBLOCK">     1</i>
   <i type="int" name="KBLOCK">     1</i>
   <i type="int" name="NPACO">   256</i>
   <i name="APACO">     16.00000000</i>
  </separator>
  <separator name="symmetry" >
   <i type="int" name="ISYM">     2</i>
   <i name="SYMPREC">      0.00001000</i>
  </separator>
  <separator name="dos" >
   <i type="int" name="LORBIT">     0</i>
   <v name="RWIGS">     -1.00000000     -1.00000000     -1.00000000</v>
   <i type="int" name="NEDOS">   301</i>
   <i name="EMIN">     10.00000000</i>
   <i name="EMAX">    -10.00000000</i>
   <i name="EFERMI">      0.00000000</i>
  </separator>
  <separator name="writing" >
   <i type="int" name="NWRITE">     2</i>
   <i type="logical" name="LWAVE"> F  </i>
   <i type="logical" name="LDOWNSAMPLE"> F  </i>
   <i type="logical" name="LCHARG"> F  </i>
   <i type="logical" name="LPARD"> F  </i>
   <i type="logical" name="LVTOT"> F  </i>
   <i type="logical" name="LVHAR"> F  </i>
   <i type="logical" name="LELF"> F  </i>
   <i type="logical" name="LOPTICS"> F  </i>
   <v name="STM">      0.00000000      0.00000000      0.00000000      0.00000000      0.00000000      0.00000000      0.00000000</v>
  </separator>
  <separator name="performance" >
   <i type="int" name="NPAR">     4</i>
   <i type="int" name="NSIM">     4</i>
   <i type="int" name="NBLK">    -1</i>
   <i type="logical" name="LPLANE"> T  </i>
   <i type="logical" name="LSCALAPACK"> T  </i>
   <i type="logical" name="LSCAAWARE"> F  </i>
   <i type="logical" name="LSCALU"> F  </i>
   <i type="logical" name="LASYNC"> F  </i>
   <i type="logical" name="LORBITALREAL"> F  </i>
  </separator>
  <separator name="miscellaneous" >
   <i type="int" name="IDIOT">     3</i>
   <i type="int" name="PHON_NSTRUCT">    -1</i>
   <i type="logical" name="LMUSIC"> F  </i>
   <v name="POMASS">    238.02900000    208.98000000    195.08000000</v>
   <v name="DARWINR">      0.00000000      0.00000000      0.00000000</v>
   <v name="DARWINV">      1.00000000      1.00000000      1.00000000</v>
   <i type="logical" name="LCORR"> T  </i>
  </separator>
  <i type="logical" name="GGA_COMPAT"> T  </i>
  <i type="logical" name="LBERRY"> F  </i>
  <i type="int" name="ICORELEVEL">     0</i>
  <i type="logical" name="LDAU"> F  </i>
  <i type="int" name="I_CONSTRAINED_M">     0</i>
  <separator name="electronic exchange-correlation" >
   <i type="string" name="GGA">PS</i>
   <i type="int" name="VOSKOWN">     0</i>
   <i type="logical" name="LHFCALC"> F  </i>
   <i type="string" name="PRECFOCK"></i>
   <i type="logical" name="LSYMGRAD"> F  </i>
   <i type="logical" name="LHFONE"> F  </i>
   <i type="logical" name="LRHFCALC"> F  </i>
   <i type="logical" name="LTHOMAS"> F  </i>
   <i type="logical" name="LMODELHF"> F  </i>
   <i type="logical" name="LFOCKACE"> F  </i>
   <i name="ENCUT4O">     -1.00000000</i>
   <i type="int" name="EXXOEP">     0</i>
   <i type="int" name="FOURORBIT">     0</i>
   <i name="AEXX">      0.00000000</i>
   <i name="HFALPHA">      0.00000000</i>
   <i name="MCALPHA">      0.00000000</i>
   <i name="ALDAX">      1.00000000</i>
   <i name="AGGAX">      1.00000000</i>
   <i name="ALDAC">      1.00000000</i>
   <i name="AGGAC">      1.00000000</i>
   <i type="int" name="NKREDX">     1</i>
   <i type="int" name="NKREDY">     1</i>
   <i type="int" name="NKREDZ">     1</i>
   <i type="logical" name="SHIFTRED"> F  </i>
   <i type="logical" name="ODDONLY"> F  </i>
   <i type="logical" name="EVENONLY"> F  </i>
   <i type="int" name="LMAXFOCK">     0</i>
   <i type="int" name="NMAXFOCKAE">     0</i>
   <i type="logical" name="LFOCKAEDFT"> F  </i>
   <i name="HFSCREEN">      0.00000000</i>
   <i name="HFSCREENC">      0.00000000</i>
   <i type="int" name="NBANDSGWLOW">     0</i>
  </separator>
  <separator name="vdW DFT" >
   <i type="logical" name="LUSE_VDW"> F  </i>
   <i name="Zab_VDW">     -0.84910000</i>
   <i name="PARAM1">      0.12340000</i>
   <i name="PARAM2">      1.00000000</i>
   <i name="PARAM3">      0.00000000</i>
  </separator>
  <separator name="model GW" >
   <i type="int" name="MODEL_GW">     0</i>
   <i name="MODEL_EPS0">     13.73017313</i>
   <i name="MODEL_ALPHA">      1.00000000</i>
  </separator>
  <separator name="linear response parameters" >
   <i type="logical" name="LEPSILON"> F  </i>
   <i type="logical" name="LRPA"> F  </i>
   <i type="logical" name="LNABLA"> F  </i>
   <i type="logical" name="LVEL"> F  </i>
   <i type="int" name="KINTER">     0</i>
   <i name="CSHIFT">      0.10000000</i>
   <i name="OMEGAMAX">     -1.00000000</i>
   <i name="DEG_THRESHOLD">      0.00200000</i>
   <i name="RTIME">     -0.10000000</i>
   <i name="WPLASMAI">      0.00000000</i>
   <v name="DFIELD">      0.00000000      0.00000000      0.00000000</v>
   <v name="WPLASMA">      0.00000000      0.00000000      0.00000000      0.00000000      0.00000000      0.00000000      0.00000000      0.00000000      0.00000000</v>
  </separator>
  <separator name="orbital magnetization" >
   <i type="logical" name="NUCIND"> F  </i>
   <v name="MAGPOS">      0.00000000      0.00000000      0.00000000</v>
   <i type="logical" name="LNICSALL"> T  </i>
   <i type="logical" name="ORBITALMAG"> F  </i>
   <i type="logical" name="LMAGBLOCH"> F  </i>
   <i type="logical" name="LCHIMAG"> F  </i>
   <i type="logical" name="LGAUGE"> T  </i>
   <i type="int" name="MAGATOM">     0</i>
   <v name="MAGDIPOL">      0.00000000      0.00000000      0.00000000</v>
   <v name="AVECCONST">      0.00000000      0.00000000      0.00000000</v>
  </separator>
  <separator name="response functions" >
   <i type="logical" name="LFINITE_TEMPERATURE"> F  </i>
   <i type="logical" name="LADDER"> F  </i>
   <i type="logical" name="LRPAFORCE"> F  </i>
   <i type="logical" name="LFXC"> F  </i>
   <i type="logical" name="LHARTREE"> T  </i>
   <i type="int" name="IBSE">     0</i>
   <v type="int" name="KPOINT">    -1     0     0     0</v>
   <i type="logical" name="LTCTC"> F  </i>
   <i type="logical" name="LTCTE"> F  </i>
   <i type="logical" name="LTETE"> F  </i>
   <i type="logical" name="LTRIPLET"> F  </i>
   <i type="logical" name="LFXCEPS"> F  </i>
   <i type="logical" name="LFXHEG"> F  </i>
   <i type="int" name="NATURALO">     2</i>
   <i type="logical" name="L2ORDER"> F  </i>
   <i type="logical" name="LDMP1"> F  </i>
   <i type="logical" name="LMP2LT"> F  </i>
   <i type="logical" name="LSMP2LT"> F  </i>
   <i type="logical" name="LUSEW"> F  </i>
   <i name="ENCUTGW">     -2.00000000</i>
   <i name="ENCUTGWSOFT">     -2.00000000</i>
   <i name="ENCUTLF">     -1.00000000</i>
   <i type="int" name="LMAXMP2">    -1</i>
   <i name="SCISSOR">      0.00000000</i>
   <i type="int" name="NOMEGA">     0</i>
   <i type="int" name="NOMEGAR">     0</i>
   <i type="int" name="NBANDSGW">    -1</i>
   <i type="int" name="NBANDSO">    -1</i>
   <i type="int" name="NBANDSV">    -1</i>
   <i type="int" name="NELM">     1</i>
   <i type="int" name="NELMHF">     1</i>
   <i type="int" name="DIM">     3</i>
   <i type="int" name="IESPILON">     4</i>
   <i type="int" name="ANTIRES">     0</i>
   <i name="OMEGAMAX">    -30.00000000</i>
   <i name="OMEGAMIN">    -30.00000000</i>
   <i name="OMEGATL">   -200.00000000</i>
   <i type="int" name="OMEGAGRID">   145</i>
   <i name="CSHIFT">     -0.10000000</i>
   <i type="logical" name="LSELFENERGY"> F  </i>
   <i type="logical" name="LSPECTRAL"> F  </i>
   <i type="logical" name="LSPECTRALGW"> F  </i>
   <i type="logical" name="LSINGLES"> F  </i>
   <i type="logical" name="LFERMIGW"> F  </i>
   <i type="logical" name="ODDONLYGW"> F  </i>
   <i type="logical" name="EVENONLYGW"> F  </i>
   <i type="int" name="NKREDLFX">     1</i>
   <i type="int" name="NKREDLFY">     1</i>
   <i type="int" name="NKREDLFZ">     1</i>
   <i type="int" name="MAXMEM">  2800</i>
   <i type="int" name="TELESCOPE">     0</i>
   <i type="int" name="NTAUPAR">     1</i>
   <i type="int" name="NOMEGAPAR">    -1</i>
   <i name="LAMBDA">      1.00000000</i>
  </separator>
  <separator name="External order field" >
   <i name="OFIELD_KAPPA">      0.00000000</i>
   <v name="OFIELD_K">      0.00000000      0.00000000      0.00000000</v>
   <i name="OFIELD_Q6_NEAR">      0.00000000</i>
   <i name="OFIELD_Q6_FAR">      0.00000000</i>
   <i name="OFIELD_A">      0.00000000</i>
  </separator>
 </parameters>
 <atominfo>
  <atoms>       3 </atoms>
  <types>       3 </types>
  <array name="atoms" >
   <dimension dim="1">ion</dimension>
   <field type="string">element</field>
   <field type="int">atomtype</field>
   <set>
    <rc><c>U </c><c>   1</c></rc>
    <rc><c>Bi</c><c>   2</c></rc>
    <rc><c>Pt</c><c>   3</c></rc>
   </set>
  </array>
  <array name="atomtypes" >
   <dimension dim="1">type</dimension>
   <field type="int">atomspertype</field>
   <field type="string">element</field>
   <field>mass</field>
   <field>valence</field>
   <field type="string">pseudopotential</field>
   <set>
    <rc><c>   1</c><c>U </c><c>    238.02900000</c><c>     14.00000000</c><c>  PAW_PBE U 06Sep2000                   </c></rc>
    <rc><c>   1</c><c>Bi</c><c>    208.98000000</c><c>     15.00000000</c><c>  PAW_PBE Bi_d 06Sep2000                </c></rc>
    <rc><c>   1</c><c>Pt</c><c>    195.08000000</c><c>     10.00000000</c><c>  PAW_PBE Pt 04Feb2005                  </c></rc>
   </set>
  </array>
 </atominfo>
 <structure name="initialpos" >
  <crystal>
   <varray name="basis" >
    <v>       0.00000000       3.24991504       3.24991504 </v>
    <v>       3.24991504       0.00000000       3.24991504 </v>
    <v>       3.24991504       3.24991504       0.00000000 </v>
   </varray>
   <i name="volume">     68.65086563 </i>
   <varray name="rec_basis" >
    <v>      -0.15385018       0.15385018       0.15385018 </v>
    <v>       0.15385018      -0.15385018       0.15385018 </v>
    <v>       0.15385018       0.15385018      -0.15385018 </v>
   </varray>
  </crystal>
  <varray name="positions" >
   <v>       0.25000000       0.25000000       0.25000000 </v>
   <v>       0.75000000       0.75000000       0.75000000 </v>
   <v>       0.00000000       0.00000000       0.00000000 </v>
  </varray>
 </structure>
 <calculation>
  <scstep>
   <time name="dav">    1.42    1.44</time>
   <time name="total">    1.57    1.66</time>
   <energy>
    <i name="alphaZ">    229.05442675 </i>
    <i name="ewald">  -3668.19119976 </i>
    <i name="hartreedc">   -752.79805535 </i>
    <i name="XCdc">     91.12200465 </i>
    <i name="pawpsdc">   3513.29252893 </i>
    <i name="pawaedc">  -3436.88002192 </i>
    <i name="eentropy">     -0.00013144 </i>
    <i name="bandstr">    362.53803636 </i>
    <i name="atom">   4095.35208632 </i>
    <i name="e_fr_energy">    433.48967455 </i>
    <i name="e_wo_entrp">    433.48980599 </i>
    <i name="e_0_energy">    433.48974027 </i>
   </energy>
  </scstep>
  <scstep>
   <time name="dav">    1.49    1.53</time>
   <time name="total">    1.50    1.53</time>
   <energy>
    <i name="e_fr_energy">     30.51183624 </i>
    <i name="e_wo_entrp">     30.51238715 </i>
    <i name="e_0_energy">     30.51211170 </i>
   </energy>
  </scstep>
  <scstep>
   <time name="dav">    1.68    1.70</time>
   <time name="total">    1.68    1.70</time>
   <energy>
    <i name="e_fr_energy">    -20.72819023 </i>
    <i name="e_wo_entrp">    -20.72753363 </i>
    <i name="e_0_energy">    -20.72786193 </i>
   </energy>
  </scstep>
  <scstep>
   <time name="dav">    2.28    2.30</time>
   <time name="total">    2.28    2.31</time>
   <energy>
    <i name="e_fr_energy">    -25.90415492 </i>
    <i name="e_wo_entrp">    -25.90325559 </i>
    <i name="e_0_energy">    -25.90370526 </i>
   </energy>
  </scstep>
  <scstep>
   <time name="dav">    1.77    1.80</time>
   <time name="total">    2.11    2.14</time>
   <energy>
    <i name="e_fr_energy">    -26.06480120 </i>
    <i name="e_wo_entrp">    -26.06397833 </i>
    <i name="e_0_energy">    -26.06438976 </i>
   </energy>
  </scstep>
  <scstep>
   <time name="dav">    1.93    1.93</time>
   <time name="total">    2.35    2.38</time>
   <energy>
    <i name="e_fr_energy">    -32.11250738 </i>
    <i name="e_wo_entrp">    -32.11232569 </i>
    <i name="e_0_energy">    -32.11241653 </i>
   </energy>
  </scstep>
  <scstep>
   <time name="dav">    1.83    1.83</time>
   <time name="total">    2.25    2.27</time>
   <energy>
    <i name="e_fr_energy">    -24.33204176 </i>
    <i name="e_wo_entrp">    -24.33112822 </i>
    <i name="e_0_energy">    -24.33158499 </i>
   </energy>
  </scstep>
  <scstep>
   <time name="dav">    1.89    1.89</time>
   <time name="total">    2.30    2.67</time>
   <energy>
    <i name="e_fr_energy">    -24.30552793 </i>
    <i name="e_wo_entrp">    -24.30438267 </i>
    <i name="e_0_energy">    -24.30495530 </i>
   </energy>
  </scstep>
  <scstep>
   <time name="dav">    1.93    1.93</time>
   <time name="total">    2.34    2.36</time>
   <energy>
    <i name="e_fr_energy">    -23.65420760 </i>
    <i name="e_wo_entrp">    -23.65283537 </i>
    <i name="e_0_energy">    -23.65352149 </i>
   </energy>
  </scstep>
  <scstep>
   <time name="dav">    2.01    2.01</time>
   <time name="total">    2.42    2.44</time>
   <energy>
    <i name="e_fr_energy">    -23.66810224 </i>
    <i name="e_wo_entrp">    -23.66668360 </i>
    <i name="e_0_energy">    -23.66739292 </i>
   </energy>
  </scstep>
  <scstep>
   <time name="dav">    1.88    1.88</time>
   <time name="total">    2.29    2.31</time>
   <energy>
    <i name="e_fr_energy">    -23.65350475 </i>
    <i name="e_wo_entrp">    -23.65198549 </i>
    <i name="e_0_energy">    -23.65274512 </i>
   </energy>
  </scstep>
  <scstep>
   <time name="dav">    2.09    2.09</time>
   <time name="total">    2.50    2.54</time>
   <energy>
    <i name="e_fr_energy">    -23.65361908 </i>
    <i name="e_wo_entrp">    -23.65209557 </i>
    <i name="e_0_energy">    -23.65285733 </i>
   </energy>
  </scstep>
  <scstep>
   <time name="dav">    1.92    1.92</time>
   <time name="total">    2.33    2.36</time>
   <energy>
    <i name="e_fr_energy">    -23.65358396 </i>
    <i name="e_wo_entrp">    -23.65206391 </i>
    <i name="e_0_energy">    -23.65282394 </i>
   </energy>
  </scstep>
  <scstep>
   <time name="dav">    1.86    1.86</time>
   <time name="total">    2.27    2.30</time>
   <energy>
    <i name="e_fr_energy">    -23.65358185 </i>
    <i name="e_wo_entrp">    -23.65205017 </i>
    <i name="e_0_energy">    -23.65281601 </i>
   </energy>
  </scstep>
  <scstep>
   <time name="dav">    1.88    1.88</time>
   <time name="total">    2.29    2.32</time>
   <energy>
    <i name="e_fr_energy">    -23.65357030 </i>
    <i name="e_wo_entrp">    -23.65204364 </i>
    <i name="e_0_energy">    -23.65280697 </i>
   </energy>
  </scstep>
  <scstep>
   <time name="dav">    2.05    2.05</time>
   <time name="total">    2.46    2.48</time>
   <energy>
    <i name="e_fr_energy">    -23.65357024 </i>
    <i name="e_wo_entrp">    -23.65204310 </i>
    <i name="e_0_energy">    -23.65280667 </i>
   </energy>
  </scstep>
  <scstep>
   <time name="dav">    1.45    1.45</time>
   <time name="total">    1.57    1.60</time>
   <energy>
    <i name="alphaZ">    229.05442675 </i>
    <i name="ewald">  -3668.19119976 </i>
    <i name="hartreedc">   -737.31216828 </i>
    <i name="XCdc">     90.66393841 </i>
    <i name="pawpsdc">   4374.22499076 </i>
    <i name="pawaedc">  -4308.25595926 </i>
    <i name="eentropy">     -0.00152710 </i>
    <i name="bandstr">    -99.18815809 </i>
    <i name="atom">   4095.35208632 </i>
    <i name="e_fr_energy">    -23.65357025 </i>
    <i name="e_wo_entrp">    -23.65204315 </i>
    <i name="e_0_energy">    -23.65280670 </i>
   </energy>
  </scstep>
  <structure>
   <crystal>
    <varray name="basis" >
     <v>       0.00000000       3.24991504       3.24991504 </v>
     <v>       3.24991504       0.00000000       3.24991504 </v>
     <v>       3.24991504       3.24991504       0.00000000 </v>
    </varray>
    <i name="volume">     68.65086563 </i>
    <varray name="rec_basis" >
     <v>      -0.15385018       0.15385018       0.15385018 </v>
     <v>       0.15385018      -0.15385018       0.15385018 </v>
     <v>       0.15385018       0.15385018      -0.15385018 </v>
    </varray>
   </crystal>
   <varray name="positions" >
    <v>       0.25000000       0.25000000       0.25000000 </v>
    <v>       0.75000000       0.75000000       0.75000000 </v>
    <v>       0.00000000       0.00000000       0.00000000 </v>
   </varray>
  </structure>
  <varray name="forces" >
   <v>       0.00000000       0.00000000      -0.00000000 </v>
   <v>      -0.00000000      -0.00000000      -0.00000000 </v>
   <v>       0.00000000       0.00000000       0.00000000 </v>
  </varray>
  <varray name="stress" >
   <v>      88.48450453      -0.00000000       0.00000000 </v>
   <v>      -0.00000000      88.48450453       0.00000000 </v>
   <v>       0.00000000      -0.00000000      88.48450453 </v>
  </varray>
  <energy>
   <i name="e_fr_energy">    -23.65357025 </i>
   <i name="e_wo_entrp">    -23.65280670 </i>
   <i name="e_0_energy">     -0.00152710 </i>
  </energy>
  <time name="totalsc">   40.11   41.35</time>
  <eigenvalues>
   <array>
    <dimension dim="1">band</dimension>
    <dimension dim="2">kpoint</dimension>
    <dimension dim="3">spin</dimension>
    <field>eigene</field>
    <field>occ</field>
    <set>
     <set comment="spin 1">
      <set comment="kpoint 1">
       <r>  -33.0994    1.0000 </r>
       <r>  -12.0676    1.0000 </r>
       <r>  -12.0676    1.0000 </r>
       <r>  -12.0348    1.0000 </r>
       <r>  -12.0348    1.0000 </r>
       <r>  -12.0348    1.0000 </r>
       <r>   -8.4577    1.0000 </r>
       <r>   -8.4577    1.0000 </r>
       <r>   -8.4577    1.0000 </r>
       <r>   -1.9410    1.0000 </r>
       <r>    6.0645    1.0000 </r>
       <r>    6.0645    1.0000 </r>
       <r>    6.0645    1.0000 </r>
       <r>    6.2505    1.0000 </r>
       <r>    6.2505    1.0000 </r>
       <r>    9.5414    1.0000 </r>
       <r>    9.6788    1.0000 </r>
       <r>    9.6788    1.0000 </r>
       <r>    9.6788    1.0000 </r>
       <r>   10.8654    1.0000 </r>
       <r>   10.8654    1.0000 </r>
       <r>   10.8654    1.0000 </r>
       <r>   11.2501    0.0000 </r>
       <r>   11.2501    0.0000 </r>
      </set>
      <set comment="kpoint 2">
       <r>  -33.0990    1.0000 </r>
       <r>  -12.0699    1.0000 </r>
       <r>  -12.0699    1.0000 </r>
       <r>  -12.0352    1.0000 </r>
       <r>  -12.0345    1.0000 </r>
       <r>  -12.0345    1.0000 </r>
       <r>   -8.4778    1.0000 </r>
       <r>   -8.4526    1.0000 </r>
       <r>   -8.4526    1.0000 </r>
       <r>   -1.8596    1.0000 </r>
       <r>    5.9018    1.0000 </r>
       <r>    5.9018    1.0000 </r>
       <r>    5.9378    1.0000 </r>
       <r>    6.4033    1.0000 </r>
       <r>    6.4033    1.0000 </r>
       <r>    8.9439    1.0000 </r>
       <r>    9.6149    1.0000 </r>
       <r>    9.6149    1.0000 </r>
       <r>   10.0505    1.0000 </r>
       <r>   10.8712    1.0000 </r>
       <r>   10.8712    1.0000 </r>
       <r>   10.9031    1.0000 </r>
       <r>   11.3198    0.0000 </r>
       <r>   11.3422    0.0000 </r>
      </set>
      <set comment="kpoint 3">
       <r>  -33.0979    1.0000 </r>
       <r>  -12.0762    1.0000 </r>
       <r>  -12.0762    1.0000 </r>
       <r>  -12.0365    1.0000 </r>
       <r>  -12.0337    1.0000 </r>
       <r>  -12.0337    1.0000 </r>
       <r>   -8.5309    1.0000 </r>
       <r>   -8.4384    1.0000 </r>
       <r>   -8.4384    1.0000 </r>
       <r>   -1.6335    1.0000 </r>
       <r>    5.6105    1.0000 </r>
       <r>    5.7032    1.0000 </r>
       <r>    5.7032    1.0000 </r>
       <r>    6.5605    1.0000 </r>
       <r>    6.5605    1.0000 </r>
       <r>    8.2573    1.0000 </r>
       <r>    9.4816    1.0000 </r>
       <r>    9.4816    1.0000 </r>
       <r>   10.1025    1.0000 </r>
       <r>   10.8884    1.0000 </r>
       <r>   10.8884    1.0000 </r>
       <r>   11.1540    0.0000 </r>
       <r>   11.2554    0.0000 </r>
       <r>   11.4661    0.0000 </r>
      </set>
      <set comment="kpoint 4">
       <r>  -33.0963    1.0000 </r>
       <r>  -12.0851    1.0000 </r>
       <r>  -12.0851    1.0000 </r>
       <r>  -12.0387    1.0000 </r>
       <r>  -12.0326    1.0000 </r>
       <r>  -12.0326    1.0000 </r>
       <r>   -8.5999    1.0000 </r>
       <r>   -8.4186    1.0000 </r>
       <r>   -8.4186    1.0000 </r>
       <r>   -1.3123    1.0000 </r>
       <r>    5.1963    1.0000 </r>
       <r>    5.5563    1.0000 </r>
       <r>    5.5563    1.0000 </r>
       <r>    6.6121    1.0000 </r>
       <r>    6.6121    1.0000 </r>
       <r>    7.6465    1.0000 </r>
       <r>    9.3751    1.0000 </r>
       <r>    9.3751    1.0000 </r>
       <r>   10.0821    1.0000 </r>
       <r>   10.9179    1.0000 </r>
       <r>   10.9179    1.0000 </r>
       <r>   11.2696    0.0000 </r>
       <r>   11.3169    0.0000 </r>
       <r>   11.5620    0.0000 </r>
      </set>
      <set comment="kpoint 5">
       <r>  -33.0947    1.0000 </r>
       <r>  -12.0945    1.0000 </r>
       <r>  -12.0945    1.0000 </r>
       <r>  -12.0415    1.0000 </r>
       <r>  -12.0313    1.0000 </r>
       <r>  -12.0313    1.0000 </r>
       <r>   -8.6663    1.0000 </r>
       <r>   -8.3978    1.0000 </r>
       <r>   -8.3978    1.0000 </r>
       <r>   -0.9673    1.0000 </r>
       <r>    4.8040    1.0000 </r>
       <r>    5.4762    1.0000 </r>
       <r>    5.4762    1.0000 </r>
       <r>    6.5482    1.0000 </r>
       <r>    6.5482    1.0000 </r>
       <r>    7.1699    1.0000 </r>
       <r>    9.3387    1.0000 </r>
       <r>    9.3387    1.0000 </r>
       <r>   10.1161    1.0000 </r>
       <r>   10.9613    0.8207 </r>
       <r>   10.9613    0.8207 </r>
       <r>   11.2733    0.0000 </r>
       <r>   11.4015    0.0000 </r>
       <r>   11.5411    0.0000 </r>
      </set>
      <set comment="kpoint 6">
       <r>  -33.0933    1.0000 </r>
       <r>  -12.1022    1.0000 </r>
       <r>  -12.1022    1.0000 </r>
       <r>  -12.0442    1.0000 </r>
       <r>  -12.0303    1.0000 </r>
       <r>  -12.0303    1.0000 </r>
       <r>   -8.7164    1.0000 </r>
       <r>   -8.3806    1.0000 </r>
       <r>   -8.3806    1.0000 </r>
       <r>   -0.6779    1.0000 </r>
       <r>    4.5108    1.0000 </r>
       <r>    5.4562    1.0000 </r>
       <r>    5.4562    1.0000 </r>
       <r>    6.4223    1.0000 </r>
       <r>    6.4223    1.0000 </r>
       <r>    6.8493    1.0000 </r>
       <r>    9.3517    1.0000 </r>
       <r>    9.3517    1.0000 </r>
       <r>   10.1962    1.0000 </r>
       <r>   11.0165    0.0000 </r>
       <r>   11.0165    0.0000 </r>
       <r>   11.2716    0.0000 </r>
       <r>   11.4555    0.0000 </r>
       <r>   11.4555    0.0000 </r>
      </set>
      <set comment="kpoint 7">
       <r>  -33.0926    1.0000 </r>
       <r>  -12.1065    1.0000 </r>
       <r>  -12.1065    1.0000 </r>
       <r>  -12.0459    1.0000 </r>
       <r>  -12.0297    1.0000 </r>
       <r>  -12.0297    1.0000 </r>
       <r>   -8.7430    1.0000 </r>
       <r>   -8.3710    1.0000 </r>
       <r>   -8.3710    1.0000 </r>
       <r>   -0.5132    1.0000 </r>
       <r>    4.3576    1.0000 </r>
       <r>    5.4665    1.0000 </r>
       <r>    5.4665    1.0000 </r>
       <r>    6.3218    1.0000 </r>
       <r>    6.3218    1.0000 </r>
       <r>    6.6890    1.0000 </r>
       <r>    9.3715    1.0000 </r>
       <r>    9.3715    1.0000 </r>
       <r>   10.2686    1.0000 </r>
       <r>   11.0666    0.0000 </r>
       <r>   11.0666    0.0000 </r>
       <r>   11.3717    0.0000 </r>
       <r>   11.3792    0.0000 </r>
       <r>   11.3819    0.0000 </r>
      </set>
      <set comment="kpoint 8">
       <r>  -33.0989    1.0000 </r>
       <r>  -12.0738    1.0000 </r>
       <r>  -12.0670    1.0000 </r>
       <r>  -12.0354    1.0000 </r>
       <r>  -12.0344    1.0000 </r>
       <r>  -12.0344    1.0000 </r>
       <r>   -8.4681    1.0000 </r>
       <r>   -8.4593    1.0000 </r>
       <r>   -8.4593    1.0000 </r>
       <r>   -1.8343    1.0000 </r>
       <r>    5.6238    1.0000 </r>
       <r>    6.0773    1.0000 </r>
       <r>    6.0773    1.0000 </r>
       <r>    6.2647    1.0000 </r>
       <r>    6.4610    1.0000 </r>
       <r>    8.9317    1.0000 </r>
       <r>    9.5103    1.0000 </r>
       <r>    9.5103    1.0000 </r>
       <r>   10.1990    1.0000 </r>
       <r>   10.8141    1.0000 </r>
       <r>   10.9052    1.0000 </r>
       <r>   10.9052    1.0000 </r>
       <r>   11.2625    0.0000 </r>
       <r>   11.3366    0.0000 </r>
      </set>
      <set comment="kpoint 9">
       <r>  -33.0980    1.0000 </r>
       <r>  -12.0808    1.0000 </r>
       <r>  -12.0689    1.0000 </r>
       <r>  -12.0364    1.0000 </r>
       <r>  -12.0338    1.0000 </r>
       <r>  -12.0337    1.0000 </r>
       <r>   -8.5087    1.0000 </r>
       <r>   -8.4556    1.0000 </r>
       <r>   -8.4434    1.0000 </r>
       <r>   -1.6621    1.0000 </r>
       <r>    5.3267    1.0000 </r>
       <r>    5.9446    1.0000 </r>
       <r>    5.9506    1.0000 </r>
       <r>    6.3944    1.0000 </r>
       <r>    6.5817    1.0000 </r>
       <r>    8.4615    1.0000 </r>
       <r>    9.3658    1.0000 </r>
       <r>    9.3701    1.0000 </r>
       <r>   10.2703    1.0000 </r>
       <r>   10.8550    1.0000 </r>
       <r>   10.9228    1.0000 </r>
       <r>   11.0654    0.0000 </r>
       <r>   11.2691    0.0000 </r>
       <r>   11.4437    0.0000 </r>
      </set>
      <set comment="kpoint 10">
       <r>  -33.0966    1.0000 </r>
       <r>  -12.0892    1.0000 </r>
       <r>  -12.0750    1.0000 </r>
       <r>  -12.0381    1.0000 </r>
       <r>  -12.0330    1.0000 </r>
       <r>  -12.0325    1.0000 </r>
       <r>   -8.5729    1.0000 </r>
       <r>   -8.4425    1.0000 </r>
       <r>   -8.4216    1.0000 </r>
       <r>   -1.3828    1.0000 </r>
       <r>    5.0447    1.0000 </r>
       <r>    5.6853    1.0000 </r>
       <r>    5.7997    1.0000 </r>
       <r>    6.4821    1.0000 </r>
       <r>    6.6799    1.0000 </r>
       <r>    7.8889    1.0000 </r>
       <r>    9.2311    1.0000 </r>
       <r>    9.2696    1.0000 </r>
       <r>   10.2408    1.0000 </r>
       <r>   10.8923    1.0000 </r>
       <r>   10.9367    1.0000 </r>
       <r>   11.2628    0.0000 </r>
       <r>   11.2727    0.0000 </r>
       <r>   11.5336    0.0000 </r>
      </set>
      <set comment="kpoint 11">
       <r>  -33.0950    1.0000 </r>
       <r>  -12.0971    1.0000 </r>
       <r>  -12.0840    1.0000 </r>
       <r>  -12.0405    1.0000 </r>
       <r>  -12.0321    1.0000 </r>
       <r>  -12.0312    1.0000 </r>
       <r>   -8.6400    1.0000 </r>
       <r>   -8.4231    1.0000 </r>
       <r>   -8.4015    1.0000 </r>
       <r>   -1.0606    1.0000 </r>
       <r>    4.7838    1.0000 </r>
       <r>    5.4763    1.0000 </r>
       <r>    5.6920    1.0000 </r>
       <r>    6.4548    1.0000 </r>
       <r>    6.6786    1.0000 </r>
       <r>    7.3767    1.0000 </r>
       <r>    9.1606    1.0000 </r>
       <r>    9.2544    1.0000 </r>
       <r>   10.2263    1.0000 </r>
       <r>   10.9466    0.9986 </r>
       <r>   10.9618    0.7993 </r>
       <r>   11.2759    0.0000 </r>
       <r>   11.3544    0.0000 </r>
       <r>   11.5355    0.0000 </r>
      </set>
      <set comment="kpoint 12">
       <r>  -33.0936    1.0000 </r>
       <r>  -12.1028    1.0000 </r>
       <r>  -12.0935    1.0000 </r>
       <r>  -12.0430    1.0000 </r>
       <r>  -12.0311    1.0000 </r>
       <r>  -12.0301    1.0000 </r>
       <r>   -8.6950    1.0000 </r>
       <r>   -8.4018    1.0000 </r>
       <r>   -8.3874    1.0000 </r>
       <r>   -0.7703    1.0000 </r>
       <r>    4.5708    1.0000 </r>
       <r>    5.3849    1.0000 </r>
       <r>    5.6180    1.0000 </r>
       <r>    6.3663    1.0000 </r>
       <r>    6.5845    1.0000 </r>
       <r>    6.9905    1.0000 </r>
       <r>    9.1588    1.0000 </r>
       <r>    9.2886    1.0000 </r>
       <r>   10.2597    1.0000 </r>
       <r>   11.0040    0.0000 </r>
       <r>   11.0080    0.0000 </r>
       <r>   11.2769    0.0000 </r>
       <r>   11.3921    0.0000 </r>
       <r>   11.4932    0.0000 </r>
      </set>
      <set comment="kpoint 13">
       <r>  -33.0926    1.0000 </r>
       <r>  -12.1050    1.0000 </r>
       <r>  -12.1015    1.0000 </r>
       <r>  -12.0449    1.0000 </r>
       <r>  -12.0304    1.0000 </r>
       <r>  -12.0294    1.0000 </r>
       <r>   -8.7287    1.0000 </r>
       <r>   -8.3834    1.0000 </r>
       <r>   -8.3825    1.0000 </r>
       <r>   -0.5783    1.0000 </r>
       <r>    4.4413    1.0000 </r>
       <r>    5.4009    1.0000 </r>
       <r>    5.5411    1.0000 </r>
       <r>    6.3170    1.0000 </r>
       <r>    6.4517    1.0000 </r>
       <r>    6.7602    1.0000 </r>
       <r>    9.1834    1.0000 </r>
       <r>    9.3223    1.0000 </r>
       <r>   10.3185    1.0000 </r>
       <r>   11.0585    0.0000 </r>
       <r>   11.0598    0.0000 </r>
       <r>   11.2716    0.0000 </r>
       <r>   11.3696    0.0000 </r>
       <r>   11.4406    0.0000 </r>
      </set>
      <set comment="kpoint 14">
       <r>  -33.0923    1.0000 </r>
       <r>  -12.1061    1.0000 </r>
       <r>  -12.1032    1.0000 </r>
       <r>  -12.0454    1.0000 </r>
       <r>  -12.0301    1.0000 </r>
       <r>  -12.0294    1.0000 </r>
       <r>   -8.7371    1.0000 </r>
       <r>   -8.3875    1.0000 </r>
       <r>   -8.3721    1.0000 </r>
       <r>   -0.5259    1.0000 </r>
       <r>    4.4082    1.0000 </r>
       <r>    5.4409    1.0000 </r>
       <r>    5.4830    1.0000 </r>
       <r>    6.3469    1.0000 </r>
       <r>    6.3703    1.0000 </r>
       <r>    6.7035    1.0000 </r>
       <r>    9.1880    1.0000 </r>
       <r>    9.3308    1.0000 </r>
       <r>   10.3437    1.0000 </r>
       <r>   11.0653    0.0000 </r>
       <r>   11.0942    0.0000 </r>
       <r>   11.2607    0.0000 </r>
       <r>   11.3763    0.0000 </r>
       <r>   11.3893    0.0000 </r>
      </set>
      <set comment="kpoint 15">
       <r>  -33.0929    1.0000 </r>
       <r>  -12.1065    1.0000 </r>
       <r>  -12.0979    1.0000 </r>
       <r>  -12.0443    1.0000 </r>
       <r>  -12.0302    1.0000 </r>
       <r>  -12.0300    1.0000 </r>
       <r>   -8.7196    1.0000 </r>
       <r>   -8.4013    1.0000 </r>
       <r>   -8.3704    1.0000 </r>
       <r>   -0.6241    1.0000 </r>
       <r>    4.4768    1.0000 </r>
       <r>    5.3507    1.0000 </r>
       <r>    5.5836    1.0000 </r>
       <r>    6.3251    1.0000 </r>
       <r>    6.5027    1.0000 </r>
       <r>    6.8221    1.0000 </r>
       <r>    9.1477    1.0000 </r>
       <r>    9.3219    1.0000 </r>
       <r>   10.3072    1.0000 </r>
       <r>   11.0243    0.0000 </r>
       <r>   11.0633    0.0000 </r>
       <r>   11.2673    0.0000 </r>
       <r>   11.4088    0.0000 </r>
       <r>   11.4278    0.0000 </r>
      </set>
      <set comment="kpoint 16">
       <r>  -33.0940    1.0000 </r>
       <r>  -12.1025    1.0000 </r>
       <r>  -12.0901    1.0000 </r>
       <r>  -12.0420    1.0000 </r>
       <r>  -12.0311    1.0000 </r>
       <r>  -12.0309    1.0000 </r>
       <r>   -8.6780    1.0000 </r>
       <r>   -8.4206    1.0000 </r>
       <r>   -8.3787    1.0000 </r>
       <r>   -0.8534    1.0000 </r>
       <r>    4.6577    1.0000 </r>
       <r>    5.3134    1.0000 </r>
       <r>    5.6841    1.0000 </r>
       <r>    6.3844    1.0000 </r>
       <r>    6.6472    1.0000 </r>
       <r>    7.1046    1.0000 </r>
       <r>    9.0725    1.0000 </r>
       <r>    9.3264    1.0000 </r>
       <r>   10.2522    1.0000 </r>
       <r>   10.9783    0.0678 </r>
       <r>   10.9991    0.0000 </r>
       <r>   11.2725    0.0000 </r>
       <r>   11.4053    0.0000 </r>
       <r>   11.4775    0.0000 </r>
      </set>
      <set comment="kpoint 17">
       <r>  -33.0955    1.0000 </r>
       <r>  -12.0950    1.0000 </r>
       <r>  -12.0815    1.0000 </r>
       <r>  -12.0395    1.0000 </r>
       <r>  -12.0323    1.0000 </r>
       <r>  -12.0320    1.0000 </r>
       <r>   -8.6184    1.0000 </r>
       <r>   -8.4408    1.0000 </r>
       <r>   -8.3953    1.0000 </r>
       <r>   -1.1629    1.0000 </r>
       <r>    4.9432    1.0000 </r>
       <r>    5.3527    1.0000 </r>
       <r>    5.8090    1.0000 </r>
       <r>    6.4455    1.0000 </r>
       <r>    6.7324    1.0000 </r>
       <r>    7.5342    1.0000 </r>
       <r>    9.0153    1.0000 </r>
       <r>    9.3810    1.0000 </r>
       <r>   10.2278    1.0000 </r>
       <r>   10.9360    1.0000 </r>
       <r>   10.9451    0.9993 </r>
       <r>   11.2704    0.0000 </r>
       <r>   11.3413    0.0000 </r>
       <r>   11.5331    0.0000 </r>
      </set>
      <set comment="kpoint 18">
       <r>  -33.0971    1.0000 </r>
       <r>  -12.0857    1.0000 </r>
       <r>  -12.0742    1.0000 </r>
       <r>  -12.0373    1.0000 </r>
       <r>  -12.0334    1.0000 </r>
       <r>  -12.0331    1.0000 </r>
       <r>   -8.5526    1.0000 </r>
       <r>   -8.4566    1.0000 </r>
       <r>   -8.4163    1.0000 </r>
       <r>   -1.4805    1.0000 </r>
       <r>    5.2892    1.0000 </r>
       <r>    5.4739    1.0000 </r>
       <r>    5.9740    1.0000 </r>
       <r>    6.4220    1.0000 </r>
       <r>    6.7118    1.0000 </r>
       <r>    8.0682    1.0000 </r>
       <r>    9.0617    1.0000 </r>
       <r>    9.4921    1.0000 </r>
       <r>   10.2416    1.0000 </r>
       <r>   10.8842    1.0000 </r>
       <r>   10.9229    1.0000 </r>
       <r>   11.2308    0.0000 </r>
       <r>   11.2654    0.0000 </r>
       <r>   11.5071    0.0000 </r>
      </set>
      <set comment="kpoint 19">
       <r>  -33.0984    1.0000 </r>
       <r>  -12.0766    1.0000 </r>
       <r>  -12.0700    1.0000 </r>
       <r>  -12.0359    1.0000 </r>
       <r>  -12.0341    1.0000 </r>
       <r>  -12.0340    1.0000 </r>
       <r>   -8.4999    1.0000 </r>
       <r>   -8.4613    1.0000 </r>
       <r>   -8.4370    1.0000 </r>
       <r>   -1.7320    1.0000 </r>
       <r>    5.6330    1.0000 </r>
       <r>    5.6665    1.0000 </r>
       <r>    6.0887    1.0000 </r>
       <r>    6.3446    1.0000 </r>
       <r>    6.5880    1.0000 </r>
       <r>    8.5895    1.0000 </r>
       <r>    9.2985    1.0000 </r>
       <r>    9.6013    1.0000 </r>
       <r>   10.2189    1.0000 </r>
       <r>   10.8565    1.0000 </r>
       <r>   10.8955    1.0000 </r>
       <r>   11.0365    0.0000 </r>
       <r>   11.2586    0.0000 </r>
       <r>   11.3997    0.0000 </r>
      </set>
      <set comment="kpoint 20">
       <r>  -33.0974    1.0000 </r>
       <r>  -12.0868    1.0000 </r>
       <r>  -12.0655    1.0000 </r>
       <r>  -12.0374    1.0000 </r>
       <r>  -12.0332    1.0000 </r>
       <r>  -12.0332    1.0000 </r>
       <r>   -8.4980    1.0000 </r>
       <r>   -8.4639    1.0000 </r>
       <r>   -8.4639    1.0000 </r>
       <r>   -1.5608    1.0000 </r>
       <r>    5.0065    1.0000 </r>
       <r>    6.0978    1.0000 </r>
       <r>    6.0978    1.0000 </r>
       <r>    6.3047    1.0000 </r>
       <r>    6.5195    1.0000 </r>
       <r>    8.4276    1.0000 </r>
       <r>    9.2239    1.0000 </r>
       <r>    9.2239    1.0000 </r>
       <r>   10.2864    1.0000 </r>
       <r>   10.9477    0.9977 </r>
       <r>   10.9477    0.9977 </r>
       <r>   11.0118    0.0000 </r>
       <r>   11.2996    0.0000 </r>
       <r>   11.4998    0.0000 </r>
      </set>
      <set comment="kpoint 21">
       <r>  -33.0963    1.0000 </r>
       <r>  -12.0927    1.0000 </r>
       <r>  -12.0671    1.0000 </r>
       <r>  -12.0389    1.0000 </r>
       <r>  -12.0324    1.0000 </r>
       <r>  -12.0321    1.0000 </r>
       <r>   -8.5456    1.0000 </r>
       <r>   -8.4614    1.0000 </r>
       <r>   -8.4482    1.0000 </r>
       <r>   -1.3578    1.0000 </r>
       <r>    4.7567    1.0000 </r>
       <r>    5.9479    1.0000 </r>
       <r>    6.0149    1.0000 </r>
       <r>    6.3779    1.0000 </r>
       <r>    6.5782    1.0000 </r>
       <r>    8.1178    1.0000 </r>
       <r>    9.0530    1.0000 </r>
       <r>    9.1384    1.0000 </r>
       <r>   10.3162    1.0000 </r>
       <r>   10.9170    1.0000 </r>
       <r>   10.9610    0.8301 </r>
       <r>   11.1823    0.0000 </r>
       <r>   11.3143    0.0000 </r>
       <r>   11.5614    0.0000 </r>
      </set>
      <set comment="kpoint 22">
       <r>  -33.0949    1.0000 </r>
       <r>  -12.0971    1.0000 </r>
       <r>  -12.0732    1.0000 </r>
       <r>  -12.0405    1.0000 </r>
       <r>  -12.0319    1.0000 </r>
       <r>  -12.0307    1.0000 </r>
       <r>   -8.6082    1.0000 </r>
       <r>   -8.4488    1.0000 </r>
       <r>   -8.4287    1.0000 </r>
       <r>   -1.1066    1.0000 </r>
       <r>    4.6073    1.0000 </r>
       <r>    5.6882    1.0000 </r>
       <r>    5.9035    1.0000 </r>
       <r>    6.3915    1.0000 </r>
       <r>    6.6537    1.0000 </r>
       <r>    7.6914    1.0000 </r>
       <r>    8.8898    1.0000 </r>
       <r>    9.1388    1.0000 </r>
       <r>   10.3602    1.0000 </r>
       <r>   10.9373    1.0000 </r>
       <r>   10.9782    0.0702 </r>
       <r>   11.2783    0.0000 </r>
       <r>   11.3158    0.0000 </r>
       <r>   11.5641    0.0000 </r>
      </set>
      <set comment="kpoint 23">
       <r>  -33.0935    1.0000 </r>
       <r>  -12.0993    1.0000 </r>
       <r>  -12.0823    1.0000 </r>
       <r>  -12.0421    1.0000 </r>
       <r>  -12.0316    1.0000 </r>
       <r>  -12.0295    1.0000 </r>
       <r>   -8.6630    1.0000 </r>
       <r>   -8.4290    1.0000 </r>
       <r>   -8.4176    1.0000 </r>
       <r>   -0.8694    1.0000 </r>
       <r>    4.5641    1.0000 </r>
       <r>    5.4860    1.0000 </r>
       <r>    5.7892    1.0000 </r>
       <r>    6.3541    1.0000 </r>
       <r>    6.6522    1.0000 </r>
       <r>    7.2724    1.0000 </r>
       <r>    8.8171    1.0000 </r>
       <r>    9.1872    1.0000 </r>
       <r>   10.3812    1.0000 </r>
       <r>   10.9942    0.0001 </r>
       <r>   11.0103    0.0000 </r>
       <r>   11.3097    0.0000 </r>
       <r>   11.3171    0.0000 </r>
       <r>   11.5321    0.0000 </r>
      </set>
      <set comment="kpoint 24">
       <r>  -33.0924    1.0000 </r>
       <r>  -12.0987    1.0000 </r>
       <r>  -12.0921    1.0000 </r>
       <r>  -12.0434    1.0000 </r>
       <r>  -12.0314    1.0000 </r>
       <r>  -12.0288    1.0000 </r>
       <r>   -8.6994    1.0000 </r>
       <r>   -8.4175    1.0000 </r>
       <r>   -8.4066    1.0000 </r>
       <r>   -0.6964    1.0000 </r>
       <r>    4.5908    1.0000 </r>
       <r>    5.3994    1.0000 </r>
       <r>    5.6415    1.0000 </r>
       <r>    6.3593    1.0000 </r>
       <r>    6.5755    1.0000 </r>
       <r>    6.9609    1.0000 </r>
       <r>    8.8035    1.0000 </r>
       <r>    9.2261    1.0000 </r>
       <r>   10.4162    1.0000 </r>
       <r>   11.0424    0.0000 </r>
       <r>   11.0606    0.0000 </r>
       <r>   11.2932    0.0000 </r>
       <r>   11.3367    0.0000 </r>
       <r>   11.5055    0.0000 </r>
      </set>
      <set comment="kpoint 25">
       <r>  -33.0920    1.0000 </r>
       <r>  -12.1004    1.0000 </r>
       <r>  -12.0956    1.0000 </r>
       <r>  -12.0437    1.0000 </r>
       <r>  -12.0313    1.0000 </r>
       <r>  -12.0288    1.0000 </r>
       <r>   -8.7127    1.0000 </r>
       <r>   -8.4277    1.0000 </r>
       <r>   -8.3867    1.0000 </r>
       <r>   -0.6148    1.0000 </r>
       <r>    4.6134    1.0000 </r>
       <r>    5.4399    1.0000 </r>
       <r>    5.4701    1.0000 </r>
       <r>    6.4462    1.0000 </r>
       <r>    6.4619    1.0000 </r>
       <r>    6.8334    1.0000 </r>
       <r>    8.7911    1.0000 </r>
       <r>    9.2314    1.0000 </r>
       <r>   10.4520    1.0000 </r>
       <r>   11.0460    0.0000 </r>
       <r>   11.1187    0.0000 </r>
       <r>   11.2589    0.0000 </r>
       <r>   11.3707    0.0000 </r>
       <r>   11.4440    0.0000 </r>
      </set>
      <set comment="kpoint 26">
       <r>  -33.0922    1.0000 </r>
       <r>  -12.1055    1.0000 </r>
       <r>  -12.0907    1.0000 </r>
       <r>  -12.0429    1.0000 </r>
       <r>  -12.0314    1.0000 </r>
       <r>  -12.0294    1.0000 </r>
       <r>   -8.7026    1.0000 </r>
       <r>   -8.4451    1.0000 </r>
       <r>   -8.3736    1.0000 </r>
       <r>   -0.6360    1.0000 </r>
       <r>    4.6004    1.0000 </r>
       <r>    5.3205    1.0000 </r>
       <r>    5.5752    1.0000 </r>
       <r>    6.3706    1.0000 </r>
       <r>    6.5868    1.0000 </r>
       <r>    6.9157    1.0000 </r>
       <r>    8.7321    1.0000 </r>
       <r>    9.2189    1.0000 </r>
       <r>   10.4524    1.0000 </r>
       <r>   11.0127    0.0000 </r>
       <r>   11.1323    0.0000 </r>
       <r>   11.2415    0.0000 </r>
       <r>   11.4071    0.0000 </r>
       <r>   11.4194    0.0000 </r>
      </set>
      <set comment="kpoint 27">
       <r>  -33.0931    1.0000 </r>
       <r>  -12.1062    1.0000 </r>
       <r>  -12.0849    1.0000 </r>
       <r>  -12.0413    1.0000 </r>
       <r>  -12.0316    1.0000 </r>
       <r>  -12.0304    1.0000 </r>
       <r>   -8.6719    1.0000 </r>
       <r>   -8.4641    1.0000 </r>
       <r>   -8.3704    1.0000 </r>
       <r>   -0.7630    1.0000 </r>
       <r>    4.6120    1.0000 </r>
       <r>    5.2312    1.0000 </r>
       <r>    5.7548    1.0000 </r>
       <r>    6.3324    1.0000 </r>
       <r>    6.7283    1.0000 </r>
       <r>    7.1747    1.0000 </r>
       <r>    8.6197    1.0000 </r>
       <r>    9.2267    1.0000 </r>
       <r>   10.4214    1.0000 </r>
       <r>   10.9790    0.0562 </r>
       <r>   11.0709    0.0000 </r>
       <r>   11.2688    0.0000 </r>
       <r>   11.3948    0.0000 </r>
       <r>   11.4386    0.0000 </r>
      </set>
      <set comment="kpoint 28">
       <r>  -33.0944    1.0000 </r>
       <r>  -12.1025    1.0000 </r>
       <r>  -12.0794    1.0000 </r>
       <r>  -12.0396    1.0000 </r>
       <r>  -12.0320    1.0000 </r>
       <r>  -12.0315    1.0000 </r>
       <r>   -8.6275    1.0000 </r>
       <r>   -8.4775    1.0000 </r>
       <r>   -8.3779    1.0000 </r>
       <r>   -0.9804    1.0000 </r>
       <r>    4.7261    1.0000 </r>
       <r>    5.2241    1.0000 </r>
       <r>    5.9424    1.0000 </r>
       <r>    6.3231    1.0000 </r>
       <r>    6.8137    1.0000 </r>
       <r>    7.5465    1.0000 </r>
       <r>    8.5166    1.0000 </r>
       <r>    9.2891    1.0000 </r>
       <r>   10.3857    1.0000 </r>
       <r>   10.9584    0.9060 </r>
       <r>   10.9964    0.0000 </r>
       <r>   11.2812    0.0000 </r>
       <r>   11.3569    0.0000 </r>
       <r>   11.4868    0.0000 </r>
      </set>
      <set comment="kpoint 29">
       <r>  -33.0959    1.0000 </r>
       <r>  -12.0952    1.0000 </r>
       <r>  -12.0754    1.0000 </r>
       <r>  -12.0383    1.0000 </r>
       <r>  -12.0326    1.0000 </r>
       <r>  -12.0325    1.0000 </r>
       <r>   -8.5831    1.0000 </r>
       <r>   -8.4761    1.0000 </r>
       <r>   -8.3944    1.0000 </r>
       <r>   -1.2418    1.0000 </r>
       <r>    4.9647    1.0000 </r>
       <r>    5.3070    1.0000 </r>
       <r>    6.0854    1.0000 </r>
       <r>    6.3079    1.0000 </r>
       <r>    6.8069    1.0000 </r>
       <r>    7.8880    1.0000 </r>
       <r>    8.6146    1.0000 </r>
       <r>    9.4002    1.0000 </r>
       <r>   10.3445    1.0000 </r>
       <r>   10.9278    1.0000 </r>
       <r>   10.9444    0.9995 </r>
       <r>   11.2776    0.0000 </r>
       <r>   11.3029    0.0000 </r>
       <r>   11.5215    0.0000 </r>
      </set>
      <set comment="kpoint 30">
       <r>  -33.0954    1.0000 </r>
       <r>  -12.0945    1.0000 </r>
       <r>  -12.0633    1.0000 </r>
       <r>  -12.0404    1.0000 </r>
       <r>  -12.0312    1.0000 </r>
       <r>  -12.0312    1.0000 </r>
       <r>   -8.5439    1.0000 </r>
       <r>   -8.4709    1.0000 </r>
       <r>   -8.4709    1.0000 </r>
       <r>   -1.2524    1.0000 </r>
       <r>    4.5606    1.0000 </r>
       <r>    6.0864    1.0000 </r>
       <r>    6.0864    1.0000 </r>
       <r>    6.3625    1.0000 </r>
       <r>    6.4045    1.0000 </r>
       <r>    8.0861    1.0000 </r>
       <r>    9.0625    1.0000 </r>
       <r>    9.0625    1.0000 </r>
       <r>   10.2595    1.0000 </r>
       <r>   10.9776    0.0821 </r>
       <r>   10.9776    0.0821 </r>
       <r>   11.1416    0.0000 </r>
       <r>   11.3616    0.0000 </r>
       <r>   11.6307    0.0000 </r>
      </set>
      <set comment="kpoint 31">
       <r>  -33.0943    1.0000 </r>
       <r>  -12.0943    1.0000 </r>
       <r>  -12.0648    1.0000 </r>
       <r>  -12.0419    1.0000 </r>
       <r>  -12.0304    1.0000 </r>
       <r>  -12.0299    1.0000 </r>
       <r>   -8.5871    1.0000 </r>
       <r>   -8.4689    1.0000 </r>
       <r>   -8.4633    1.0000 </r>
       <r>   -1.1040    1.0000 </r>
       <r>    4.5026    1.0000 </r>
       <r>    5.8999    1.0000 </r>
       <r>    6.0232    1.0000 </r>
       <r>    6.3897    1.0000 </r>
       <r>    6.4520    1.0000 </r>
       <r>    7.8675    1.0000 </r>
       <r>    8.9146    1.0000 </r>
       <r>    9.0732    1.0000 </r>
       <r>   10.3602    1.0000 </r>
       <r>   10.9617    0.8052 </r>
       <r>   10.9937    0.0001 </r>
       <r>   11.1944    0.0000 </r>
       <r>   11.3830    0.0000 </r>
       <r>   11.6316    0.0000 </r>
      </set>
      <set comment="kpoint 32">
       <r>  -33.0931    1.0000 </r>
       <r>  -12.0922    1.0000 </r>
       <r>  -12.0711    1.0000 </r>
       <r>  -12.0430    1.0000 </r>
       <r>  -12.0303    1.0000 </r>
       <r>  -12.0286    1.0000 </r>
       <r>   -8.6349    1.0000 </r>
       <r>   -8.4564    1.0000 </r>
       <r>   -8.4560    1.0000 </r>
       <r>   -0.9546    1.0000 </r>
       <r>    4.5880    1.0000 </r>
       <r>    5.6512    1.0000 </r>
       <r>    5.9070    1.0000 </r>
       <r>    6.3945    1.0000 </r>
       <r>    6.5445    1.0000 </r>
       <r>    7.5553    1.0000 </r>
       <r>    8.6875    1.0000 </r>
       <r>    9.1291    1.0000 </r>
       <r>   10.4699    1.0000 </r>
       <r>   10.9739    0.1919 </r>
       <r>   11.0198    0.0000 </r>
       <r>   11.2399    0.0000 </r>
       <r>   11.3783    0.0000 </r>
       <r>   11.5847    0.0000 </r>
      </set>
      <set comment="kpoint 33">
       <r>  -33.0921    1.0000 </r>
       <r>  -12.0888    1.0000 </r>
       <r>  -12.0804    1.0000 </r>
       <r>  -12.0433    1.0000 </r>
       <r>  -12.0309    1.0000 </r>
       <r>  -12.0279    1.0000 </r>
       <r>   -8.6674    1.0000 </r>
       <r>   -8.4616    1.0000 </r>
       <r>   -8.4352    1.0000 </r>
       <r>   -0.8332    1.0000 </r>
       <r>    4.7696    1.0000 </r>
       <r>    5.4837    1.0000 </r>
       <r>    5.7395    1.0000 </r>
       <r>    6.4300    1.0000 </r>
       <r>    6.5709    1.0000 </r>
       <r>    7.2371    1.0000 </r>
       <r>    8.5193    1.0000 </r>
       <r>    9.1636    1.0000 </r>
       <r>   10.5166    1.0000 </r>
       <r>   11.0113    0.0000 </r>
       <r>   11.0618    0.0000 </r>
       <r>   11.2856    0.0000 </r>
       <r>   11.3537    0.0000 </r>
       <r>   11.5321    0.0000 </r>
      </set>
      <set comment="kpoint 34">
       <r>  -33.0915    1.0000 </r>
       <r>  -12.0906    1.0000 </r>
       <r>  -12.0850    1.0000 </r>
       <r>  -12.0425    1.0000 </r>
       <r>  -12.0320    1.0000 </r>
       <r>  -12.0278    1.0000 </r>
       <r>   -8.6787    1.0000 </r>
       <r>   -8.4784    1.0000 </r>
       <r>   -8.4112    1.0000 </r>
       <r>   -0.7507    1.0000 </r>
       <r>    4.9255    1.0000 </r>
       <r>    5.4244    1.0000 </r>
       <r>    5.5442    1.0000 </r>
       <r>    6.5117    1.0000 </r>
       <r>    6.5217    1.0000 </r>
       <r>    7.0562    1.0000 </r>
       <r>    8.4053    1.0000 </r>
       <r>    9.1513    1.0000 </r>
       <r>   10.5498    1.0000 </r>
       <r>   11.0124    0.0000 </r>
       <r>   11.1171    0.0000 </r>
       <r>   11.3069    0.0000 </r>
       <r>   11.3533    0.0000 </r>
       <r>   11.5014    0.0000 </r>
      </set>
      <set comment="kpoint 35">
       <r>  -33.0915    1.0000 </r>
       <r>  -12.0994    1.0000 </r>
       <r>  -12.0819    1.0000 </r>
       <r>  -12.0408    1.0000 </r>
       <r>  -12.0332    1.0000 </r>
       <r>  -12.0284    1.0000 </r>
       <r>   -8.6702    1.0000 </r>
       <r>   -8.5006    1.0000 </r>
       <r>   -8.3894    1.0000 </r>
       <r>   -0.7124    1.0000 </r>
       <r>    4.9041    1.0000 </r>
       <r>    5.3642    1.0000 </r>
       <r>    5.4894    1.0000 </r>
       <r>    6.4265    1.0000 </r>
       <r>    6.6478    1.0000 </r>
       <r>    7.1053    1.0000 </r>
       <r>    8.3014    1.0000 </r>
       <r>    9.1190    1.0000 </r>
       <r>   10.5686    1.0000 </r>
       <r>   10.9788    0.0594 </r>
       <r>   11.1715    0.0000 </r>
       <r>   11.2449    0.0000 </r>
       <r>   11.3973    0.0000 </r>
       <r>   11.4599    0.0000 </r>
      </set>
      <set comment="kpoint 36">
       <r>  -33.0921    1.0000 </r>
       <r>  -12.1049    1.0000 </r>
       <r>  -12.0798    1.0000 </r>
       <r>  -12.0394    1.0000 </r>
       <r>  -12.0336    1.0000 </r>
       <r>  -12.0294    1.0000 </r>
       <r>   -8.6502    1.0000 </r>
       <r>   -8.5163    1.0000 </r>
       <r>   -8.3747    1.0000 </r>
       <r>   -0.7313    1.0000 </r>
       <r>    4.7559    1.0000 </r>
       <r>    5.2364    1.0000 </r>
       <r>    5.6431    1.0000 </r>
       <r>    6.3729    1.0000 </r>
       <r>    6.7652    1.0000 </r>
       <r>    7.3316    1.0000 </r>
       <r>    8.1872    1.0000 </r>
       <r>    9.1155    1.0000 </r>
       <r>   10.5483    1.0000 </r>
       <r>   10.9537    0.9762 </r>
       <r>   11.1501    0.0000 </r>
       <r>   11.2436    0.0000 </r>
       <r>   11.3900    0.0000 </r>
       <r>   11.4407    0.0000 </r>
      </set>
      <set comment="kpoint 37">
       <r>  -33.0932    1.0000 </r>
       <r>  -12.1061    1.0000 </r>
       <r>  -12.0789    1.0000 </r>
       <r>  -12.0393    1.0000 </r>
       <r>  -12.0328    1.0000 </r>
       <r>  -12.0305    1.0000 </r>
       <r>   -8.6341    1.0000 </r>
       <r>   -8.5094    1.0000 </r>
       <r>   -8.3705    1.0000 </r>
       <r>   -0.8227    1.0000 </r>
       <r>    4.6625    1.0000 </r>
       <r>    5.1854    1.0000 </r>
       <r>    5.8265    1.0000 </r>
       <r>    6.3353    1.0000 </r>
       <r>    6.8282    1.0000 </r>
       <r>    7.5484    1.0000 </r>
       <r>    8.1826    1.0000 </r>
       <r>    9.1767    1.0000 </r>
       <r>   10.4853    1.0000 </r>
       <r>   10.9546    0.9690 </r>
       <r>   11.0742    0.0000 </r>
       <r>   11.2746    0.0000 </r>
       <r>   11.3732    0.0000 </r>
       <r>   11.4494    0.0000 </r>
      </set>
      <set comment="kpoint 38">
       <r>  -33.0934    1.0000 </r>
       <r>  -12.0893    1.0000 </r>
       <r>  -12.0610    1.0000 </r>
       <r>  -12.0437    1.0000 </r>
       <r>  -12.0288    1.0000 </r>
       <r>  -12.0288    1.0000 </r>
       <r>   -8.5987    1.0000 </r>
       <r>   -8.4789    1.0000 </r>
       <r>   -8.4789    1.0000 </r>
       <r>   -1.0680    1.0000 </r>
       <r>    4.5412    1.0000 </r>
       <r>    6.0236    1.0000 </r>
       <r>    6.0236    1.0000 </r>
       <r>    6.2102    1.0000 </r>
       <r>    6.4258    1.0000 </r>
       <r>    7.7712    1.0000 </r>
       <r>    9.0950    1.0000 </r>
       <r>    9.0950    1.0000 </r>
       <r>   10.3448    1.0000 </r>
       <r>   11.0089    0.0000 </r>
       <r>   11.0089    0.0000 </r>
       <r>   11.1336    0.0000 </r>
       <r>   11.4456    0.0000 </r>
       <r>   11.7252    0.0000 </r>
      </set>
      <set comment="kpoint 39">
       <r>  -33.0924    1.0000 </r>
       <r>  -12.0831    1.0000 </r>
       <r>  -12.0627    1.0000 </r>
       <r>  -12.0449    1.0000 </r>
       <r>  -12.0282    1.0000 </r>
       <r>  -12.0277    1.0000 </r>
       <r>   -8.6307    1.0000 </r>
       <r>   -8.4808    1.0000 </r>
       <r>   -8.4765    1.0000 </r>
       <r>   -1.0165    1.0000 </r>
       <r>    4.7255    1.0000 </r>
       <r>    5.8129    1.0000 </r>
       <r>    5.9513    1.0000 </r>
       <r>    6.2916    1.0000 </r>
       <r>    6.4494    1.0000 </r>
       <r>    7.5511    1.0000 </r>
       <r>    8.9740    1.0000 </r>
       <r>    9.1621    1.0000 </r>
       <r>   10.4961    1.0000 </r>
       <r>   10.9898    0.0009 </r>
       <r>   11.0305    0.0000 </r>
       <r>   11.1596    0.0000 </r>
       <r>   11.4695    0.0000 </r>
       <r>   11.6632    0.0000 </r>
      </set>
      <set comment="kpoint 40">
       <r>  -33.0916    1.0000 </r>
       <r>  -12.0774    1.0000 </r>
       <r>  -12.0692    1.0000 </r>
       <r>  -12.0450    1.0000 </r>
       <r>  -12.0287    1.0000 </r>
       <r>  -12.0269    1.0000 </r>
       <r>   -8.6535    1.0000 </r>
       <r>   -8.4911    1.0000 </r>
       <r>   -8.4625    1.0000 </r>
       <r>   -0.9581    1.0000 </r>
       <r>    5.0012    1.0000 </r>
       <r>    5.6083    1.0000 </r>
       <r>    5.8188    1.0000 </r>
       <r>    6.4180    1.0000 </r>
       <r>    6.4878    1.0000 </r>
       <r>    7.2896    1.0000 </r>
       <r>    8.6589    1.0000 </r>
       <r>    9.1940    1.0000 </r>
       <r>   10.6166    1.0000 </r>
       <r>   10.9837    0.0121 </r>
       <r>   11.0636    0.0000 </r>
       <r>   11.2244    0.0000 </r>
       <r>   11.4520    0.0000 </r>
       <r>   11.5674    0.0000 </r>
      </set>
      <set comment="kpoint 41">
       <r>  -33.0911    1.0000 </r>
       <r>  -12.0789    1.0000 </r>
       <r>  -12.0738    1.0000 </r>
       <r>  -12.0437    1.0000 </r>
       <r>  -12.0305    1.0000 </r>
       <r>  -12.0267    1.0000 </r>
       <r>   -8.6554    1.0000 </r>
       <r>   -8.5153    1.0000 </r>
       <r>   -8.4399    1.0000 </r>
       <r>   -0.8933    1.0000 </r>
       <r>    5.2408    1.0000 </r>
       <r>    5.5037    1.0000 </r>
       <r>    5.6450    1.0000 </r>
       <r>    6.4689    1.0000 </r>
       <r>    6.5639    1.0000 </r>
       <r>    7.1118    1.0000 </r>
       <r>    8.3316    1.0000 </r>
       <r>    9.1582    1.0000 </r>
       <r>   10.6491    1.0000 </r>
       <r>   10.9823    0.0199 </r>
       <r>   11.1066    0.0000 </r>
       <r>   11.3199    0.0000 </r>
       <r>   11.3941    0.0000 </r>
       <r>   11.4884    0.0000 </r>
      </set>
      <set comment="kpoint 42">
       <r>  -33.0910    1.0000 </r>
       <r>  -12.0896    1.0000 </r>
       <r>  -12.0733    1.0000 </r>
       <r>  -12.0407    1.0000 </r>
       <r>  -12.0332    1.0000 </r>
       <r>  -12.0273    1.0000 </r>
       <r>   -8.6379    1.0000 </r>
       <r>   -8.5470    1.0000 </r>
       <r>   -8.4139    1.0000 </r>
       <r>   -0.8229    1.0000 </r>
       <r>    5.3007    1.0000 </r>
       <r>    5.4370    1.0000 </r>
       <r>    5.4671    1.0000 </r>
       <r>    6.4315    1.0000 </r>
       <r>    6.6605    1.0000 </r>
       <r>    7.1792    1.0000 </r>
       <r>    8.0755    1.0000 </r>
       <r>    9.0932    1.0000 </r>
       <r>   10.6575    1.0000 </r>
       <r>   10.9518    0.9877 </r>
       <r>   11.1522    0.0000 </r>
       <r>   11.3147    0.0000 </r>
       <r>   11.3897    0.0000 </r>
       <r>   11.4660    0.0000 </r>
      </set>
      <set comment="kpoint 43">
       <r>  -33.0914    1.0000 </r>
       <r>  -12.0990    1.0000 </r>
       <r>  -12.0757    1.0000 </r>
       <r>  -12.0377    1.0000 </r>
       <r>  -12.0356    1.0000 </r>
       <r>  -12.0282    1.0000 </r>
       <r>   -8.6272    1.0000 </r>
       <r>   -8.5566    1.0000 </r>
       <r>   -8.3904    1.0000 </r>
       <r>   -0.7599    1.0000 </r>
       <r>    5.0474    1.0000 </r>
       <r>    5.3214    1.0000 </r>
       <r>    5.5074    1.0000 </r>
       <r>    6.4042    1.0000 </r>
       <r>    6.7395    1.0000 </r>
       <r>    7.3655    1.0000 </r>
       <r>    7.9636    1.0000 </r>
       <r>    9.0652    1.0000 </r>
       <r>   10.6319    1.0000 </r>
       <r>   10.9322    1.0000 </r>
       <r>   11.1897    0.0000 </r>
       <r>   11.2428    0.0000 </r>
       <r>   11.3923    0.0000 </r>
       <r>   11.4696    0.0000 </r>
      </set>
      <set comment="kpoint 44">
       <r>  -33.0918    1.0000 </r>
       <r>  -12.0740    1.0000 </r>
       <r>  -12.0591    1.0000 </r>
       <r>  -12.0464    1.0000 </r>
       <r>  -12.0266    1.0000 </r>
       <r>  -12.0266    1.0000 </r>
       <r>   -8.6501    1.0000 </r>
       <r>   -8.4860    1.0000 </r>
       <r>   -8.4860    1.0000 </r>
       <r>   -1.0496    1.0000 </r>
       <r>    4.9835    1.0000 </r>
       <r>    5.9392    1.0000 </r>
       <r>    5.9392    1.0000 </r>
       <r>    6.0356    1.0000 </r>
       <r>    6.4799    1.0000 </r>
       <r>    7.3451    1.0000 </r>
       <r>    9.2514    1.0000 </r>
       <r>    9.2514    1.0000 </r>
       <r>   10.5464    1.0000 </r>
       <r>   11.0460    0.0000 </r>
       <r>   11.0460    0.0000 </r>
       <r>   11.0895    0.0000 </r>
       <r>   11.5390    0.0000 </r>
       <r>   11.7226    0.0000 </r>
      </set>
      <set comment="kpoint 45">
       <r>  -33.0912    1.0000 </r>
       <r>  -12.0672    1.0000 </r>
       <r>  -12.0611    1.0000 </r>
       <r>  -12.0469    1.0000 </r>
       <r>  -12.0265    1.0000 </r>
       <r>  -12.0259    1.0000 </r>
       <r>   -8.6666    1.0000 </r>
       <r>   -8.4935    1.0000 </r>
       <r>   -8.4823    1.0000 </r>
       <r>   -1.0488    1.0000 </r>
       <r>    5.2997    1.0000 </r>
       <r>    5.7538    1.0000 </r>
       <r>    5.8711    1.0000 </r>
       <r>    6.1669    1.0000 </r>
       <r>    6.5077    1.0000 </r>
       <r>    7.0742    1.0000 </r>
       <r>    9.1176    1.0000 </r>
       <r>    9.3012    1.0000 </r>
       <r>   10.6980    1.0000 </r>
       <r>   10.9994    0.0000 </r>
       <r>   11.0688    0.0000 </r>
       <r>   11.1564    0.0000 </r>
       <r>   11.5596    0.0000 </r>
       <r>   11.5711    0.0000 </r>
      </set>
      <set comment="kpoint 46">
       <r>  -33.0908    1.0000 </r>
       <r>  -12.0681    1.0000 </r>
       <r>  -12.0645    1.0000 </r>
       <r>  -12.0460    1.0000 </r>
       <r>  -12.0279    1.0000 </r>
       <r>  -12.0258    1.0000 </r>
       <r>   -8.6638    1.0000 </r>
       <r>   -8.5146    1.0000 </r>
       <r>   -8.4663    1.0000 </r>
       <r>   -1.0092    1.0000 </r>
       <r>    5.4402    1.0000 </r>
       <r>    5.7363    1.0000 </r>
       <r>    5.7512    1.0000 </r>
       <r>    6.3258    1.0000 </r>
       <r>    6.5594    1.0000 </r>
       <r>    6.8667    1.0000 </r>
       <r>    8.7120    1.0000 </r>
       <r>    9.2559    1.0000 </r>
       <r>   10.7505    1.0000 </r>
       <r>   10.9706    0.3446 </r>
       <r>   11.0968    0.0000 </r>
       <r>   11.2824    0.0000 </r>
       <r>   11.4566    0.0000 </r>
       <r>   11.5256    0.0000 </r>
      </set>
      <set comment="kpoint 47">
       <r>  -33.0908    1.0000 </r>
       <r>  -12.0784    1.0000 </r>
       <r>  -12.0669    1.0000 </r>
       <r>  -12.0434    1.0000 </r>
       <r>  -12.0305    1.0000 </r>
       <r>  -12.0263    1.0000 </r>
       <r>   -8.6431    1.0000 </r>
       <r>   -8.5443    1.0000 </r>
       <r>   -8.4417    1.0000 </r>
       <r>   -0.9304    1.0000 </r>
       <r>    5.4018    1.0000 </r>
       <r>    5.6057    1.0000 </r>
       <r>    5.6785    1.0000 </r>
       <r>    6.3938    1.0000 </r>
       <r>    6.6221    1.0000 </r>
       <r>    6.9688    1.0000 </r>
       <r>    8.2828    1.0000 </r>
       <r>    9.1573    1.0000 </r>
       <r>   10.7181    1.0000 </r>
       <r>   10.9542    0.9721 </r>
       <r>   11.1255    0.0000 </r>
       <r>   11.3814    0.0000 </r>
       <r>   11.4118    0.0000 </r>
       <r>   11.4218    0.0000 </r>
      </set>
      <set comment="kpoint 48">
       <r>  -33.0909    1.0000 </r>
       <r>  -12.0608    1.0000 </r>
       <r>  -12.0580    1.0000 </r>
       <r>  -12.0479    1.0000 </r>
       <r>  -12.0253    1.0000 </r>
       <r>  -12.0253    1.0000 </r>
       <r>   -8.6821    1.0000 </r>
       <r>   -8.4902    1.0000 </r>
       <r>   -8.4902    1.0000 </r>
       <r>   -1.0911    1.0000 </r>
       <r>    5.6116    1.0000 </r>
       <r>    5.8820    1.0000 </r>
       <r>    5.8820    1.0000 </r>
       <r>    5.9676    1.0000 </r>
       <r>    6.5112    1.0000 </r>
       <r>    6.7951    1.0000 </r>
       <r>    9.3879    1.0000 </r>
       <r>    9.3879    1.0000 </r>
       <r>   10.7856    1.0000 </r>
       <r>   11.0760    0.0000 </r>
       <r>   11.0773    0.0000 </r>
       <r>   11.0773    0.0000 </r>
       <r>   11.4703    0.0000 </r>
       <r>   11.6085    0.0000 </r>
      </set>
      <set comment="kpoint 49">
       <r>  -33.0907    1.0000 </r>
       <r>  -12.0605    1.0000 </r>
       <r>  -12.0598    1.0000 </r>
       <r>  -12.0477    1.0000 </r>
       <r>  -12.0258    1.0000 </r>
       <r>  -12.0253    1.0000 </r>
       <r>   -8.6808    1.0000 </r>
       <r>   -8.4981    1.0000 </r>
       <r>   -8.4845    1.0000 </r>
       <r>   -1.0779    1.0000 </r>
       <r>    5.6042    1.0000 </r>
       <r>    5.8386    1.0000 </r>
       <r>    5.9074    1.0000 </r>
       <r>    6.1207    1.0000 </r>
       <r>    6.5303    1.0000 </r>
       <r>    6.6600    1.0000 </r>
       <r>    9.1899    1.0000 </r>
       <r>    9.3663    1.0000 </r>
       <r>   10.8235    1.0000 </r>
       <r>   10.9969    0.0000 </r>
       <r>   11.0872    0.0000 </r>
       <r>   11.2052    0.0000 </r>
       <r>   11.4060    0.0000 </r>
       <r>   11.6102    0.0000 </r>
      </set>
      <set comment="kpoint 50">
       <r>  -33.0970    1.0000 </r>
       <r>  -12.0884    1.0000 </r>
       <r>  -12.0699    1.0000 </r>
       <r>  -12.0376    1.0000 </r>
       <r>  -12.0331    1.0000 </r>
       <r>  -12.0330    1.0000 </r>
       <r>   -8.5384    1.0000 </r>
       <r>   -8.4671    1.0000 </r>
       <r>   -8.4268    1.0000 </r>
       <r>   -1.4702    1.0000 </r>
       <r>    5.0305    1.0000 </r>
       <r>    5.7189    1.0000 </r>
       <r>    6.1029    1.0000 </r>
       <r>    6.3376    1.0000 </r>
       <r>    6.6753    1.0000 </r>
       <r>    8.1965    1.0000 </r>
       <r>    8.9696    1.0000 </r>
       <r>    9.3769    1.0000 </r>
       <r>   10.3251    1.0000 </r>
       <r>   10.8788    1.0000 </r>
       <r>   10.9426    0.9998 </r>
       <r>   11.1895    0.0000 </r>
       <r>   11.2830    0.0000 </r>
       <r>   11.5175    0.0000 </r>
      </set>
      <set comment="kpoint 51">
       <r>  -33.0956    1.0000 </r>
       <r>  -12.0959    1.0000 </r>
       <r>  -12.0746    1.0000 </r>
       <r>  -12.0391    1.0000 </r>
       <r>  -12.0324    1.0000 </r>
       <r>  -12.0318    1.0000 </r>
       <r>   -8.5920    1.0000 </r>
       <r>   -8.4648    1.0000 </r>
       <r>   -8.4056    1.0000 </r>
       <r>   -1.2045    1.0000 </r>
       <r>    4.7920    1.0000 </r>
       <r>    5.5079    1.0000 </r>
       <r>    5.9949    1.0000 </r>
       <r>    6.3653    1.0000 </r>
       <r>    6.7428    1.0000 </r>
       <r>    7.7955    1.0000 </r>
       <r>    8.7725    1.0000 </r>
       <r>    9.3049    1.0000 </r>
       <r>   10.3434    1.0000 </r>
       <r>   10.9204    1.0000 </r>
       <r>   10.9603    0.8555 </r>
       <r>   11.2892    0.0000 </r>
       <r>   11.2941    0.0000 </r>
       <r>   11.5414    0.0000 </r>
      </set>
      <set comment="kpoint 52">
       <r>  -33.0941    1.0000 </r>
       <r>  -12.1015    1.0000 </r>
       <r>  -12.0818    1.0000 </r>
       <r>  -12.0410    1.0000 </r>
       <r>  -12.0318    1.0000 </r>
       <r>  -12.0306    1.0000 </r>
       <r>   -8.6492    1.0000 </r>
       <r>   -8.4504    1.0000 </r>
       <r>   -8.3894    1.0000 </r>
       <r>   -0.9312    1.0000 </r>
       <r>    4.6334    1.0000 </r>
       <r>    5.3674    1.0000 </r>
       <r>    5.8416    1.0000 </r>
       <r>    6.3531    1.0000 </r>
       <r>    6.7231    1.0000 </r>
       <r>    7.3545    1.0000 </r>
       <r>    8.7758    1.0000 </r>
       <r>    9.2557    1.0000 </r>
       <r>   10.3539    1.0000 </r>
       <r>   10.9688    0.4435 </r>
[...]
       <r>   10.6866    1.0000 </r>
       <r>   10.9839    0.0113 </r>
       <r>   11.2164    0.0000 </r>
       <r>   11.2723    0.0000 </r>
       <r>   11.3916    0.0000 </r>
       <r>   11.4738    0.0000 </r>
      </set>
      <set comment="kpoint 81">
       <r>  -33.0912    1.0000 </r>
       <r>  -12.0935    1.0000 </r>
       <r>  -12.0699    1.0000 </r>
       <r>  -12.0399    1.0000 </r>
       <r>  -12.0351    1.0000 </r>
       <r>  -12.0266    1.0000 </r>
       <r>   -8.6271    1.0000 </r>
       <r>   -8.5476    1.0000 </r>
       <r>   -8.4204    1.0000 </r>
       <r>   -0.8265    1.0000 </r>
       <r>    5.1483    1.0000 </r>
       <r>    5.3354    1.0000 </r>
       <r>    5.7422    1.0000 </r>
       <r>    6.4262    1.0000 </r>
       <r>    6.6891    1.0000 </r>
       <r>    7.3310    1.0000 </r>
       <r>    7.7251    1.0000 </r>
       <r>    9.2737    1.0000 </r>
       <r>   10.6633    1.0000 </r>
       <r>   10.9662    0.5876 </r>
       <r>   11.2032    0.0000 </r>
       <r>   11.2625    0.0000 </r>
       <r>   11.3628    0.0000 </r>
       <r>   11.4984    0.0000 </r>
      </set>
      <set comment="kpoint 82">
       <r>  -33.0907    1.0000 </r>
       <r>  -12.0793    1.0000 </r>
       <r>  -12.0604    1.0000 </r>
       <r>  -12.0445    1.0000 </r>
       <r>  -12.0312    1.0000 </r>
       <r>  -12.0251    1.0000 </r>
       <r>   -8.6459    1.0000 </r>
       <r>   -8.5243    1.0000 </r>
       <r>   -8.4659    1.0000 </r>
       <r>   -0.9614    1.0000 </r>
       <r>    5.2836    1.0000 </r>
       <r>    5.7288    1.0000 </r>
       <r>    5.8751    1.0000 </r>
       <r>    6.3510    1.0000 </r>
       <r>    6.6531    1.0000 </r>
       <r>    6.9130    1.0000 </r>
       <r>    8.0511    1.0000 </r>
       <r>    9.4367    1.0000 </r>
       <r>   10.7470    1.0000 </r>
       <r>   10.9833    0.0140 </r>
       <r>   11.1436    0.0000 </r>
       <r>   11.3414    0.0000 </r>
       <r>   11.4170    0.0000 </r>
       <r>   11.4627    0.0000 </r>
      </set>
      <set comment="kpoint 83">
       <r>  -33.0907    1.0000 </r>
       <r>  -12.0852    1.0000 </r>
       <r>  -12.0606    1.0000 </r>
       <r>  -12.0423    1.0000 </r>
       <r>  -12.0340    1.0000 </r>
       <r>  -12.0251    1.0000 </r>
       <r>   -8.6277    1.0000 </r>
       <r>   -8.5457    1.0000 </r>
       <r>   -8.4564    1.0000 </r>
       <r>   -0.9210    1.0000 </r>
       <r>    5.2274    1.0000 </r>
       <r>    5.7706    1.0000 </r>
       <r>    5.8385    1.0000 </r>
       <r>    6.3806    1.0000 </r>
       <r>    6.7062    1.0000 </r>
       <r>    6.9876    1.0000 </r>
       <r>    7.6903    1.0000 </r>
       <r>    9.4237    1.0000 </r>
       <r>   10.7297    1.0000 </r>
       <r>   10.9945    0.0001 </r>
       <r>   11.1831    0.0000 </r>
       <r>   11.3455    0.0000 </r>
       <r>   11.4069    0.0000 </r>
       <r>   11.4326    0.0000 </r>
      </set>
      <set comment="kpoint 84">
       <r>  -33.0907    1.0000 </r>
       <r>  -12.0886    1.0000 </r>
       <r>  -12.0606    1.0000 </r>
       <r>  -12.0406    1.0000 </r>
       <r>  -12.0362    1.0000 </r>
       <r>  -12.0250    1.0000 </r>
       <r>   -8.6171    1.0000 </r>
       <r>   -8.5533    1.0000 </r>
       <r>   -8.4543    1.0000 </r>
       <r>   -0.8991    1.0000 </r>
       <r>    5.1878    1.0000 </r>
       <r>    5.7261    1.0000 </r>
       <r>    5.8592    1.0000 </r>
       <r>    6.3925    1.0000 </r>
       <r>    6.7470    1.0000 </r>
       <r>    7.1514    1.0000 </r>
       <r>    7.4015    1.0000 </r>
       <r>    9.4437    1.0000 </r>
       <r>   10.7184    1.0000 </r>
       <r>   11.0065    0.0000 </r>
       <r>   11.2264    0.0000 </r>
       <r>   11.2888    0.0000 </r>
       <r>   11.4002    0.0000 </r>
       <r>   11.4767    0.0000 </r>
      </set>
     </set>
    </set>
   </array>
  </eigenvalues>
  <separator name="orbital magnetization" >
   <v name="MAGDIPOLOUT">      0.00000000      0.00000000      0.00000000</v>
  </separator>
  <dos>
   <i name="efermi">     10.96774792 </i>
   <total>
    <array>
     <dimension dim="1">gridpoints</dimension>
     <dimension dim="2">spin</dimension>
     <field>energy</field>
     <field>total</field>
     <field>integrated</field>
     <set>
      <set comment="spin 1">
       <r>   -35.3406     0.0000     0.0000 </r>
       <r>   -35.1763     0.0000     0.0000 </r>
       <r>   -35.0119     0.0000     0.0000 </r>
       <r>   -34.8475     0.0000     0.0000 </r>
       <r>   -34.6832     0.0000     0.0000 </r>
       <r>   -34.5188     0.0000     0.0000 </r>
       <r>   -34.3545     0.0000     0.0000 </r>
       <r>   -34.1901     0.0000     0.0000 </r>
       <r>   -34.0258     0.0000     0.0000 </r>
       <r>   -33.8614     0.0000     0.0000 </r>
       <r>   -33.6970     0.0000     0.0000 </r>
       <r>   -33.5327     0.0000     0.0000 </r>
       <r>   -33.3683     0.0000     0.0000 </r>
       <r>   -33.2040     0.0000     0.0000 </r>
       <r>   -33.0396    12.1687     2.0000 </r>
       <r>   -32.8753     0.0000     2.0000 </r>
       <r>   -32.7109     0.0000     2.0000 </r>
       <r>   -32.5465     0.0000     2.0000 </r>
       <r>   -32.3822     0.0000     2.0000 </r>
       <r>   -32.2178     0.0000     2.0000 </r>
       <r>   -32.0535     0.0000     2.0000 </r>
       <r>   -31.8891     0.0000     2.0000 </r>
       <r>   -31.7248     0.0000     2.0000 </r>
       <r>   -31.5604     0.0000     2.0000 </r>
       <r>   -31.3961     0.0000     2.0000 </r>
       <r>   -31.2317     0.0000     2.0000 </r>
       <r>   -31.0673     0.0000     2.0000 </r>
       <r>   -30.9030     0.0000     2.0000 </r>
       <r>   -30.7386     0.0000     2.0000 </r>
       <r>   -30.5743     0.0000     2.0000 </r>
       <r>   -30.4099     0.0000     2.0000 </r>
       <r>   -30.2456     0.0000     2.0000 </r>
       <r>   -30.0812     0.0000     2.0000 </r>
       <r>   -29.9168     0.0000     2.0000 </r>
       <r>   -29.7525     0.0000     2.0000 </r>
       <r>   -29.5881     0.0000     2.0000 </r>
       <r>   -29.4238     0.0000     2.0000 </r>
       <r>   -29.2594     0.0000     2.0000 </r>
       <r>   -29.0951     0.0000     2.0000 </r>
       <r>   -28.9307     0.0000     2.0000 </r>
       <r>   -28.7663     0.0000     2.0000 </r>
       <r>   -28.6020     0.0000     2.0000 </r>
       <r>   -28.4376     0.0000     2.0000 </r>
       <r>   -28.2733     0.0000     2.0000 </r>
       <r>   -28.1089     0.0000     2.0000 </r>
       <r>   -27.9446     0.0000     2.0000 </r>
       <r>   -27.7802     0.0000     2.0000 </r>
       <r>   -27.6158     0.0000     2.0000 </r>
       <r>   -27.4515     0.0000     2.0000 </r>
       <r>   -27.2871     0.0000     2.0000 </r>
       <r>   -27.1228     0.0000     2.0000 </r>
       <r>   -26.9584     0.0000     2.0000 </r>
       <r>   -26.7941     0.0000     2.0000 </r>
       <r>   -26.6297     0.0000     2.0000 </r>
       <r>   -26.4653     0.0000     2.0000 </r>
       <r>   -26.3010     0.0000     2.0000 </r>
       <r>   -26.1366     0.0000     2.0000 </r>
       <r>   -25.9723     0.0000     2.0000 </r>
       <r>   -25.8079     0.0000     2.0000 </r>
       <r>   -25.6436     0.0000     2.0000 </r>
       <r>   -25.4792     0.0000     2.0000 </r>
       <r>   -25.3149     0.0000     2.0000 </r>
       <r>   -25.1505     0.0000     2.0000 </r>
       <r>   -24.9861     0.0000     2.0000 </r>
       <r>   -24.8218     0.0000     2.0000 </r>
       <r>   -24.6574     0.0000     2.0000 </r>
       <r>   -24.4931     0.0000     2.0000 </r>
       <r>   -24.3287     0.0000     2.0000 </r>
       <r>   -24.1644     0.0000     2.0000 </r>
       <r>   -24.0000     0.0000     2.0000 </r>
       <r>   -23.8356     0.0000     2.0000 </r>
       <r>   -23.6713     0.0000     2.0000 </r>
       <r>   -23.5069     0.0000     2.0000 </r>
       <r>   -23.3426     0.0000     2.0000 </r>
       <r>   -23.1782     0.0000     2.0000 </r>
       <r>   -23.0139     0.0000     2.0000 </r>
       <r>   -22.8495     0.0000     2.0000 </r>
       <r>   -22.6851     0.0000     2.0000 </r>
       <r>   -22.5208     0.0000     2.0000 </r>
       <r>   -22.3564     0.0000     2.0000 </r>
       <r>   -22.1921     0.0000     2.0000 </r>
       <r>   -22.0277     0.0000     2.0000 </r>
       <r>   -21.8634     0.0000     2.0000 </r>
       <r>   -21.6990     0.0000     2.0000 </r>
       <r>   -21.5346     0.0000     2.0000 </r>
       <r>   -21.3703     0.0000     2.0000 </r>
       <r>   -21.2059     0.0000     2.0000 </r>
       <r>   -21.0416     0.0000     2.0000 </r>
       <r>   -20.8772     0.0000     2.0000 </r>
       <r>   -20.7129     0.0000     2.0000 </r>
       <r>   -20.5485     0.0000     2.0000 </r>
       <r>   -20.3841     0.0000     2.0000 </r>
       <r>   -20.2198     0.0000     2.0000 </r>
       <r>   -20.0554     0.0000     2.0000 </r>
       <r>   -19.8911     0.0000     2.0000 </r>
       <r>   -19.7267     0.0000     2.0000 </r>
       <r>   -19.5624     0.0000     2.0000 </r>
       <r>   -19.3980     0.0000     2.0000 </r>
       <r>   -19.2337     0.0000     2.0000 </r>
       <r>   -19.0693     0.0000     2.0000 </r>
       <r>   -18.9049     0.0000     2.0000 </r>
       <r>   -18.7406     0.0000     2.0000 </r>
       <r>   -18.5762     0.0000     2.0000 </r>
       <r>   -18.4119     0.0000     2.0000 </r>
       <r>   -18.2475     0.0000     2.0000 </r>
       <r>   -18.0832     0.0000     2.0000 </r>
       <r>   -17.9188     0.0000     2.0000 </r>
       <r>   -17.7544     0.0000     2.0000 </r>
       <r>   -17.5901     0.0000     2.0000 </r>
       <r>   -17.4257     0.0000     2.0000 </r>
       <r>   -17.2614     0.0000     2.0000 </r>
       <r>   -17.0970     0.0000     2.0000 </r>
       <r>   -16.9327     0.0000     2.0000 </r>
       <r>   -16.7683     0.0000     2.0000 </r>
       <r>   -16.6039     0.0000     2.0000 </r>
       <r>   -16.4396     0.0000     2.0000 </r>
       <r>   -16.2752     0.0000     2.0000 </r>
       <r>   -16.1109     0.0000     2.0000 </r>
       <r>   -15.9465     0.0000     2.0000 </r>
       <r>   -15.7822     0.0000     2.0000 </r>
       <r>   -15.6178     0.0000     2.0000 </r>
       <r>   -15.4534     0.0000     2.0000 </r>
       <r>   -15.2891     0.0000     2.0000 </r>
       <r>   -15.1247     0.0000     2.0000 </r>
       <r>   -14.9604     0.0000     2.0000 </r>
       <r>   -14.7960     0.0000     2.0000 </r>
       <r>   -14.6317     0.0000     2.0000 </r>
       <r>   -14.4673     0.0000     2.0000 </r>
       <r>   -14.3030     0.0000     2.0000 </r>
       <r>   -14.1386     0.0000     2.0000 </r>
       <r>   -13.9742     0.0000     2.0000 </r>
       <r>   -13.8099     0.0000     2.0000 </r>
       <r>   -13.6455     0.0000     2.0000 </r>
       <r>   -13.4812     0.0000     2.0000 </r>
       <r>   -13.3168     0.0000     2.0000 </r>
       <r>   -13.1525     0.0000     2.0000 </r>
       <r>   -12.9881     0.0000     2.0000 </r>
       <r>   -12.8237     0.0000     2.0000 </r>
       <r>   -12.6594     0.0000     2.0000 </r>
       <r>   -12.4950     0.0000     2.0000 </r>
       <r>   -12.3307     0.0000     2.0000 </r>
       <r>   -12.1663     0.0000     2.0000 </r>
       <r>   -12.0020    47.6922    11.9997 </r>
       <r>   -11.8376     0.0000    12.0000 </r>
       <r>   -11.6732     0.0000    12.0000 </r>
       <r>   -11.5089     0.0000    12.0000 </r>
       <r>   -11.3445     0.0000    12.0000 </r>
       <r>   -11.1802     0.0000    12.0000 </r>
       <r>   -11.0158     0.0000    12.0000 </r>
       <r>   -10.8515     0.0000    12.0000 </r>
       <r>   -10.6871     0.0000    12.0000 </r>
       <r>   -10.5227     0.0000    12.0000 </r>
       <r>   -10.3584     0.0000    12.0000 </r>
       <r>   -10.1940     0.0000    12.0000 </r>
       <r>   -10.0297     0.0000    12.0000 </r>
       <r>    -9.8653     0.0000    12.0000 </r>
       <r>    -9.7010     0.0000    12.0000 </r>
       <r>    -9.5366     0.0000    12.0000 </r>
       <r>    -9.3722     0.0000    12.0000 </r>
       <r>    -9.2079     0.0000    12.0000 </r>
       <r>    -9.0435     0.0000    12.0000 </r>
       <r>    -8.8792     0.0000    12.0000 </r>
       <r>    -8.7148     0.6656    12.1094 </r>
       <r>    -8.5505     3.2719    13.9797 </r>
       <r>    -8.3861    12.8546    17.5756 </r>
       <r>    -8.2218     0.0000    18.0000 </r>
       <r>    -8.0574     0.0000    18.0000 </r>
       <r>    -7.8930     0.0000    18.0000 </r>
       <r>    -7.7287     0.0000    18.0000 </r>
       <r>    -7.5643     0.0000    18.0000 </r>
       <r>    -7.4000     0.0000    18.0000 </r>
       <r>    -7.2356     0.0000    18.0000 </r>
       <r>    -7.0713     0.0000    18.0000 </r>
       <r>    -6.9069     0.0000    18.0000 </r>
       <r>    -6.7425     0.0000    18.0000 </r>
       <r>    -6.5782     0.0000    18.0000 </r>
       <r>    -6.4138     0.0000    18.0000 </r>
       <r>    -6.2495     0.0000    18.0000 </r>
       <r>    -6.0851     0.0000    18.0000 </r>
       <r>    -5.9208     0.0000    18.0000 </r>
       <r>    -5.7564     0.0000    18.0000 </r>
       <r>    -5.5920     0.0000    18.0000 </r>
       <r>    -5.4277     0.0000    18.0000 </r>
       <r>    -5.2633     0.0000    18.0000 </r>
       <r>    -5.0990     0.0000    18.0000 </r>
       <r>    -4.9346     0.0000    18.0000 </r>
       <r>    -4.7703     0.0000    18.0000 </r>
       <r>    -4.6059     0.0000    18.0000 </r>
       <r>    -4.4415     0.0000    18.0000 </r>
       <r>    -4.2772     0.0000    18.0000 </r>
       <r>    -4.1128     0.0000    18.0000 </r>
       <r>    -3.9485     0.0000    18.0000 </r>
       <r>    -3.7841     0.0000    18.0000 </r>
       <r>    -3.6198     0.0000    18.0000 </r>
       <r>    -3.4554     0.0000    18.0000 </r>
       <r>    -3.2910     0.0000    18.0000 </r>
       <r>    -3.1267     0.0000    18.0000 </r>
       <r>    -2.9623     0.0000    18.0000 </r>
       <r>    -2.7980     0.0000    18.0000 </r>
       <r>    -2.6336     0.0000    18.0000 </r>
       <r>    -2.4693     0.0000    18.0000 </r>
       <r>    -2.3049     0.0000    18.0000 </r>
       <r>    -2.1406     0.0000    18.0000 </r>
       <r>    -1.9762     0.0000    18.0000 </r>
       <r>    -1.8118     0.0775    18.0137 </r>
       <r>    -1.6475     0.1315    18.0462 </r>
       <r>    -1.4831     0.0846    18.0676 </r>
       <r>    -1.3188     0.2739    18.1479 </r>
       <r>    -1.1544     0.5165    18.2551 </r>
       <r>    -0.9901     1.3120    18.5333 </r>
       <r>    -0.8257     2.1567    19.2256 </r>
       <r>    -0.6613     1.5056    19.8396 </r>
       <r>    -0.4970     0.1768    19.9999 </r>
       <r>    -0.3326     0.0000    20.0000 </r>
       <r>    -0.1683     0.0000    20.0000 </r>
       <r>    -0.0039     0.0000    20.0000 </r>
       <r>     0.1604     0.0000    20.0000 </r>
       <r>     0.3248     0.0000    20.0000 </r>
       <r>     0.4892     0.0000    20.0000 </r>
       <r>     0.6535     0.0000    20.0000 </r>
       <r>     0.8179     0.0000    20.0000 </r>
       <r>     0.9822     0.0000    20.0000 </r>
       <r>     1.1466     0.0000    20.0000 </r>
       <r>     1.3109     0.0000    20.0000 </r>
       <r>     1.4753     0.0000    20.0000 </r>
       <r>     1.6397     0.0000    20.0000 </r>
       <r>     1.8040     0.0000    20.0000 </r>
       <r>     1.9684     0.0000    20.0000 </r>
       <r>     2.1327     0.0000    20.0000 </r>
       <r>     2.2971     0.0000    20.0000 </r>
       <r>     2.4614     0.0000    20.0000 </r>
       <r>     2.6258     0.0000    20.0000 </r>
       <r>     2.7901     0.0000    20.0000 </r>
       <r>     2.9545     0.0000    20.0000 </r>
       <r>     3.1189     0.0000    20.0000 </r>
       <r>     3.2832     0.0000    20.0000 </r>
       <r>     3.4476     0.0000    20.0000 </r>
       <r>     3.6119     0.0000    20.0000 </r>
       <r>     3.7763     0.0000    20.0000 </r>
       <r>     3.9406     0.0000    20.0000 </r>
       <r>     4.1050     0.0000    20.0000 </r>
       <r>     4.2694     0.0000    20.0000 </r>
       <r>     4.4337     0.1963    20.0323 </r>
       <r>     4.5981     1.6879    20.3794 </r>
       <r>     4.7624     0.8427    20.8085 </r>
       <r>     4.9268     0.4764    21.1270 </r>
       <r>     5.0911     1.2560    21.4299 </r>
       <r>     5.2555     1.5054    21.7440 </r>
       <r>     5.4199     2.8513    22.7918 </r>
       <r>     5.5842     2.5247    23.7104 </r>
       <r>     5.7486     2.9439    24.6313 </r>
       <r>     5.9129     2.4864    25.5320 </r>
       <r>     6.0773     0.6480    25.9345 </r>
       <r>     6.2416     0.3003    26.0712 </r>
       <r>     6.4060     5.7595    27.2306 </r>
       <r>     6.5704     2.6784    28.6159 </r>
       <r>     6.7347     3.2697    29.8055 </r>
       <r>     6.8991     0.5141    30.2283 </r>
       <r>     7.0634     1.1842    30.5424 </r>
       <r>     7.2278     1.3847    31.0341 </r>
       <r>     7.3921     1.1736    31.4000 </r>
       <r>     7.5565     0.5480    31.6194 </r>
       <r>     7.7209     1.1437    31.8375 </r>
       <r>     7.8852     0.5933    32.0001 </r>
       <r>     8.0496     0.6855    32.1682 </r>
       <r>     8.2139     0.3314    32.4650 </r>
       <r>     8.3783     0.5338    32.6367 </r>
       <r>     8.5426     1.1963    33.0350 </r>
       <r>     8.7070     0.2971    33.1713 </r>
       <r>     8.8713     0.6673    33.4724 </r>
       <r>     9.0357     0.3995    33.6597 </r>
       <r>     9.2001     4.4367    34.5963 </r>
       <r>     9.3644     2.4962    35.6866 </r>
       <r>     9.5288     0.2879    35.9718 </r>
       <r>     9.6931     0.1049    36.0009 </r>
       <r>     9.8575     0.0000    36.0009 </r>
       <r>    10.0218     0.0000    36.0009 </r>
       <r>    10.1862     0.0490    36.0308 </r>
       <r>    10.3506     1.0885    36.3983 </r>
       <r>    10.5149     1.9037    37.0129 </r>
       <r>    10.6793     2.0381    37.6413 </r>
       <r>    10.8436     0.4080    38.0070 </r>
       <r>    11.0080    11.2601    40.1502 </r>
       <r>    11.1723     4.8892    41.8832 </r>
       <r>    11.3367     9.7644    44.2849 </r>
       <r>    11.5011     7.1983    47.0602 </r>
       <r>    11.6654     0.7474    47.9808 </r>
       <r>    11.8298     0.0000    48.0000 </r>
       <r>    11.9941     0.0000    48.0000 </r>
       <r>    12.1585     0.0000    48.0000 </r>
       <r>    12.3228     0.0000    48.0000 </r>
       <r>    12.4872     0.0000    48.0000 </r>
       <r>    12.6516     0.0000    48.0000 </r>
       <r>    12.8159     0.0000    48.0000 </r>
       <r>    12.9803     0.0000    48.0000 </r>
       <r>    13.1446     0.0000    48.0000 </r>
       <r>    13.3090     0.0000    48.0000 </r>
       <r>    13.4733     0.0000    48.0000 </r>
       <r>    13.6377     0.0000    48.0000 </r>
       <r>    13.8021     0.0000    48.0000 </r>
       <r>    13.9664     0.0000    48.0000 </r>
      </set>
     </set>
    </array>
   </total>
  </dos>
 </calculation>
 <structure name="finalpos" >
  <crystal>
   <varray name="basis" >
    <v>       0.00000000       3.24991504       3.24991504 </v>
    <v>       3.24991504       0.00000000       3.24991504 </v>
    <v>       3.24991504       3.24991504       0.00000000 </v>
   </varray>
   <i name="volume">     68.65086563 </i>
   <varray name="rec_basis" >
    <v>      -0.15385018       0.15385018       0.15385018 </v>
    <v>       0.15385018      -0.15385018       0.15385018 </v>
    <v>       0.15385018       0.15385018      -0.15385018 </v>
   </varray>
  </crystal>
  <varray name="positions" >
   <v>       0.25000000       0.25000000       0.25000000 </v>
   <v>       0.75000000       0.75000000       0.75000000 </v>
   <v>       0.00000000       0.00000000       0.00000000 </v>
  </varray>
 </structure>
</modeling>
