   3   3   0   0
  0.2011938E+02  0.4403017E-09  0.4403017E-09  0.4403017E-09  0.5000000E-15
  1.000000000000000E-004
  CAR
 unknown system
     14.44418174    -24.12173725  301      9.82649788      1.00000000
    -24.122  0.0000E+00  0.0000E+00
    -23.993  0.0000E+00  0.0000E+00
    -23.865  0.0000E+00  0.0000E+00
    -23.736  0.0000E+00  0.0000E+00
    -23.608  0.0000E+00  0.0000E+00
    -23.479  0.0000E+00  0.0000E+00
    -23.350  0.0000E+00  0.0000E+00
    -23.222  0.0000E+00  0.0000E+00
    -23.093  0.0000E+00  0.0000E+00
    -22.965  0.0000E+00  0.0000E+00
    -22.836  0.0000E+00  0.0000E+00
    -22.708  0.0000E+00  0.0000E+00
    -22.579  0.0000E+00  0.0000E+00
    -22.451  0.0000E+00  0.0000E+00
    -22.322  0.4664E+02  0.5995E+01
    -22.193  0.0000E+00  0.6000E+01
    -22.065  0.0000E+00  0.6000E+01
    -21.936  0.0000E+00  0.6000E+01
    -21.808  0.0000E+00  0.6000E+01
    -21.679  0.0000E+00  0.6000E+01
    -21.551  0.0000E+00  0.6000E+01
    -21.422  0.0000E+00  0.6000E+01
    -21.294  0.0000E+00  0.6000E+01
    -21.165  0.0000E+00  0.6000E+01
    -21.036  0.0000E+00  0.6000E+01
    -20.908  0.0000E+00  0.6000E+01
    -20.779  0.0000E+00  0.6000E+01
    -20.651  0.0000E+00  0.6000E+01
    -20.522  0.0000E+00  0.6000E+01
    -20.394  0.0000E+00  0.6000E+01
    -20.265  0.0000E+00  0.6000E+01
    -20.137  0.0000E+00  0.6000E+01
    -20.008  0.0000E+00  0.6000E+01
    -19.879  0.0000E+00  0.6000E+01
    -19.751  0.0000E+00  0.6000E+01
    -19.622  0.0000E+00  0.6000E+01
    -19.494  0.0000E+00  0.6000E+01
    -19.365  0.0000E+00  0.6000E+01
    -19.237  0.0000E+00  0.6000E+01
    -19.108  0.0000E+00  0.6000E+01
    -18.980  0.0000E+00  0.6000E+01
    -18.851  0.0000E+00  0.6000E+01
    -18.723  0.0000E+00  0.6000E+01
    -18.594  0.0000E+00  0.6000E+01
    -18.465  0.0000E+00  0.6000E+01
    -18.337  0.0000E+00  0.6000E+01
    -18.208  0.0000E+00  0.6000E+01
    -18.080  0.0000E+00  0.6000E+01
    -17.951  0.0000E+00  0.6000E+01
    -17.823  0.0000E+00  0.6000E+01
    -17.694  0.0000E+00  0.6000E+01
    -17.566  0.0000E+00  0.6000E+01
    -17.437  0.0000E+00  0.6000E+01
    -17.308  0.0000E+00  0.6000E+01
    -17.180  0.0000E+00  0.6000E+01
    -17.051  0.0000E+00  0.6000E+01
    -16.923  0.0000E+00  0.6000E+01
    -16.794  0.0000E+00  0.6000E+01
    -16.666  0.0000E+00  0.6000E+01
    -16.537  0.0000E+00  0.6000E+01
    -16.409  0.0000E+00  0.6000E+01
    -16.280  0.0000E+00  0.6000E+01
    -16.151  0.0000E+00  0.6000E+01
    -16.023  0.0000E+00  0.6000E+01
    -15.894  0.0000E+00  0.6000E+01
    -15.766  0.0000E+00  0.6000E+01
    -15.637  0.0000E+00  0.6000E+01
    -15.509  0.0000E+00  0.6000E+01
    -15.380  0.0000E+00  0.6000E+01
    -15.252  0.0000E+00  0.6000E+01
    -15.123  0.0000E+00  0.6000E+01
    -14.994  0.0000E+00  0.6000E+01
    -14.866  0.0000E+00  0.6000E+01
    -14.737  0.0000E+00  0.6000E+01
    -14.609  0.0000E+00  0.6000E+01
    -14.480  0.0000E+00  0.6000E+01
    -14.352  0.0000E+00  0.6000E+01
    -14.223  0.0000E+00  0.6000E+01
    -14.095  0.0000E+00  0.6000E+01
    -13.966  0.0000E+00  0.6000E+01
    -13.837  0.0000E+00  0.6000E+01
    -13.709  0.0000E+00  0.6000E+01
    -13.580  0.0000E+00  0.6000E+01
    -13.452  0.0000E+00  0.6000E+01
    -13.323  0.0000E+00  0.6000E+01
    -13.195  0.0000E+00  0.6000E+01
    -13.066  0.0000E+00  0.6000E+01
    -12.938  0.0000E+00  0.6000E+01
    -12.809  0.0000E+00  0.6000E+01
    -12.681  0.0000E+00  0.6000E+01
    -12.552  0.0000E+00  0.6000E+01
    -12.423  0.0000E+00  0.6000E+01
    -12.295  0.0000E+00  0.6000E+01
    -12.166  0.0000E+00  0.6000E+01
    -12.038  0.0000E+00  0.6000E+01
    -11.909  0.0000E+00  0.6000E+01
    -11.781  0.0000E+00  0.6000E+01
    -11.652  0.0000E+00  0.6000E+01
    -11.524  0.0000E+00  0.6000E+01
    -11.395  0.0000E+00  0.6000E+01
    -11.266  0.0000E+00  0.6000E+01
    -11.138  0.0000E+00  0.6000E+01
    -11.009  0.0000E+00  0.6000E+01
    -10.881  0.0000E+00  0.6000E+01
    -10.752  0.0000E+00  0.6000E+01
    -10.624  0.0000E+00  0.6000E+01
    -10.495  0.0000E+00  0.6000E+01
    -10.367  0.0000E+00  0.6000E+01
    -10.238  0.0000E+00  0.6000E+01
    -10.109  0.0000E+00  0.6000E+01
     -9.981  0.0000E+00  0.6000E+01
     -9.852  0.0000E+00  0.6000E+01
     -9.724  0.0000E+00  0.6000E+01
     -9.595  0.0000E+00  0.6000E+01
     -9.467  0.0000E+00  0.6000E+01
     -9.338  0.0000E+00  0.6000E+01
     -9.210  0.0000E+00  0.6000E+01
     -9.081  0.0000E+00  0.6000E+01
     -8.952  0.0000E+00  0.6000E+01
     -8.824  0.0000E+00  0.6000E+01
     -8.695  0.0000E+00  0.6000E+01
     -8.567  0.0000E+00  0.6000E+01
     -8.438  0.0000E+00  0.6000E+01
     -8.310  0.0000E+00  0.6000E+01
     -8.181  0.0000E+00  0.6000E+01
     -8.053  0.0000E+00  0.6000E+01
     -7.924  0.0000E+00  0.6000E+01
     -7.795  0.0000E+00  0.6000E+01
     -7.667  0.0000E+00  0.6000E+01
     -7.538  0.0000E+00  0.6000E+01
     -7.410  0.0000E+00  0.6000E+01
     -7.281  0.0000E+00  0.6000E+01
     -7.153  0.0000E+00  0.6000E+01
     -7.024  0.0000E+00  0.6000E+01
     -6.896  0.0000E+00  0.6000E+01
     -6.767  0.0000E+00  0.6000E+01
     -6.639  0.0000E+00  0.6000E+01
     -6.510  0.0000E+00  0.6000E+01
     -6.381  0.0000E+00  0.6000E+01
     -6.253  0.0000E+00  0.6000E+01
     -6.124  0.0000E+00  0.6000E+01
     -5.996  0.0000E+00  0.6000E+01
     -5.867  0.0000E+00  0.6000E+01
     -5.739  0.0000E+00  0.6000E+01
     -5.610  0.0000E+00  0.6000E+01
     -5.482  0.0000E+00  0.6000E+01
     -5.353  0.0000E+00  0.6000E+01
     -5.224  0.0000E+00  0.6000E+01
     -5.096  0.0000E+00  0.6000E+01
     -4.967  0.0000E+00  0.6000E+01
     -4.839  0.0000E+00  0.6000E+01
     -4.710  0.0000E+00  0.6000E+01
     -4.582  0.0000E+00  0.6000E+01
     -4.453  0.0000E+00  0.6000E+01
     -4.325  0.0000E+00  0.6000E+01
     -4.196  0.0000E+00  0.6000E+01
     -4.067  0.0000E+00  0.6000E+01
     -3.939  0.0000E+00  0.6000E+01
     -3.810  0.0000E+00  0.6000E+01
     -3.682  0.0000E+00  0.6000E+01
     -3.553  0.9006E-04  0.6000E+01
     -3.425  0.9894E-01  0.6014E+01
     -3.296  0.9121E-01  0.6025E+01
     -3.168  0.3645E-01  0.6058E+01
     -3.039  0.3399E+00  0.6103E+01
     -2.910  0.2266E+00  0.6154E+01
     -2.782  0.4398E+00  0.6210E+01
     -2.653  0.1972E+00  0.6261E+01
     -2.525  0.2376E+00  0.6332E+01
     -2.396  0.7054E+00  0.6465E+01
     -2.268  0.4425E+00  0.6546E+01
     -2.139  0.9051E+00  0.6704E+01
     -2.011  0.5983E+00  0.6868E+01
     -1.882  0.2388E+01  0.7322E+01
     -1.754  0.3307E+01  0.7999E+01
     -1.625  0.0000E+00  0.8000E+01
     -1.496  0.0000E+00  0.8000E+01
     -1.368  0.0000E+00  0.8000E+01
     -1.239  0.0000E+00  0.8000E+01
     -1.111  0.0000E+00  0.8000E+01
     -0.982  0.0000E+00  0.8000E+01
     -0.854  0.0000E+00  0.8000E+01
     -0.725  0.0000E+00  0.8000E+01
     -0.597  0.0000E+00  0.8000E+01
     -0.468  0.0000E+00  0.8000E+01
     -0.339  0.0000E+00  0.8000E+01
     -0.211  0.0000E+00  0.8000E+01
     -0.082  0.0000E+00  0.8000E+01
      0.046  0.0000E+00  0.8000E+01
      0.175  0.0000E+00  0.8000E+01
      0.303  0.0000E+00  0.8000E+01
      0.432  0.0000E+00  0.8000E+01
      0.560  0.0000E+00  0.8000E+01
      0.689  0.0000E+00  0.8000E+01
      0.818  0.0000E+00  0.8000E+01
      0.946  0.0000E+00  0.8000E+01
      1.075  0.0000E+00  0.8000E+01
      1.203  0.0000E+00  0.8000E+01
      1.332  0.0000E+00  0.8000E+01
      1.460  0.0000E+00  0.8000E+01
      1.589  0.0000E+00  0.8000E+01
      1.717  0.2115E+00  0.8027E+01
      1.846  0.6702E+00  0.8115E+01
      1.975  0.2495E+01  0.8530E+01
      2.103  0.2217E+01  0.9010E+01
      2.232  0.2558E+01  0.9398E+01
      2.360  0.1437E+01  0.9652E+01
      2.489  0.4717E+00  0.9808E+01
      2.617  0.7315E-01  0.9877E+01
      2.746  0.5663E-01  0.9924E+01
      2.874  0.7938E+00  0.1003E+02
      3.003  0.2243E+01  0.1034E+02
      3.132  0.4601E+01  0.1121E+02
      3.260  0.2819E+01  0.1179E+02
      3.389  0.3599E+01  0.1249E+02
      3.517  0.3504E+01  0.1313E+02
      3.646  0.1538E+01  0.1347E+02
      3.774  0.1474E+01  0.1382E+02
      3.903  0.6189E+00  0.1400E+02
      4.031  0.1702E+00  0.1403E+02
      4.160  0.1217E+01  0.1430E+02
      4.288  0.3610E+01  0.1497E+02
      4.417  0.6640E+01  0.1616E+02
      4.546  0.5501E+01  0.1713E+02
      4.674  0.2795E+01  0.1793E+02
      4.803  0.2677E+01  0.1852E+02
      4.931  0.1886E+01  0.1899E+02
      5.060  0.1871E+01  0.1931E+02
      5.188  0.1450E+01  0.1955E+02
      5.317  0.7634E+00  0.1967E+02
      5.445  0.1010E+01  0.1980E+02
      5.574  0.7152E+00  0.1994E+02
      5.703  0.5238E+00  0.2005E+02
      5.831  0.1522E+01  0.2029E+02
      5.960  0.9250E+00  0.2048E+02
      6.088  0.4086E+00  0.2060E+02
      6.217  0.1072E+01  0.2076E+02
      6.345  0.1116E+01  0.2101E+02
      6.474  0.6469E+00  0.2116E+02
      6.602  0.9843E+00  0.2143E+02
      6.731  0.1168E+01  0.2169E+02
      6.860  0.3595E+01  0.2244E+02
      6.988  0.1484E+01  0.2273E+02
      7.117  0.1837E+01  0.2308E+02
      7.245  0.1668E+01  0.2343E+02
      7.374  0.9877E+00  0.2364E+02
      7.502  0.6732E+00  0.2379E+02
      7.631  0.6084E+00  0.2389E+02
      7.759  0.1084E+00  0.2394E+02
      7.888  0.4901E-04  0.2397E+02
      8.017  0.2124E-01  0.2400E+02
      8.145  0.0000E+00  0.2400E+02
      8.274  0.0000E+00  0.2400E+02
      8.402  0.0000E+00  0.2400E+02
      8.531  0.0000E+00  0.2400E+02
      8.659  0.0000E+00  0.2400E+02
      8.788  0.0000E+00  0.2400E+02
      8.916  0.0000E+00  0.2400E+02
      9.045  0.4303E-11  0.2400E+02
      9.174  0.2428E+00  0.2404E+02
      9.302  0.5160E+00  0.2413E+02
      9.431  0.6584E+00  0.2426E+02
      9.559  0.9927E+00  0.2445E+02
      9.688  0.1031E+01  0.2465E+02
      9.816  0.1974E+01  0.2495E+02
      9.945  0.1545E+01  0.2527E+02
     10.073  0.2586E+01  0.2584E+02
     10.202  0.9940E+00  0.2617E+02
     10.330  0.1882E+01  0.2645E+02
     10.459  0.2654E+01  0.2698E+02
     10.588  0.3448E+01  0.2752E+02
     10.716  0.2054E+01  0.2818E+02
     10.845  0.2025E+01  0.2860E+02
     10.973  0.2886E+01  0.2902E+02
     11.102  0.2045E+01  0.2963E+02
     11.230  0.7365E+00  0.2987E+02
     11.359  0.1732E+01  0.3009E+02
     11.487  0.1232E+01  0.3036E+02
     11.616  0.1902E+01  0.3066E+02
     11.745  0.2251E+01  0.3109E+02
     11.873  0.1730E+01  0.3142E+02
     12.002  0.1844E+01  0.3175E+02
     12.130  0.3393E+00  0.3187E+02
     12.259  0.7790E+00  0.3197E+02
     12.387  0.0000E+00  0.3199E+02
     12.516  0.0000E+00  0.3199E+02
     12.644  0.1082E-11  0.3199E+02
     12.773  0.0000E+00  0.3200E+02
     12.902  0.0000E+00  0.3200E+02
     13.030  0.0000E+00  0.3200E+02
     13.159  0.0000E+00  0.3200E+02
     13.287  0.0000E+00  0.3200E+02
     13.416  0.0000E+00  0.3200E+02
     13.544  0.0000E+00  0.3200E+02
     13.673  0.0000E+00  0.3200E+02
     13.801  0.0000E+00  0.3200E+02
     13.930  0.0000E+00  0.3200E+02
     14.059  0.0000E+00  0.3200E+02
     14.187  0.0000E+00  0.3200E+02
     14.316  0.0000E+00  0.3200E+02
     14.444  0.0000E+00  0.3200E+02
