    3    3    1    1
  0.2011938E+02  0.4403017E-09  0.4403017E-09  0.4403017E-09  0.5000000E-15
  1.000000000000000E-004
  CAR
 unknown system
     25     84     16

  0.0000000E+00  0.0000000E+00  0.0000000E+00  0.4551661E-03
    1      -22.342980   1.000000
    2      -22.342980   1.000000
    3      -22.342980   1.000000
    4       -3.537445   1.000000
    5        3.329448   1.000000
    6        3.329448   1.000000
    7        3.329448   1.000000
    8        4.141857   1.000000
    9        4.141857   1.000000
   10        7.977119   1.000000
   11        7.977119   1.000000
   12        7.977119   1.000000
   13        9.209062   1.000000
   14       10.757135   0.000000
   15       10.757135   0.000000
   16       10.757135   0.000000

  0.7692308E-01 -0.2522558E-17  0.2902937E-17  0.3641329E-02
    1      -22.344428   1.000000
    2      -22.342865   1.000000
    3      -22.342865   1.000000
    4       -3.466408   1.000000
    5        3.253052   1.000000
    6        3.293036   1.000000
    7        3.293036   1.000000
    8        4.191714   1.000000
    9        4.191714   1.000000
   10        7.462326   1.000000
   11        7.911685   1.000000
   12        7.911685   1.000000
   13        9.349433   1.000000
   14       10.583543   0.000000
   15       10.583543   0.000000
   16       11.201004   0.000000

  0.1538462E+00  0.1606737E-17 -0.8459785E-18  0.3641329E-02
    1      -22.348467   1.000000
    2      -22.342590   1.000000
    3      -22.342590   1.000000
    4       -3.260558   1.000000
    5        3.039405   1.000000
    6        3.217632   1.000000
    7        3.217632   1.000000
    8        4.298969   1.000000
    9        4.298969   1.000000
   10        6.562069   1.000000
   11        7.748473   1.000000
   12        7.748473   1.000000
   13        9.509037   1.000000
   14       10.470773   0.000000
   15       10.470773   0.000000
   16       11.999539   0.000000

  0.2307692E+00  0.6809963E-17 -0.5668825E-17  0.3641329E-02
    1      -22.354091   1.000000
    2      -22.342197   1.000000
    3      -22.342197   1.000000
    4       -2.943093   1.000000
    5        2.721487   1.000000
    6        3.151321   1.000000
    7        3.151321   1.000000
    8        4.394491   1.000000
    9        4.394491   1.000000
   10        5.720152   1.000000
   11        7.560949   1.000000
   12        7.560949   1.000000
   13        9.643699   1.000000
   14       10.493600   0.000000
   15       10.493600   0.000000
   16       12.691185   0.000000

  0.3076923E+00  0.3213474E-17 -0.1691957E-17  0.3641329E-02
    1      -22.359978   1.000000
    2      -22.341784   1.000000
    3      -22.341784   1.000000
    4       -2.558198   1.000000
    5        2.337372   1.000000
    6        3.115299   1.000000
    7        3.115299   1.000000
    8        4.437458   1.000000
    9        4.437458   1.000000
   10        5.070002   1.000000
   11        7.413144   1.000000
   12        7.413144   1.000000
   13        9.769514   1.000000
   14       10.621039   0.000000
   15       10.621039   0.000000
   16       12.214147   0.000000

  0.3846154E+00 -0.3014066E-16  0.1043899E-16  0.3641329E-02
    1      -22.364788   1.000000
    2      -22.341442   1.000000
    3      -22.341442   1.000000
    4       -2.182014   1.000000
    5        1.954339   1.000000
    6        3.107625   1.000000
    7        3.107625   1.000000
    8        4.429602   1.000000
    9        4.429602   1.000000
   10        4.652783   1.000000
   11        7.328579   1.000000
   12        7.328579   1.000000
   13        9.897865   0.000000
   14       10.802214   0.000000
   15       10.802214   0.000000
   16       11.422427   0.000000

  0.4615385E+00  0.7896213E-17 -0.5613937E-17  0.3641329E-02
    1      -22.367488   1.000000
    2      -22.341251   1.000000
    3      -22.341251   1.000000
    4       -1.933520   1.000000
    5        1.697269   1.000000
    6        3.112060   1.000000
    7        3.112060   1.000000
    8        4.407493   1.000000
    9        4.407493   1.000000
   10        4.456079   1.000000
   11        7.295246   1.000000
   12        7.295246   1.000000
   13       10.019211   0.000000
   14       10.928949   0.000000
   15       10.946843   0.000000
   16       10.946843   0.000000

  0.7692308E-01  0.7692308E-01  0.3547120E-17  0.2730997E-02
    1      -22.344398   1.000000
    2      -22.343103   1.000000
    3      -22.343103   1.000000
    4       -3.443126   1.000000
    5        3.091260   1.000000
    6        3.362241   1.000000
    7        3.362241   1.000000
    8        4.177700   1.000000
    9        4.216687   1.000000
   10        7.523928   1.000000
   11        7.775454   1.000000
   12        7.775454   1.000000
   13        9.379861   1.000000
   14       10.484135   0.000000
   15       11.001244   0.000000
   16       11.056429   0.000000

  0.1538462E+00  0.7692308E-01  0.9351630E-17  0.1092399E-01
    1      -22.347378   1.000000
    2      -22.343113   1.000000
    3      -22.342855   1.000000
    4       -3.283481   1.000000
    5        2.871256   1.000000
    6        3.334638   1.000000
    7        3.359627   1.000000
    8        4.252551   1.000000
    9        4.288229   1.000000
   10        6.833258   1.000000
   11        7.580696   1.000000
   12        7.666964   1.000000
   13        9.559389   1.000000
   14       10.327309   0.000000
   15       10.746270   0.000000
   16       11.594042   0.000000

  0.2307692E+00  0.7692308E-01 -0.3161222E-17  0.1092399E-01
    1      -22.352376   1.000000
    2      -22.342913   1.000000
    3      -22.342473   1.000000
    4       -3.005435   1.000000
    5        2.629346   1.000000
    6        3.227313   1.000000
    7        3.317452   1.000000
    8        4.353827   1.000000
    9        4.377121   1.000000
   10        6.001163   1.000000
   11        7.400213   1.000000
   12        7.500015   1.000000
   13        9.801139   0.999832
   14       10.300829   0.000000
   15       10.612849   0.000000
   16       12.206298   0.000000

  0.3076923E+00  0.7692308E-01  0.6967650E-17  0.1092399E-01
    1      -22.358047   1.000000
    2      -22.342549   1.000000
    3      -22.342200   1.000000
    4       -2.646006   1.000000
    5        2.350433   1.000000
    6        3.120014   1.000000
    7        3.271718   1.000000
    8        4.416020   1.000000
    9        4.439251   1.000000
   10        5.293065   1.000000
   11        7.280308   1.000000
   12        7.328707   1.000000
   13        9.863078   0.000000
   14       10.567322   0.000000
   15       10.614579   0.000000
   16       12.304741   0.000000

  0.3846154E+00  0.7692308E-01  0.5220805E-17  0.1092399E-01
    1      -22.363066   1.000000
    2      -22.342086   1.000000
    3      -22.342082   1.000000
    4       -2.269271   1.000000
    5        2.042011   1.000000
    6        3.065019   1.000000
    7        3.230320   1.000000
    8        4.426874   1.000000
    9        4.450006   1.000000
   10        4.798322   1.000000
   11        7.205133   1.000000
   12        7.227642   1.000000
   13        9.894982   0.000000
   14       10.734037   0.000000
   15       10.875893   0.000000
   16       11.613996   0.000000

  0.4615385E+00  0.7692308E-01  0.1077145E-16  0.1092399E-01
    1      -22.366351   1.000000
    2      -22.342164   1.000000
    3      -22.341643   1.000000
    4       -1.976840   1.000000
    5        1.785060   1.000000
    6        3.068782   1.000000
    7        3.183016   1.000000
    8        4.411993   1.000000
    9        4.421870   1.000000
   10        4.541733   1.000000
   11        7.136031   1.000000
   12        7.219384   1.000000
   13        9.990456   0.000000
   14       10.808758   0.000000
   15       10.901300   0.000000
   16       11.323822   0.000000

 -0.4615385E+00  0.7692308E-01  0.1269976E-16  0.1092399E-01
    1      -22.367202   1.000000
    2      -22.342406   1.000000
    3      -22.341326   1.000000
    4       -1.890385   1.000000
    5        1.707867   1.000000
    6        3.113871   1.000000
    7        3.122449   1.000000
    8        4.373471   1.000000
    9        4.437789   1.000000
   10        4.489696   1.000000
   11        7.098805   1.000000
   12        7.237798   1.000000
   13       10.079905   0.000000
   14       10.610071   0.000000
   15       10.978977   0.000000
   16       11.371170   0.000000

 -0.3846154E+00  0.7692308E-01  0.1209841E-16  0.1092399E-01
    1      -22.365437   1.000000
    2      -22.342742   1.000000
    3      -22.341192   1.000000
    4       -2.056450   1.000000
    5        1.863562   1.000000
    6        3.060416   1.000000
    7        3.180716   1.000000
    8        4.382587   1.000000
    9        4.472980   1.000000
   10        4.607097   1.000000
   11        7.072020   1.000000
   12        7.290656   1.000000
   13       10.001221   0.000000
   14       10.830911   0.000000
   15       10.879939   0.000000
   16       11.365622   0.000000

 -0.3076923E+00  0.7692308E-01 -0.3526224E-17  0.1092399E-01
    1      -22.361451   1.000000
    2      -22.343100   1.000000
    3      -22.341283   1.000000
    4       -2.390499   1.000000
    5        2.167116   1.000000
    6        3.021442   1.000000
    7        3.257224   1.000000
    8        4.392396   1.000000
    9        4.493219   1.000000
   10        4.943920   1.000000
   11        7.062166   1.000000
   12        7.400861   1.000000
   13        9.949154   0.000000
   14       10.671573   0.000000
   15       10.795036   0.000000
   16       11.853541   0.000000

 -0.2307692E+00  0.7692308E-01 -0.1342714E-16  0.1092399E-01
    1      -22.356111   1.000000
    2      -22.343374   1.000000
    3      -22.341581   1.000000
    4       -2.770881   1.000000
    5        2.503855   1.000000
    6        3.026198   1.000000
    7        3.334953   1.000000
    8        4.368034   1.000000
    9        4.466026   1.000000
   10        5.510551   1.000000
   11        7.106190   1.000000
   12        7.575952   1.000000
   13        9.940479   0.000000
   14       10.456398   0.000000
   15       10.616769   0.000000
   16       12.195492   0.000000

 -0.1538462E+00  0.7692308E-01  0.6429584E-17  0.1092399E-01
    1      -22.350644   1.000000
    2      -22.343478   1.000000
    3      -22.342005   1.000000
    4       -3.108966   1.000000
    5        2.812473   1.000000
    6        3.082598   1.000000
    7        3.394361   1.000000
    8        4.297366   1.000000
    9        4.386660   1.000000
   10        6.260842   1.000000
   11        7.247256   1.000000
   12        7.777157   1.000000
   13        9.821557   0.757654
   14       10.316583   0.000000
   15       10.604716   0.000000
   16       11.670606   0.000000

 -0.7692308E-01  0.7692308E-01  0.5756670E-17  0.5461994E-02
    1      -22.346415   1.000000
    2      -22.343293   1.000000
    3      -22.342474   1.000000
    4       -3.350839   1.000000
    5        3.071618   1.000000
    6        3.181917   1.000000
    7        3.389921   1.000000
    8        4.220994   1.000000
    9        4.279944   1.000000
   10        7.020288   1.000000
   11        7.538761   1.000000
   12        7.915705   1.000000
   13        9.547792   1.000000
   14       10.337571   0.000000
   15       10.759035   0.000000
   16       11.197125   0.000000

  0.1538462E+00  0.1538462E+00  0.7094239E-17  0.2730997E-02
    1      -22.348401   1.000000
    2      -22.343472   1.000000
    3      -22.343472   1.000000
    4       -3.175161   1.000000
    5        2.606861   1.000000
    6        3.454419   1.000000
    7        3.454419   1.000000
    8        4.272298   1.000000
    9        4.280571   1.000000
   10        6.799100   1.000000
   11        7.361645   1.000000
   12        7.361645   1.000000
   13        9.438105   1.000000
   14       10.432987   0.000000
   15       10.797040   0.000000
   16       11.704042   0.000000

  0.2307692E+00  0.1538462E+00  0.1057646E-16  0.1092399E-01
    1      -22.352068   1.000000
    2      -22.343570   1.000000
    3      -22.343463   1.000000
    4       -2.949212   1.000000
    5        2.368769   1.000000
    6        3.442713   1.000000
    7        3.479230   1.000000
    8        4.298366   1.000000
    9        4.366221   1.000000
   10        6.235612   1.000000
   11        7.171685   1.000000
   12        7.188147   1.000000
   13        9.592384   1.000000
   14       10.435982   0.000000
   15       10.636650   0.000000
   16       12.081923   0.000000

  0.3076923E+00  0.1538462E+00  0.3751540E-17  0.1092399E-01
    1      -22.356832   1.000000
    2      -22.343514   1.000000
    3      -22.343378   1.000000
    4       -2.637398   1.000000
    5        2.170972   1.000000
    6        3.325462   1.000000
    7        3.457515   1.000000
    8        4.364461   1.000000
    9        4.441315   1.000000
   10        5.561766   1.000000
   11        7.006750   1.000000
   12        7.059539   1.000000
   13        9.789671   1.000000
   14       10.549719   0.000000
   15       10.646895   0.000000
   16       12.209827   0.000000

  0.3846154E+00  0.1538462E+00 -0.4147309E-17  0.1092399E-01
    1      -22.361309   1.000000
    2      -22.343892   1.000000
    3      -22.342964   1.000000
    4       -2.294412   1.000000
    5        2.011490   1.000000
    6        3.181036   1.000000
    7        3.406432   1.000000
    8        4.419113   1.000000
    9        4.470862   1.000000
   10        5.004390   1.000000
   11        6.848165   1.000000
   12        7.027165   1.000000
   13        9.808586   0.994348
   14       10.611490   0.000000
   15       11.115637   0.000000
   16       11.692216   0.000000

  0.4615385E+00  0.1538462E+00 -0.6322444E-17  0.1092399E-01
    1      -22.364455   1.000000
    2      -22.344533   1.000000
    3      -22.342407   1.000000
    4       -2.002373   1.000000
    5        1.890181   1.000000
    6        3.079450   1.000000
    7        3.323719   1.000000
    8        4.405795   1.000000
    9        4.481489   1.000000
   10        4.679478   1.000000
   11        6.737557   1.000000
   12        7.039026   1.000000
   13        9.846904   0.001952
   14       10.803481   0.000000
   15       10.979304   0.000000
   16       11.635448   0.000000

 -0.4615385E+00  0.1538462E+00  0.4905431E-17  0.1092399E-01
    1      -22.365643   1.000000
    2      -22.345268   1.000000
    3      -22.341844   1.000000
    4       -1.859878   1.000000
    5        1.835218   1.000000
    6        3.068340   1.000000
    7        3.212198   1.000000
    8        4.327748   1.000000
    9        4.508206   1.000000
   10        4.614453   1.000000
   11        6.661517   1.000000
   12        7.070228   1.000000
   13        9.991830   0.000000
   14       10.559868   0.000000
   15       10.990171   0.000000
   16       11.901973   0.000000

 -0.3846154E+00  0.1538462E+00  0.1156515E-17  0.1092399E-01
    1      -22.364670   1.000000
    2      -22.345860   1.000000
    3      -22.341389   1.000000
    4       -1.929264   1.000000
    5        1.887691   1.000000
    6        3.095405   1.000000
    7        3.155469   1.000000
    8        4.320601   1.000000
    9        4.547796   1.000000
   10        4.688293   1.000000
   11        6.587924   1.000000
   12        7.132536   1.000000
   13       10.085453   0.000000
   14       10.606497   0.000000
   15       10.985927   0.000000
   16       11.868656   0.000000

 -0.3076923E+00  0.1538462E+00  0.7135454E-17  0.1092399E-01
    1      -22.361851   1.000000
    2      -22.346088   1.000000
    3      -22.341150   1.000000
    4       -2.179692   1.000000
    5        2.044345   1.000000
    6        3.005457   1.000000
    7        3.302803   1.000000
    8        4.348794   1.000000
    9        4.569023   1.000000
   10        4.934516   1.000000
   11        6.510738   1.000000
   12        7.253939   1.000000
   13       10.103365   0.000000
   14       10.803835   0.000000
   15       11.045219   0.000000
   16       11.694822   0.000000

 -0.2307692E+00  0.1538462E+00 -0.8917469E-17  0.1092399E-01
    1      -22.357919   1.000000
    2      -22.345767   1.000000
    3      -22.341196   1.000000
    4       -2.516632   1.000000
    5        2.269432   1.000000
    6        2.967294   1.000000
    7        3.438758   1.000000
    8        4.346775   1.000000
    9        4.546364   1.000000
   10        5.380885   1.000000
   11        6.491829   1.000000
   12        7.440431   1.000000
   13       10.241104   0.000000
   14       10.565528   0.000000
   15       10.956169   0.000000
   16       11.810708   0.000000

 -0.1538462E+00  0.1538462E+00  0.3213474E-17  0.5461994E-02
    1      -22.353880   1.000000
    2      -22.344807   1.000000
    3      -22.341500   1.000000
    4       -2.847944   1.000000
    5        2.534024   1.000000
    6        2.993391   1.000000
    7        3.486734   1.000000
    8        4.315670   1.000000
    9        4.479015   1.000000
   10        5.895428   1.000000
   11        6.691413   1.000000
   12        7.646829   1.000000
   13       10.329974   0.000000
   14       10.370103   0.000000
   15       10.575213   0.000000
   16       11.618592   0.000000

  0.2307692E+00  0.2307692E+00  0.1064136E-16  0.2730997E-02
    1      -22.354152   1.000000
    2      -22.343988   1.000000
    3      -22.343988   1.000000
    4       -2.783507   1.000000
    5        2.137974   1.000000
    6        3.586927   1.000000
    7        3.586927   1.000000
    8        4.205036   1.000000
    9        4.435641   1.000000
   10        6.138801   1.000000
   11        6.961216   1.000000
   12        6.961216   1.000000
   13        9.350552   1.000000
   14       10.507466   0.000000
   15       10.593417   0.000000
   16       12.217028   0.000000

  0.3076923E+00  0.2307692E+00  0.1087315E-16  0.1092399E-01
    1      -22.357722   1.000000
    2      -22.344355   1.000000
    3      -22.344113   1.000000
    4       -2.535717   1.000000
    5        1.981785   1.000000
    6        3.560495   1.000000
    7        3.623793   1.000000
    8        4.211147   1.000000
    9        4.517428   1.000000
   10        5.699398   1.000000
   11        6.763028   1.000000
   12        6.831206   1.000000
   13        9.439897   1.000000
   14       10.378574   0.000000
   15       10.758419   0.000000
   16       12.219354   0.000000

  0.3846154E+00  0.2307692E+00  0.4512299E-17  0.1092399E-01
    1      -22.361148   1.000000
    2      -22.345221   1.000000
    3      -22.343883   1.000000
    4       -2.252731   1.000000
    5        1.918537   1.000000
    6        3.396724   1.000000
    7        3.597045   1.000000
    8        4.312387   1.000000
    9        4.562380   1.000000
   10        5.181947   1.000000
   11        6.531295   1.000000
   12        6.795991   1.000000
   13        9.560755   1.000000
   14       10.387921   0.000000
   15       11.184878   0.000000
   16       11.793697   0.000000

  0.4615385E+00  0.2307692E+00  0.2337164E-17  0.1092399E-01
    1      -22.363384   1.000000
    2      -22.346679   1.000000
    3      -22.343364   1.000000
    4       -1.998799   1.000000
    5        1.946375   1.000000
    6        3.206512   1.000000
    7        3.507785   1.000000
    8        4.369412   1.000000
    9        4.581914   1.000000
   10        4.804576   1.000000
   11        6.326730   1.000000
   12        6.815255   1.000000
   13        9.614597   1.000000
   14       10.592336   0.000000
   15       11.193789   0.000000
   16       11.741045   0.000000

 -0.4615385E+00  0.2307692E+00  0.1199126E-16  0.1092399E-01
    1      -22.363958   1.000000
    2      -22.348405   1.000000
    3      -22.342687   1.000000
    4       -1.842948   1.000000
    5        2.021928   1.000000
    6        3.062032   1.000000
    7        3.366250   1.000000
    8        4.262163   1.000000
    9        4.608725   1.000000
   10        4.761245   1.000000
   11        6.173192   1.000000
   12        6.852275   1.000000
   13        9.727275   1.000000
   14       10.726312   0.000000
   15       10.922963   0.000000
   16       11.965247   0.000000

 -0.3846154E+00  0.2307692E+00 -0.1636567E-16  0.1092399E-01
    1      -22.362991   1.000000
    2      -22.349763   1.000000
    3      -22.341989   1.000000
    4       -1.834381   1.000000
    5        2.058736   1.000000
    6        3.054344   1.000000
    7        3.206370   1.000000
    8        4.217960   1.000000
    9        4.639479   1.000000
   10        4.867876   1.000000
   11        6.059785   1.000000
   12        6.917978   1.000000
   13        9.937108   0.000000
   14       10.525215   0.000000
   15       11.096937   0.000000
   16       11.874576   0.000000

 -0.3076923E+00  0.2307692E+00  0.1917274E-17  0.1092399E-01
    1      -22.361203   1.000000
    2      -22.349937   1.000000
    3      -22.341429   1.000000
    4       -1.978088   1.000000
    5        2.056386   1.000000
    6        3.068469   1.000000
    7        3.196502   1.000000
    8        4.278923   1.000000
    9        4.646611   1.000000
   10        5.043347   1.000000
   11        5.987446   1.000000
   12        7.043656   1.000000
   13       10.080643   0.000000
   14       10.808675   0.000000
   15       10.985025   0.000000
   16       11.770796   0.000000

 -0.2307692E+00  0.2307692E+00  0.1361993E-16  0.5461994E-02
    1      -22.359486   1.000000
    2      -22.348402   1.000000
    3      -22.341146   1.000000
    4       -2.229500   1.000000
    5        2.112614   1.000000
    6        2.982997   1.000000
    7        3.367680   1.000000
    8        4.333985   1.000000
    9        4.613300   1.000000
   10        5.251800   1.000000
   11        6.073173   1.000000
   12        7.233422   1.000000
   13       10.185420   0.000000
   14       10.769726   0.000000
   15       11.387322   0.000000
   16       11.663166   0.000000

  0.3076923E+00  0.3076923E+00  0.1418848E-16  0.2730997E-02
    1      -22.360414   1.000000
    2      -22.344560   1.000000
    3      -22.344560   1.000000
    4       -2.363120   1.000000
    5        1.869208   1.000000
    6        3.728610   1.000000
    7        3.728610   1.000000
    8        4.048218   1.000000
    9        4.615865   1.000000
   10        5.507204   1.000000
   11        6.666961   1.000000
   12        6.666961   1.000000
   13        9.239454   1.000000
   14       10.185612   0.000000
   15       10.837421   0.000000
   16       12.157803   0.000000

  0.3846154E+00  0.3076923E+00  0.1363598E-16  0.1092399E-01
    1      -22.363162   1.000000
    2      -22.345213   1.000000
    3      -22.344630   1.000000
    4       -2.158133   1.000000
    5        1.868165   1.000000
    6        3.627585   1.000000
    7        3.754945   1.000000
    8        4.120490   1.000000
    9        4.682380   1.000000
   10        5.123449   1.000000
   11        6.471174   1.000000
   12        6.603379   1.000000
   13        9.281566   1.000000
   14       10.108819   0.000000
   15       11.078832   0.000000
   16       11.854615   0.000000

  0.4615385E+00  0.3076923E+00  0.3152641E-16  0.1092399E-01
    1      -22.364626   1.000000
    2      -22.346867   1.000000
    3      -22.344313   1.000000
    4       -1.968048   1.000000
    5        1.982995   1.000000
    6        3.407871   1.000000
    7        3.695140   1.000000
    8        4.267267   1.000000
    9        4.707211   1.000000
   10        4.764146   1.000000
   11        6.172138   1.000000
   12        6.612785   1.000000
   13        9.364969   1.000000
   14       10.256522   0.000000
   15       11.316500   0.000000
   16       11.698799   0.000000

 -0.4615385E+00  0.3076923E+00  0.1650093E-16  0.1092399E-01
    1      -22.364259   1.000000
    2      -22.349375   1.000000
    3      -22.343668   1.000000
    4       -1.835482   1.000000
    5        2.169884   1.000000
    6        3.182780   1.000000
    7        3.555944   1.000000
    8        4.166762   1.000000
    9        4.721231   1.000000
   10        4.776998   1.000000
   11        5.880700   1.000000
   12        6.649154   1.000000
   13        9.465654   1.000000
   14       10.656030   0.000000
   15       10.910533   0.000000
   16       11.673028   0.000000

 -0.3846154E+00  0.3076923E+00 -0.1185600E-16  0.1092399E-01
    1      -22.362365   1.000000
    2      -22.351977   1.000000
    3      -22.342848   1.000000
    4       -1.787934   1.000000
    5        2.294199   1.000000
    6        3.000050   1.000000
    7        3.374630   1.000000
    8        4.082910   1.000000
    9        4.727159   1.000000
   10        5.007384   1.000000
   11        5.655903   1.000000
   12        6.717537   1.000000
   13        9.655107   1.000000
   14       10.617643   0.000000
   15       11.149239   0.000000
   16       11.638667   0.000000

 -0.3076923E+00  0.3076923E+00  0.6426948E-17  0.5461994E-02
    1      -22.360723   1.000000
    2      -22.352709   1.000000
    3      -22.342033   1.000000
    4       -1.837277   1.000000
    5        2.195745   1.000000
    6        3.037727   1.000000
    7        3.199460   1.000000
    8        4.161747   1.000000
    9        4.704350   1.000000
   10        5.151126   1.000000
   11        5.634235   1.000000
   12        6.848967   1.000000
   13        9.913349   0.000000
   14       10.560355   0.000000
   15       11.160731   0.000000
   16       11.615062   0.000000

  0.3846154E+00  0.3846154E+00  0.1773560E-16  0.2730997E-02
    1      -22.365708   1.000000
    2      -22.345039   1.000000
    3      -22.345039   1.000000
    4       -2.037966   1.000000
    5        1.912573   1.000000
    6        3.843537   1.000000
    7        3.843537   1.000000
    8        3.894532   1.000000
    9        4.780659   1.000000
   10        4.828184   1.000000
   11        6.499326   1.000000
   12        6.499326   1.000000
   13        9.145031   1.000000
   14        9.904405   0.000000
   15       10.984199   0.000000
   16       11.779215   0.000000

  0.4615385E+00  0.3846154E+00  0.1704445E-16  0.1092399E-01
    1      -22.367102   1.000000
    2      -22.345833   1.000000
    3      -22.345012   1.000000
    4       -1.923111   1.000000
    5        2.053722   1.000000
    6        3.633808   1.000000
    7        3.840561   1.000000
    8        4.091621   1.000000
    9        4.495776   1.000000
   10        4.820994   1.000000
   11        6.323929   1.000000
   12        6.481564   1.000000
   13        9.170223   1.000000
   14        9.913460   0.000000
   15       11.135932   0.000000
   16       11.559675   0.000000

 -0.4615385E+00  0.3846154E+00 -0.1021256E-17  0.1092399E-01
    1      -22.366588   1.000000
    2      -22.347850   1.000000
    3      -22.344557   1.000000
    4       -1.836736   1.000000
    5        2.239128   1.000000
    6        3.415359   1.000000
    7        3.739696   1.000000
    8        4.055800   1.000000
    9        4.520462   1.000000
   10        4.819222   1.000000
   11        5.996793   1.000000
   12        6.509085   1.000000
   13        9.260080   1.000000
   14       10.207455   0.000000
   15       11.075855   0.000000
   16       11.494587   0.000000

 -0.3846154E+00  0.3846154E+00 -0.1707418E-16  0.5461994E-02
    1      -22.364418   1.000000
    2      -22.350520   1.000000
    3      -22.343769   1.000000
    4       -1.790111   1.000000
    5        2.366338   1.000000
    6        3.156725   1.000000
    7        3.567798   1.000000
    8        3.984097   1.000000
    9        4.789537   1.000000
   10        4.826504   1.000000
   11        5.690757   1.000000
   12        6.579233   1.000000
   13        9.414993   1.000000
   14       10.741365   0.000000
   15       10.811186   0.000000
   16       11.414115   0.000000

  0.4615385E+00  0.4615385E+00  0.2128272E-16  0.2730997E-02
    1      -22.368741   1.000000
    2      -22.345313   1.000000
    3      -22.345313   1.000000
    4       -1.880205   1.000000
    5        2.157454   1.000000
    6        3.855644   1.000000
    7        3.905687   1.000000
    8        3.905687   1.000000
    9        4.205512   1.000000
   10        4.881383   1.000000
   11        6.433828   1.000000
   12        6.433828   1.000000
   13        9.089921   1.000000
   14        9.738350   1.000000
   15       10.928071   0.000000
   16       11.503128   0.000000

 -0.4615385E+00  0.4615385E+00  0.1579243E-16  0.5461994E-02
    1      -22.368542   1.000000
    2      -22.346054   1.000000
    3      -22.345149   1.000000
    4       -1.850507   1.000000
    5        2.235396   1.000000
    6        3.666989   1.000000
    7        3.869137   1.000000
    8        4.012763   1.000000
    9        4.199442   1.000000
   10        4.877406   1.000000
   11        6.283431   1.000000
   12        6.443993   1.000000
   13        9.130773   1.000000
   14        9.843629   0.007703
   15       11.059493   0.000000
   16       11.444177   0.000000

  0.2307692E+00  0.1538462E+00  0.7692308E-01  0.1092399E-01
    1      -22.350330   1.000000
    2      -22.343823   1.000000
    3      -22.342459   1.000000
    4       -3.089251   1.000000
    5        2.624518   1.000000
    6        3.249496   1.000000
    7        3.465314   1.000000
    8        4.288264   1.000000
    9        4.364348   1.000000
   10        6.404307   1.000000
   11        7.109341   1.000000
   12        7.621507   1.000000
   13        9.794741   0.999996
   14       10.295328   0.000000
   15       10.693065   0.000000
   16       11.635082   0.000000

  0.3076923E+00  0.1538462E+00  0.7692308E-01  0.2184797E-01
    1      -22.354793   1.000000
    2      -22.344320   1.000000
    3      -22.342020   1.000000
    4       -2.792972   1.000000
    5        2.386306   1.000000
    6        3.148809   1.000000
    7        3.465607   1.000000
    8        4.341285   1.000000