 vasp.6.0.8 29Jun18 (build Jun 13 2019 12:54:44) complex

 executed on      IFC18_CrayMPICH date 2021.12.05  14:21:49
 running   64 mpi-ranks, with    1 threads/rank
 distrk:  each k-point on   16 cores,    4 groups
 distr:  one band on NCORES_PER_BAND=   4 cores,    4 groups


--------------------------------------------------------------------------------------------------------


 INCAR:
 POTCAR:    PAW_PBE Hf_pv 06Sep2000
 POTCAR:    PAW_PBE Sb 06Sep2000
 POTCAR:    PAW_PBE Pt 04Feb2005
 POTCAR:    PAW_PBE Hf_pv 06Sep2000
   VRHFIN =Hf: 5p6s5d
   LEXCH  = PE
   EATOM  =   860.9206 eV,   63.2759 Ry

   TITEL  = PAW_PBE Hf_pv 06Sep2000
   LULTRA =        F    use ultrasoft PP ?
   IUNSCR =        1    unscreen: 0-lin 1-nonlin 2-no
   RPACOR =    2.500    partial core radius
   POMASS =  178.490; ZVAL   =   10.000    mass and valenz
   RCORE  =    2.600    outmost cutoff radius
   RWIGS  =    3.050; RWIGS  =    1.614    wigner-seitz radius (au A)
   ENMAX  =  220.334; ENMIN  =  165.250 eV
   RCLOC  =    2.212    cutoff for local pot
   LCOR   =        T    correct aug charges
   LPAW   =        T    paw PP
   EAUG   =  380.878
   DEXC   =    0.000
   RMAX   =    2.665    core radius for proj-oper
   RAUG   =    1.300    factor for augmentation sphere
   RDEP   =    2.681    radius for radial grids
   RDEPT  =    2.139    core radius for aug-charge

   Atomic configuration
   15 entries
     n  l   j            E        occ.
     1  0  0.50    -65259.4397   2.0000
     2  0  0.50    -11157.9884   2.0000
     2  1  1.50     -9795.2114   6.0000
     3  0  0.50     -2541.4060   2.0000
     3  1  1.50     -2134.4772   6.0000
     3  2  2.50     -1653.5420  10.0000
     4  0  0.50      -510.9577   2.0000
     4  1  1.50      -377.5024   6.0000
     4  2  2.50      -205.2086  10.0000
     4  3  3.50       -15.4906  14.0000
     5  0  0.50       -65.6020   2.0000
     5  1  1.50       -34.2798   6.0000
     5  2  2.50        -1.9877   3.0000
     6  0  0.50        -4.7357   1.0000
     5  3  2.50        -1.3606   0.0000
   Description
     l       E           TYP  RCUT    TYP  RCUT
     1    -34.2797769     23  2.500
     1    -35.6403595     23  2.500
     2     -1.9876655     23  2.500
     2      0.0744675     23  2.500
     0     -4.7356889     23  2.600
     0      3.2364748     23  2.600
  local pseudopotential read in
  partial core-charges read in
  partial kinetic energy density read in
  atomic valenz-charges read in
  non local Contribution for L=           1  read in
    real space projection operators read in
  non local Contribution for L=           1  read in
    real space projection operators read in
  non local Contribution for L=           2  read in
    real space projection operators read in
  non local Contribution for L=           2  read in
    real space projection operators read in
  non local Contribution for L=           0  read in
    real space projection operators read in
  non local Contribution for L=           0  read in
    real space projection operators read in
    PAW grid and wavefunctions read in

   number of l-projection  operators is LMAX  =           6
   number of lm-projection operators is LMMAX =          18

 POTCAR:    PAW_PBE Sb 06Sep2000
   VRHFIN =Sb: s2p3
   LEXCH  = PE
   EATOM  =   149.9515 eV,   11.0211 Ry

   TITEL  = PAW_PBE Sb 06Sep2000
   LULTRA =        F    use ultrasoft PP ?
   IUNSCR =        1    unscreen: 0-lin 1-nonlin 2-no
   RPACOR =    2.200    partial core radius
   POMASS =  121.750; ZVAL   =    5.000    mass and valenz
   RCORE  =    2.300    outmost cutoff radius
   RWIGS  =    2.980; RWIGS  =    1.577    wigner-seitz radius (au A)
   ENMAX  =  172.069; ENMIN  =  129.052 eV
   ICORE  =        3    local potential
   LCOR   =        T    correct aug charges
   LPAW   =        T    paw PP
   EAUG   =  380.513
   DEXC   =    0.000
   RMAX   =    2.346    core radius for proj-oper
   RAUG   =    1.300    factor for augmentation sphere
   RDEP   =    2.360    radius for radial grids
   RDEPT  =    2.192    core radius for aug-charge

   Atomic configuration
   13 entries
     n  l   j            E        occ.
     1  0  0.50    -30298.2797   2.0000
     2  0  0.50     -4610.2252   2.0000
     2  1  1.50     -4138.3407   6.0000
     3  0  0.50      -903.8815   2.0000
     3  1  1.50      -750.1337   6.0000
     3  2  2.50      -515.7092  10.0000
     4  0  0.50      -148.8034   2.0000
     4  1  1.50      -101.7581   6.0000
     4  2  2.50       -33.5048  10.0000
     5  0  0.50       -12.8298   2.0000
     5  1  0.50        -4.8276   3.0000
     5  2  1.50        -4.0817   0.0000
     4  3  2.50        -4.0817   0.0000
   Description
     l       E           TYP  RCUT    TYP  RCUT
     0    -12.8297861     23  2.300
     0     13.6058260     23  2.300
     1     -4.8275512     23  2.300
     1     -0.7245443     23  2.300
     2     -4.0817478     23  2.300
     3     -1.3605826     23  2.300
  local pseudopotential read in
  partial core-charges read in
  partial kinetic energy density read in
  atomic valenz-charges read in
  non local Contribution for L=           0  read in
    real space projection operators read in
  non local Contribution for L=           0  read in
    real space projection operators read in
  non local Contribution for L=           1  read in
    real space projection operators read in
  non local Contribution for L=           1  read in
    real space projection operators read in
  non local Contribution for L=           2  read in
    real space projection operators read in
    PAW grid and wavefunctions read in

   number of l-projection  operators is LMAX  =           5
   number of lm-projection operators is LMMAX =          13

 POTCAR:    PAW_PBE Pt 04Feb2005
   VRHFIN =Pt: s1d9
   LEXCH  = PE
   EATOM  =   729.1176 eV,   53.5886 Ry

   TITEL  = PAW_PBE Pt 04Feb2005
   LULTRA =        F    use ultrasoft PP ?
   IUNSCR =        1    unscreen: 0-lin 1-nonlin 2-no
   RPACOR =    2.330    partial core radius
   POMASS =  195.080; ZVAL   =   10.000    mass and valenz
   RCORE  =    2.600    outmost cutoff radius
   RWIGS  =    2.750; RWIGS  =    1.455    wigner-seitz radius (au A)
   ENMAX  =  230.283; ENMIN  =  172.712 eV
   ICORE  =        3    local potential
   LCOR   =        T    correct aug charges
   LPAW   =        T    paw PP
   EAUG   =  358.966
   DEXC   =    0.000
   RMAX   =    2.658    core radius for proj-oper
   RAUG   =    1.300    factor for augmentation sphere
   RDEP   =    2.761    radius for radial grids
   RDEPT  =    2.203    core radius for aug-charge

   Atomic configuration
   16 entries
     n  l   j            E        occ.
     1  0  0.50    -78401.1885   2.0000
     2  0  0.50    -13770.7750   2.0000
     2  1  1.50    -11931.0468   6.0000
     3  0  0.50     -3234.7234   2.0000
     3  1  1.50     -2699.2216   6.0000
     3  2  2.50     -2119.5714  10.0000
     4  0  0.50      -695.1528   2.0000
     4  1  1.50      -519.6034   6.0000
     4  2  2.50      -306.6786  10.0000
     4  3  3.50       -70.1041  14.0000
     5  0  0.50      -101.7747   2.0000
     5  1  1.50       -55.9873   6.0000
     5  2  2.50        -6.1423   9.0000
     6  0  0.50        -5.6573   1.0000
     6  1  1.50        -6.8029   0.0000
     5  3  2.50        -1.3606   0.0000
   Description
     l       E           TYP  RCUT    TYP  RCUT
     2     -6.1423404     23  2.500
     2     -7.5029230     23  2.500
     0     -5.6573207     23  2.500
     0      0.7416693     23  2.500
     1     -2.7211652     23  2.600
     1     20.4087390     23  2.600
     3     -1.3605826     23  2.500
  local pseudopotential read in
  partial core-charges read in
  partial kinetic energy density read in
  atomic valenz-charges read in
  non local Contribution for L=           2  read in
    real space projection operators read in
  non local Contribution for L=           2  read in
    real space projection operators read in
  non local Contribution for L=           0  read in
    real space projection operators read in
  non local Contribution for L=           0  read in
    real space projection operators read in
  non local Contribution for L=           1  read in
    real space projection operators read in
  non local Contribution for L=           1  read in
    real space projection operators read in
    PAW grid and wavefunctions read in

   number of l-projection  operators is LMAX  =           6
   number of lm-projection operators is LMMAX =          18


 -----------------------------------------------------------------------------
|                                                                             |
|  ADVICE TO THIS USER RUNNING 'VASP/VAMP'   (HEAR YOUR MASTER'S VOICE ...):  |
|                                                                             |
|      You enforced a specific xc-type in the INCAR file,                     |
|      a different type was found on the POTCAR file                          |
|          I HOPE YOU KNOW, WHAT YOU ARE  DOING                               |
|                                                                             |
 -----------------------------------------------------------------------------

  PAW_PBE Hf_pv 06Sep2000               :
 energy of atom  1       EATOM= -860.9206
 kinetic energy error for atom=    0.0004 (will be added to EATOM!!)
  PAW_PBE Sb 06Sep2000                  :
 energy of atom  2       EATOM= -149.9515
 kinetic energy error for atom=    0.0002 (will be added to EATOM!!)
  PAW_PBE Pt 04Feb2005                  :
 energy of atom  3       EATOM= -729.1176
 kinetic energy error for atom=    0.0010 (will be added to EATOM!!)


 POSCAR: Hf1 Sb1 Pt1
  positions in direct lattice
  No initial velocities read in
 exchange correlation table for  LEXCH =       14
   RHO(1)=    0.500       N(1)  =     2000
   RHO(2)=  100.500       N(2)  =     4000



--------------------------------------------------------------------------------------------------------


 ion  position               nearest neighbor table
   1  0.750  0.750  0.750-   3 2.70   3 2.70   3 2.70   3 2.70   2 3.11   2 3.11   2 3.11   2 3.11
                             2 3.11   2 3.11
   2  0.250  0.250  0.250-   3 2.70   3 2.70   3 2.70   3 2.70   1 3.11   1 3.11   1 3.11   1 3.11
                             1 3.11   1 3.11
   3  0.000  0.000  0.000-   1 2.70   1 2.70   1 2.70   1 2.70   2 2.70   2 2.70   2 2.70   2 2.70


  LATTYP: Found a face centered cubic cell.
 ALAT       =     6.2268057119

  Lattice vectors:

 A1 = (   0.0000000000,   3.1134028560,   3.1134028560)
 A2 = (   3.1134028560,   0.0000000000,   3.1134028560)
 A3 = (   3.1134028560,   3.1134028560,   0.0000000000)


Analysis of symmetry for initial positions (statically):
=====================================================================
 Subroutine PRICEL returns:
 Original cell was already a primitive cell.


 Routine SETGRP: Setting up the symmetry group for a
 face centered cubic supercell.


 Subroutine GETGRP returns: Found 24 space group operations
 (whereof 24 operations were pure point group operations)
 out of a pool of 48 trial point group operations.


The static configuration has the point symmetry T_d .


Analysis of symmetry for dynamics (positions and initial velocities):
=====================================================================
 Subroutine PRICEL returns:
 Original cell was already a primitive cell.


 Routine SETGRP: Setting up the symmetry group for a
 face centered cubic supercell.


 Subroutine GETGRP returns: Found 24 space group operations
 (whereof 24 operations were pure point group operations)
 out of a pool of 48 trial point group operations.


The dynamic configuration has the point symmetry T_d .


 Subroutine INISYM returns: Found 24 space group operations
 (whereof 24 operations are pure point group operations),
 and found     1 'primitive' translations


----------------------------------------------------------------------------------------

                                     Primitive cell

  volume of cell :      60.3582

  direct lattice vectors                    reciprocal lattice vectors
     0.000000000  3.113402856  3.113402856    -0.160595986  0.160595986  0.160595986
     3.113402856  0.000000000  3.113402856     0.160595986 -0.160595986  0.160595986
     3.113402856  3.113402856  0.000000000     0.160595986  0.160595986 -0.160595986

  length of vectors
     4.403016544  4.403016544  4.403016544     0.278160406  0.278160406  0.278160406

  position of ions in fractional coordinates (direct lattice)
     0.750000000  0.750000000  0.750000000
     0.250000000  0.250000000  0.250000000
     0.000000000  0.000000000  0.000000000

  ion indices of the primitive-cell ions
   primitive index   ion index
                 1           1
                 2           2
                 3           3

----------------------------------------------------------------------------------------



 KPOINTS: KPOINTS

Automatic generation of k-mesh.
Space group operators:
 irot       det(A)        alpha          n_x          n_y          n_z        tau_x        tau_y        tau_z
    1     1.000000     0.000000     1.000000     0.000000     0.000000     0.000000     0.000000     0.000000
    2     1.000000   120.000000    -0.577350    -0.577350    -0.577350     0.000000     0.000000     0.000000
    3     1.000000   120.000000     0.577350     0.577350     0.577350     0.000000     0.000000     0.000000
    4    -1.000000    90.000000    -0.000000    -0.000000    -1.000000     0.000000     0.000000     0.000000
    5    -1.000000   180.000000     0.000000     0.707107     0.707107     0.000000     0.000000     0.000000
    6    -1.000000    90.000000    -0.000000     1.000000    -0.000000     0.000000     0.000000     0.000000
    7     1.000000   180.000000    -0.000000    -0.000000     1.000000     0.000000     0.000000     0.000000
    8     1.000000   120.000000    -0.577350     0.577350     0.577350     0.000000     0.000000     0.000000
    9     1.000000   120.000000    -0.577350     0.577350    -0.577350     0.000000     0.000000     0.000000
   10    -1.000000    90.000000     0.000000     0.000000     1.000000     0.000000     0.000000     0.000000
   11    -1.000000    90.000000    -1.000000     0.000000    -0.000000     0.000000     0.000000     0.000000
   12    -1.000000   180.000000     0.707107     0.000000     0.707107     0.000000     0.000000     0.000000
   13     1.000000   120.000000     0.577350    -0.577350     0.577350     0.000000     0.000000     0.000000
   14     1.000000   120.000000    -0.577350    -0.577350     0.577350     0.000000     0.000000     0.000000
   15     1.000000   180.000000     1.000000     0.000000     0.000000     0.000000     0.000000     0.000000
   16    -1.000000    90.000000     0.000000    -1.000000     0.000000     0.000000     0.000000     0.000000
   17    -1.000000   180.000000     0.707107     0.707107    -0.000000     0.000000     0.000000     0.000000
   18    -1.000000    90.000000     1.000000     0.000000     0.000000     0.000000     0.000000     0.000000
   19     1.000000   120.000000     0.577350    -0.577350    -0.577350     0.000000     0.000000     0.000000
   20     1.000000   180.000000    -0.000000     1.000000     0.000000     0.000000     0.000000     0.000000
   21     1.000000   120.000000     0.577350     0.577350    -0.577350     0.000000     0.000000     0.000000
   22    -1.000000   180.000000    -0.000000    -0.707107     0.707107     0.000000     0.000000     0.000000
   23    -1.000000   180.000000     0.707107    -0.707107     0.000000     0.000000     0.000000     0.000000
   24    -1.000000   180.000000    -0.707107     0.000000     0.707107     0.000000     0.000000     0.000000

 Subroutine IBZKPT returns following result:
 ===========================================

 Found     84 irreducible k-points:

 Following reciprocal coordinates:
            Coordinates               Weight
  0.000000  0.000000  0.000000      1.000000
  0.076923 -0.000000  0.000000      8.000000
  0.153846  0.000000 -0.000000      8.000000
  0.230769  0.000000 -0.000000      8.000000
  0.307692  0.000000 -0.000000      8.000000
  0.384615 -0.000000  0.000000      8.000000
  0.461538  0.000000 -0.000000      8.000000
  0.076923  0.076923  0.000000      6.000000
  0.153846  0.076923  0.000000     24.000000
  0.230769  0.076923 -0.000000     24.000000
  0.307692  0.076923  0.000000     24.000000
  0.384615  0.076923  0.000000     24.000000
  0.461538  0.076923  0.000000     24.000000
 -0.461538  0.076923  0.000000     24.000000
 -0.384615  0.076923  0.000000     24.000000
 -0.307692  0.076923 -0.000000     24.000000
 -0.230769  0.076923 -0.000000     24.000000
 -0.153846  0.076923  0.000000     24.000000
 -0.076923  0.076923  0.000000     12.000000
  0.153846  0.153846  0.000000      6.000000
  0.230769  0.153846  0.000000     24.000000
  0.307692  0.153846  0.000000     24.000000
  0.384615  0.153846 -0.000000     24.000000
  0.461538  0.153846 -0.000000     24.000000
 -0.461538  0.153846  0.000000     24.000000
 -0.384615  0.153846  0.000000     24.000000
 -0.307692  0.153846  0.000000     24.000000
 -0.230769  0.153846 -0.000000     24.000000
 -0.153846  0.153846  0.000000     12.000000
  0.230769  0.230769  0.000000      6.000000
  0.307692  0.230769  0.000000     24.000000
  0.384615  0.230769  0.000000     24.000000
  0.461538  0.230769  0.000000     24.000000
 -0.461538  0.230769  0.000000     24.000000
 -0.384615  0.230769 -0.000000     24.000000
 -0.307692  0.230769  0.000000     24.000000
 -0.230769  0.230769  0.000000     12.000000
  0.307692  0.307692  0.000000      6.000000
  0.384615  0.307692  0.000000     24.000000
  0.461538  0.307692  0.000000     24.000000
 -0.461538  0.307692  0.000000     24.000000
 -0.384615  0.307692 -0.000000     24.000000
 -0.307692  0.307692  0.000000     12.000000
  0.384615  0.384615  0.000000      6.000000
  0.461538  0.384615  0.000000     24.000000
 -0.461538  0.384615 -0.000000     24.000000
 -0.384615  0.384615 -0.000000     12.000000
  0.461538  0.461538  0.000000      6.000000
 -0.461538  0.461538  0.000000     12.000000
  0.230769  0.153846  0.076923     24.000000
  0.307692  0.153846  0.076923     48.000000
  0.384615  0.153846  0.076923     48.000000
  0.461538  0.153846  0.076923     48.000000
 -0.461538  0.153846  0.076923     48.000000
  0.307692  0.230769  0.076923     24.000000
  0.384615  0.230769  0.076923     48.000000
  0.461538  0.230769  0.076923     48.000000
 -0.461538  0.230769  0.076923     48.000000
 -0.384615  0.230769  0.076923     48.000000
 -0.307692  0.230769  0.076923     48.000000
 -0.230769  0.230769  0.076923     48.000000
 -0.153846  0.230769  0.076923     24.000000
  0.384615  0.307692  0.076923     24.000000
  0.461538  0.307692  0.076923     48.000000
 -0.461538  0.307692  0.076923     48.000000
 -0.384615  0.307692  0.076923     48.000000
 -0.307692  0.307692  0.076923     48.000000
 -0.230769  0.307692  0.076923     24.000000
  0.461538  0.384615  0.076923     24.000000
 -0.461538  0.384615  0.076923     48.000000
 -0.384615  0.384615  0.076923     48.000000
 -0.307692  0.384615  0.076923     24.000000
 -0.461538  0.461538  0.076923     24.000000
 -0.384615  0.461538  0.076923     24.000000
  0.461538  0.307692  0.153846     24.000000
 -0.461538  0.307692  0.153846     48.000000
 -0.384615  0.307692  0.153846     48.000000
 -0.461538  0.384615  0.153846     24.000000
 -0.384615  0.384615  0.153846     48.000000
 -0.307692  0.384615  0.153846     48.000000
 -0.230769  0.384615  0.153846     24.000000
 -0.384615  0.461538  0.153846     24.000000
 -0.307692  0.461538  0.153846     24.000000
 -0.307692  0.461538  0.230769     24.000000

 Following cartesian coordinates:
            Coordinates               Weight
  0.000000  0.000000  0.000000      1.000000
 -0.012101  0.012101  0.012101      8.000000
 -0.024203  0.024203  0.024203      8.000000
 -0.036304  0.036304  0.036304      8.000000
 -0.048405  0.048405  0.048405      8.000000
 -0.060507  0.060507  0.060507      8.000000
 -0.072608  0.072608  0.072608      8.000000
  0.000000  0.000000  0.024203      6.000000
 -0.012101  0.012101  0.036304     24.000000
 -0.024203  0.024203  0.048405     24.000000
 -0.036304  0.036304  0.060507     24.000000
 -0.048405  0.048405  0.072608     24.000000
 -0.060507  0.060507  0.084709     24.000000
  0.084709 -0.084709 -0.060507     24.000000
  0.072608 -0.072608 -0.048405     24.000000
  0.060507 -0.060507 -0.036304     24.000000
  0.048405 -0.048405 -0.024203     24.000000
  0.036304 -0.036304 -0.012101     24.000000
  0.024203 -0.024203  0.000000     12.000000
 -0.000000  0.000000  0.048405      6.000000
 -0.012101  0.012101  0.060507     24.000000
 -0.024203  0.024203  0.072608     24.000000
 -0.036304  0.036304  0.084709     24.000000
 -0.048405  0.048405  0.096811     24.000000
  0.096811 -0.096811 -0.048405     24.000000
  0.084709 -0.084709 -0.036304     24.000000
  0.072608 -0.072608 -0.024203     24.000000
  0.060507 -0.060507 -0.012101     24.000000
  0.048405 -0.048405 -0.000000     12.000000
  0.000000 -0.000000  0.072608      6.000000
 -0.012101  0.012101  0.084709     24.000000
 -0.024203  0.024203  0.096811     24.000000
 -0.036304  0.036304  0.108912     24.000000
  0.108912 -0.108912 -0.036304     24.000000
  0.096811 -0.096811 -0.024203     24.000000
  0.084709 -0.084709 -0.012101     24.000000
  0.072608 -0.072608 -0.000000     12.000000
 -0.000000  0.000000  0.096811      6.000000
 -0.012101  0.012101  0.108912     24.000000
 -0.024203  0.024203  0.121014     24.000000
  0.121014 -0.121014 -0.024203     24.000000
  0.108912 -0.108912 -0.012101     24.000000
  0.096811 -0.096811 -0.000000     12.000000
  0.000000  0.000000  0.121014      6.000000
 -0.012101  0.012101  0.133115     24.000000
  0.133115 -0.133115 -0.012101     24.000000
  0.121014 -0.121014  0.000000     12.000000
  0.000000  0.000000  0.145216      6.000000
  0.145216 -0.145216 -0.000000     12.000000
 -0.000000  0.024203  0.048405     24.000000
 -0.012101  0.036304  0.060507     48.000000
 -0.024203  0.048405  0.072608     48.000000
 -0.036304  0.060507  0.084709     48.000000
  0.108912 -0.084709 -0.060507     48.000000
  0.000000  0.024203  0.072608     24.000000
 -0.012101  0.036304  0.084709     48.000000
 -0.024203  0.048405  0.096811     48.000000
  0.121014 -0.096811 -0.048405     48.000000
  0.108912 -0.084709 -0.036304     48.000000
  0.096811 -0.072608 -0.024203     48.000000
  0.084709 -0.060507 -0.012101     48.000000
  0.072608 -0.048405 -0.000000     24.000000
 -0.000000  0.024203  0.096811     24.000000
 -0.012101  0.036304  0.108912     48.000000
  0.133115 -0.108912 -0.036304     48.000000
  0.121014 -0.096811 -0.024203     48.000000
  0.108912 -0.084709 -0.012101     48.000000
  0.096811 -0.072608 -0.000000     24.000000
  0.000000  0.024203  0.121014     24.000000
  0.145216 -0.121014 -0.024203     48.000000
  0.133115 -0.108912 -0.012101     48.000000
  0.121014 -0.096811  0.000000     24.000000
  0.157318 -0.133115 -0.012101     24.000000
  0.145216 -0.121014 -0.000000     24.000000
  0.000000  0.048405  0.096811     24.000000
  0.145216 -0.096811 -0.048405     48.000000
  0.133115 -0.084709 -0.036304     48.000000
  0.157318 -0.108912 -0.036304     24.000000
  0.145216 -0.096811 -0.024203     48.000000
  0.133115 -0.084709 -0.012101     48.000000
  0.121014 -0.072608  0.000000     24.000000
  0.157318 -0.108912 -0.012101     24.000000
  0.145216 -0.096811 -0.000000     24.000000
  0.157318 -0.084709 -0.012101     24.000000



--------------------------------------------------------------------------------------------------------




 Dimension of arrays:
   k-points           NKPTS =     84   k-points in BZ     NKDIM =     84   number of bands    NBANDS=     16
   number of dos      NEDOS =    301   number of ions     NIONS =      3
   non local maximal  LDIM  =      6   non local SUM 2l+1 LMDIM =     18
   total plane-waves  NPLWV =  64000
   max r-space proj   IRMAX =      1   max aug-charges    IRDMAX= 513915
   dimension x,y,z NGX =    40 NGY =   40 NGZ =   40
   dimension x,y,z NGXF=    80 NGYF=   80 NGZF=   80
   support grid    NGXF=   160 NGYF=  160 NGZF=  160
   ions per type =               1   1   1
   NGX,Y,Z   is equivalent  to a cutoff of  15.10, 15.10, 15.10 a.u.
   NGXF,Y,Z  is equivalent  to a cutoff of  30.21, 30.21, 30.21 a.u.

 SYSTEM =  unknown system
 POSCAR =  Hf1 Sb1 Pt1

 Startparameter for this run:
   NWRITE =      2    write-flag & timer
   PREC   = acc       normal or accurate (medium, high low for compatibility)
   ISTART =      0    job   : 0-new  1-cont  2-samecut
   ICHARG =      2    charge: 1-file 2-atom 10-const
   ISPIN  =      1    spin polarized calculation?
   LNONCOLLINEAR =      F non collinear calculations
   LSORBIT =      F    spin-orbit coupling
   INIWAV =      1    electr: 0-lowe 1-rand  2-diag
   LASPH  =      F    aspherical Exc in radial PAW
   METAGGA=      F    non-selfconsistent MetaGGA calc.

 Electronic Relaxation 1
   ENCUT  =  700.0 eV  51.45 Ry    7.17 a.u.   9.50  9.50  9.50*2*pi/ulx,y,z
   ENINI  =  700.0     initial cutoff
   ENAUG  =  380.9 eV  augmentation charge cutoff
   NELM   =     60;   NELMIN=  5; NELMDL= -5     # of ELM steps
   EDIFF  = 0.1E-06   stopping-criterion for ELM
   LREAL  =      F    real-space projection
   NLSPLINE    = F    spline interpolate recip. space projectors
   LCOMPAT=      F    compatible to vasp.4.4
   GGA_COMPAT  = T    GGA compatible to vasp.4.4-vasp.4.6
   LMAXPAW     = -100 max onsite density
   LMAXMIX     =    2 max onsite mixed and CHGCAR
   VOSKOWN=      0    Vosko Wilk Nusair interpolation
   ROPT   =    0.00000   0.00000   0.00000
 Ionic relaxation
   EDIFFG = 0.1E-05   stopping-criterion for IOM
   NSW    =      0    number of steps for IOM
   NBLOCK =      1;   KBLOCK =      1    inner block; outer block
   IBRION =     -1    ionic relax: 0-MD 1-quasi-New 2-CG
   NFREE  =      0    steps in history (QN), initial steepest desc. (CG)
   ISIF   =      3    stress and relaxation
   IWAVPR =     10    prediction:  0-non 1-charg 2-wave 3-comb
   ISYM   =      2    0-nonsym 1-usesym 2-fastsym
   LCORR  =      T    Harris-Foulkes like correction to forces

   POTIM  = 0.5000    time-step for ionic-motion
   TEIN   =    0.0    initial temperature
   TEBEG  =    0.0;   TEEND  =   0.0 temperature during run
   SMASS  =  -3.00    Nose mass-parameter (am)
   estimated Nose-frequenzy (Omega)   =  0.10E-29 period in steps = 0.13E+47 mass=  -0.443E-27a.u.
   SCALEE = 1.0000    scale energy and forces
   NPACO  =    256;   APACO  = 16.0  distance and # of slots for P.C.
   PSTRESS=    0.0 pullay stress

  Mass of Ions in am
   POMASS = 178.49121.75195.08
  Ionic Valenz
   ZVAL   =  10.00  5.00 10.00
  Atomic Wigner-Seitz radii
   RWIGS  =  -1.00 -1.00 -1.00
  virtual crystal weights
   VCA    =   1.00  1.00  1.00
   NELECT =      25.0000    total number of electrons
   NUPDOWN=      -1.0000    fix difference up-down

 DOS related values:
   EMIN   =  10.00;   EMAX   =-10.00  energy-range for DOS
   EFERMI =   0.00
   ISMEAR =     0;   SIGMA  =   0.01  broadening in eV -4-tet -1-fermi 0-gaus

 Electronic relaxation 2 (details)
   IALGO  =     38    algorithm
   LDIAG  =      T    sub-space diagonalisation (order eigenvalues)
   LSUBROT=      F    optimize rotation matrix (better conditioning)
   TURBO    =      0    0=normal 1=particle mesh
   IRESTART =      0    0=no restart 2=restart with 2 vectors
   NREBOOT  =      0    no. of reboots
   NMIN     =      0    reboot dimension
   EREF     =   0.00    reference energy to select bands
   IMIX   =      4    mixing-type and parameters
     AMIX     =   0.40;   BMIX     =  1.00
     AMIX_MAG =   1.60;   BMIX_MAG =  1.00
     AMIN     =   0.10
     WC   =   100.;   INIMIX=   1;  MIXPRE=   1;  MAXMIX= -45

 Intra band minimization:
   WEIMIN = 0.0000     energy-eigenvalue tresh-hold
   EBREAK =  0.16E-08  absolut break condition
   DEPER  =   0.30     relativ break condition

   TIME   =   0.40     timestep for ELM

  volume/ion in A,a.u.               =      20.12       135.77
  Fermi-wavevector in a.u.,A,eV,Ry     =   1.220327  2.306083 20.261765  1.489198
  Thomas-Fermi vector in A             =   2.355548

 Write flags
   LWAVE        =      F    write WAVECAR
   LDOWNSAMPLE  =      F    k-point downsampling of WAVECAR
   LCHARG       =      F    write CHGCAR
   LVTOT        =      F    write LOCPOT, total local potential
   LVHAR        =      F    write LOCPOT, Hartree potential only
   LELF         =      F    write electronic localiz. function (ELF)
   LORBIT       =      0    0 simple, 1 ext, 2 COOP (PROOUT), +10 PAW based schemes


 Dipole corrections
   LMONO  =      F    monopole corrections only (constant potential shift)
   LDIPOL =      F    correct potential (dipole corrections)
   IDIPOL =      0    1-x, 2-y, 3-z, 4-all directions
   EPSILON=  1.0000000 bulk dielectric constant

 Exchange correlation treatment:
   GGA     =    PS    GGA type
   LEXCH   =    14    internal setting for exchange type
   VOSKOWN=      0    Vosko Wilk Nusair interpolation
   LHFCALC =     F    Hartree Fock is set to
   LHFONE  =     F    Hartree Fock one center treatment
   AEXX    =    0.0000 exact exchange contribution

 Linear response parameters
   LEPSILON=     F    determine dielectric tensor
   LRPA    =     F    only Hartree local field effects (RPA)
   LNABLA  =     F    use nabla operator in PAW spheres
   LVEL    =     F    velocity operator in full k-point grid
   LINTERFAST=   F  fast interpolation
   KINTER  =     0    interpolate to denser k-point grid
   CSHIFT  =0.1000    complex shift for real part using Kramers Kronig
   OMEGAMAX=  -1.0    maximum frequency
   DEG_THRESHOLD= 0.2000000E-02 threshold for treating states as degnerate
   RTIME   =   -0.100 relaxation time in fs
  (WPLASMAI=    0.000 imaginary part of plasma frequency in eV, 0.658/RTIME)
   DFIELD  = 0.0000000 0.0000000 0.0000000 field for delta impulse in time

 Orbital magnetization related:
   ORBITALMAG=     F  switch on orbital magnetization
   LCHIMAG   =     F  perturbation theory with respect to B field
   DQ        =  0.001000  dq finite difference perturbation B field
   LLRAUG    =     F  two centre corrections for induced B field



--------------------------------------------------------------------------------------------------------


 Static calculation
 charge density and potential will be updated during run
 non-spin polarized calculation
 Variant of blocked Davidson
 Davidson routine will perform the subspace rotation
 perform sub-space diagonalisation
    after iterative eigenvector-optimisation
 modified Broyden-mixing scheme, WC =      100.0
 initial mixing is a Kerker type mixing with AMIX =  0.4000 and BMIX =      1.0000
 Hartree-type preconditioning will be used
 using additional bands            3
 reciprocal scheme for non local part
 use partial core corrections
 calculate Harris-corrections to forces
   (improved forces if not selfconsistent)
 use gradient corrections
 use of overlap-Matrix (Vanderbilt PP)
 Gauss-broadening in eV      SIGMA  =   0.01


--------------------------------------------------------------------------------------------------------


  energy-cutoff  :      700.00
  volume of cell :       60.36
      direct lattice vectors                 reciprocal lattice vectors
     0.000000000  3.113402856  3.113402856    -0.160595986  0.160595986  0.160595986
     3.113402856  0.000000000  3.113402856     0.160595986 -0.160595986  0.160595986
     3.113402856  3.113402856  0.000000000     0.160595986  0.160595986 -0.160595986

  length of vectors
     4.403016544  4.403016544  4.403016544     0.278160406  0.278160406  0.278160406



 k-points in units of 2pi/SCALE and weight: KPOINTS
   0.00000000  0.00000000  0.00000000       0.000
  -0.01210135  0.01210135  0.01210135       0.004
  -0.02420271  0.02420271  0.02420271       0.004
  -0.03630406  0.03630406  0.03630406       0.004
  -0.04840541  0.04840541  0.04840541       0.004
  -0.06050677  0.06050677  0.06050677       0.004
  -0.07260812  0.07260812  0.07260812       0.004
   0.00000000  0.00000000  0.02420271       0.003
  -0.01210135  0.01210135  0.03630406       0.011
  -0.02420271  0.02420271  0.04840541       0.011
  -0.03630406  0.03630406  0.06050677       0.011
  -0.04840541  0.04840541  0.07260812       0.011
  -0.06050677  0.06050677  0.08470948       0.011
   0.08470948 -0.08470948 -0.06050677       0.011
   0.07260812 -0.07260812 -0.04840541       0.011
   0.06050677 -0.06050677 -0.03630406       0.011
   0.04840541 -0.04840541 -0.02420271       0.011
   0.03630406 -0.03630406 -0.01210135       0.011
   0.02420271 -0.02420271  0.00000000       0.005
  -0.00000000  0.00000000  0.04840541       0.003
  -0.01210135  0.01210135  0.06050677       0.011
  -0.02420271  0.02420271  0.07260812       0.011
  -0.03630406  0.03630406  0.08470948       0.011
  -0.04840541  0.04840541  0.09681083       0.011
   0.09681083 -0.09681083 -0.04840541       0.011
   0.08470948 -0.08470948 -0.03630406       0.011
   0.07260812 -0.07260812 -0.02420271       0.011
   0.06050677 -0.06050677 -0.01210135       0.011
   0.04840541 -0.04840541 -0.00000000       0.005
   0.00000000 -0.00000000  0.07260812       0.003
  -0.01210135  0.01210135  0.08470948       0.011
  -0.02420271  0.02420271  0.09681083       0.011
  -0.03630406  0.03630406  0.10891218       0.011
   0.10891218 -0.10891218 -0.03630406       0.011
   0.09681083 -0.09681083 -0.02420271       0.011
   0.08470948 -0.08470948 -0.01210135       0.011
   0.07260812 -0.07260812 -0.00000000       0.005
  -0.00000000  0.00000000  0.09681083       0.003
  -0.01210135  0.01210135  0.10891218       0.011
  -0.02420271  0.02420271  0.12101354       0.011
   0.12101354 -0.12101354 -0.02420271       0.011
   0.10891218 -0.10891218 -0.01210135       0.011
   0.09681083 -0.09681083 -0.00000000       0.005
   0.00000000  0.00000000  0.12101354       0.003
  -0.01210135  0.01210135  0.13311489       0.011
   0.13311489 -0.13311489 -0.01210135       0.011
   0.12101354 -0.12101354  0.00000000       0.005
   0.00000000  0.00000000  0.14521624       0.003
   0.14521624 -0.14521624 -0.00000000       0.005
  -0.00000000  0.02420271  0.04840541       0.011
  -0.01210135  0.03630406  0.06050677       0.022
  -0.02420271  0.04840541  0.07260812       0.022
  -0.03630406  0.06050677  0.08470948       0.022
   0.10891218 -0.08470948 -0.06050677       0.022
   0.00000000  0.02420271  0.07260812       0.011
  -0.01210135  0.03630406  0.08470948       0.022
  -0.02420271  0.04840541  0.09681083       0.022
   0.12101354 -0.09681083 -0.04840541       0.022
   0.10891218 -0.08470948 -0.03630406       0.022
   0.09681083 -0.07260812 -0.02420271       0.022
   0.08470948 -0.06050677 -0.01210135       0.022
   0.07260812 -0.04840541 -0.00000000       0.011
  -0.00000000  0.02420271  0.09681083       0.011
  -0.01210135  0.03630406  0.10891218       0.022
   0.13311489 -0.10891218 -0.03630406       0.022
   0.12101354 -0.09681083 -0.02420271       0.022
   0.10891218 -0.08470948 -0.01210135       0.022
   0.09681083 -0.07260812 -0.00000000       0.011
   0.00000000  0.02420271  0.12101354       0.011
   0.14521624 -0.12101354 -0.02420271       0.022
   0.13311489 -0.10891218 -0.01210135       0.022
   0.12101354 -0.09681083  0.00000000       0.011
   0.15731760 -0.13311489 -0.01210135       0.011
   0.14521624 -0.12101354 -0.00000000       0.011
   0.00000000  0.04840541  0.09681083       0.011
   0.14521624 -0.09681083 -0.04840541       0.022
   0.13311489 -0.08470948 -0.03630406       0.022
   0.15731760 -0.10891218 -0.03630406       0.011
   0.14521624 -0.09681083 -0.02420271       0.022
   0.13311489 -0.08470948 -0.01210135       0.022
   0.12101354 -0.07260812  0.00000000       0.011
   0.15731760 -0.10891218 -0.01210135       0.011
   0.14521624 -0.09681083 -0.00000000       0.011
   0.15731760 -0.08470948 -0.01210135       0.011

 k-points in reciprocal lattice and weights: KPOINTS
   0.00000000  0.00000000  0.00000000       0.000
   0.07692308 -0.00000000  0.00000000       0.004
   0.15384615  0.00000000 -0.00000000       0.004
   0.23076923  0.00000000 -0.00000000       0.004
   0.30769231  0.00000000 -0.00000000       0.004
   0.38461538 -0.00000000  0.00000000       0.004
   0.46153846  0.00000000 -0.00000000       0.004
   0.07692308  0.07692308  0.00000000       0.003
   0.15384615  0.07692308  0.00000000       0.011
   0.23076923  0.07692308 -0.00000000       0.011
   0.30769231  0.07692308  0.00000000       0.011
   0.38461538  0.07692308  0.00000000       0.011
   0.46153846  0.07692308  0.00000000       0.011
  -0.46153846  0.07692308  0.00000000       0.011
  -0.38461538  0.07692308  0.00000000       0.011
  -0.30769231  0.07692308 -0.00000000       0.011
  -0.23076923  0.07692308 -0.00000000       0.011
  -0.15384615  0.07692308  0.00000000       0.011
  -0.07692308  0.07692308  0.00000000       0.005
   0.15384615  0.15384615  0.00000000       0.003
   0.23076923  0.15384615  0.00000000       0.011
   0.30769231  0.15384615  0.00000000       0.011
   0.38461538  0.15384615 -0.00000000       0.011
   0.46153846  0.15384615 -0.00000000       0.011
  -0.46153846  0.15384615  0.00000000       0.011
  -0.38461538  0.15384615  0.00000000       0.011
  -0.30769231  0.15384615  0.00000000       0.011
  -0.23076923  0.15384615 -0.00000000       0.011
  -0.15384615  0.15384615  0.00000000       0.005
   0.23076923  0.23076923  0.00000000       0.003
   0.30769231  0.23076923  0.00000000       0.011
   0.38461538  0.23076923  0.00000000       0.011
   0.46153846  0.23076923  0.00000000       0.011
  -0.46153846  0.23076923  0.00000000       0.011
  -0.38461538  0.23076923 -0.00000000       0.011
  -0.30769231  0.23076923  0.00000000       0.011
  -0.23076923  0.23076923  0.00000000       0.005
   0.30769231  0.30769231  0.00000000       0.003
   0.38461538  0.30769231  0.00000000       0.011
   0.46153846  0.30769231  0.00000000       0.011
  -0.46153846  0.30769231  0.00000000       0.011
  -0.38461538  0.30769231 -0.00000000       0.011
  -0.30769231  0.30769231  0.00000000       0.005
   0.38461538  0.38461538  0.00000000       0.003
   0.46153846  0.38461538  0.00000000       0.011
  -0.46153846  0.38461538 -0.00000000       0.011
  -0.38461538  0.38461538 -0.00000000       0.005
   0.46153846  0.46153846  0.00000000       0.003
  -0.46153846  0.46153846  0.00000000       0.005
   0.23076923  0.15384615  0.07692308       0.011
   0.30769231  0.15384615  0.07692308       0.022
   0.38461538  0.15384615  0.07692308       0.022
   0.46153846  0.15384615  0.07692308       0.022
  -0.46153846  0.15384615  0.07692308       0.022
   0.30769231  0.23076923  0.07692308       0.011
   0.38461538  0.23076923  0.07692308       0.022
   0.46153846  0.23076923  0.07692308       0.022
  -0.46153846  0.23076923  0.07692308       0.022
  -0.38461538  0.23076923  0.07692308       0.022
  -0.30769231  0.23076923  0.07692308       0.022
  -0.23076923  0.23076923  0.07692308       0.022
  -0.15384615  0.23076923  0.07692308       0.011
   0.38461538  0.30769231  0.07692308       0.011
   0.46153846  0.30769231  0.07692308       0.022
  -0.46153846  0.30769231  0.07692308       0.022
  -0.38461538  0.30769231  0.07692308       0.022
  -0.30769231  0.30769231  0.07692308       0.022
  -0.23076923  0.30769231  0.07692308       0.011
   0.46153846  0.38461538  0.07692308       0.011
  -0.46153846  0.38461538  0.07692308       0.022
  -0.38461538  0.38461538  0.07692308       0.022
  -0.30769231  0.38461538  0.07692308       0.011
  -0.46153846  0.46153846  0.07692308       0.011
  -0.38461538  0.46153846  0.07692308       0.011
   0.46153846  0.30769231  0.15384615       0.011
  -0.46153846  0.30769231  0.15384615       0.022
  -0.38461538  0.30769231  0.15384615       0.022
  -0.46153846  0.38461538  0.15384615       0.011
  -0.38461538  0.38461538  0.15384615       0.022
  -0.30769231  0.38461538  0.15384615       0.022
  -0.23076923  0.38461538  0.15384615       0.011
  -0.38461538  0.46153846  0.15384615       0.011
  -0.30769231  0.46153846  0.15384615       0.011
  -0.30769231  0.46153846  0.23076923       0.011

 position of ions in fractional coordinates (direct lattice)
   0.75000000  0.75000000  0.75000000
   0.25000000  0.25000000  0.25000000
   0.00000000  0.00000000  0.00000000

 position of ions in cartesian coordinates  (Angst):
   4.67010428  4.67010428  4.67010428
   1.55670143  1.55670143  1.55670143
   0.00000000  0.00000000  0.00000000



--------------------------------------------------------------------------------------------------------


 k-point  1 :   0.0000 0.0000 0.0000  plane waves:    2637
 k-point  2 :   0.0769-0.0000 0.0000  plane waves:    2574
 k-point  3 :   0.1538 0.0000-0.0000  plane waves:    2559
 k-point  4 :   0.2308 0.0000-0.0000  plane waves:    2547
 k-point  5 :   0.3077 0.0000-0.0000  plane waves:    2539
 k-point  6 :   0.3846-0.0000 0.0000  plane waves:    2536
 k-point  7 :   0.4615 0.0000-0.0000  plane waves:    2518
 k-point  8 :   0.0769 0.0769 0.0000  plane waves:    2577
 k-point  9 :   0.1538 0.0769 0.0000  plane waves:    2565
 k-point 10 :   0.2308 0.0769-0.0000  plane waves:    2564
 k-point 11 :   0.3077 0.0769 0.0000  plane waves:    2544
 k-point 12 :   0.3846 0.0769 0.0000  plane waves:    2535
 k-point 13 :   0.4615 0.0769 0.0000  plane waves:    2531
 k-point 14 :  -0.4615 0.0769 0.0000  plane waves:    2533
 k-point 15 :  -0.3846 0.0769 0.0000  plane waves:    2535
 k-point 16 :  -0.3077 0.0769-0.0000  plane waves:    2526
 k-point 17 :  -0.2308 0.0769-0.0000  plane waves:    2556
 k-point 18 :  -0.1538 0.0769 0.0000  plane waves:    2572
 k-point 19 :  -0.0769 0.0769 0.0000  plane waves:    2567
 k-point 20 :   0.1538 0.1538 0.0000  plane waves:    2569
 k-point 21 :   0.2308 0.1538 0.0000  plane waves:    2553
 k-point 22 :   0.3077 0.1538 0.0000  plane waves:    2535
 k-point 23 :   0.3846 0.1538-0.0000  plane waves:    2536
 k-point 24 :   0.4615 0.1538-0.0000  plane waves:    2520
 k-point 25 :  -0.4615 0.1538 0.0000  plane waves:    2527
 k-point 26 :  -0.3846 0.1538 0.0000  plane waves:    2538
 k-point 27 :  -0.3077 0.1538 0.0000  plane waves:    2545
 k-point 28 :  -0.2308 0.1538-0.0000  plane waves:    2544
 k-point 29 :  -0.1538 0.1538 0.0000  plane waves:    2553
 k-point 30 :   0.2308 0.2308 0.0000  plane waves:    2557
 k-point 31 :   0.3077 0.2308 0.0000  plane waves:    2542
 k-point 32 :   0.3846 0.2308 0.0000  plane waves:    2531
 k-point 33 :   0.4615 0.2308 0.0000  plane waves:    2533
 k-point 34 :  -0.4615 0.2308 0.0000  plane waves:    2530
 k-point 35 :  -0.3846 0.2308-0.0000  plane waves:    2536
 k-point 36 :  -0.3077 0.2308 0.0000  plane waves:    2537
 k-point 37 :  -0.2308 0.2308 0.0000  plane waves:    2537
 k-point 38 :   0.3077 0.3077 0.0000  plane waves:    2534
 k-point 39 :   0.3846 0.3077 0.0000  plane waves:    2528
 k-point 40 :   0.4615 0.3077 0.0000  plane waves:    2535
 k-point 41 :  -0.4615 0.3077 0.0000  plane waves:    2537
 k-point 42 :  -0.3846 0.3077-0.0000  plane waves:    2543
 k-point 43 :  -0.3077 0.3077 0.0000  plane waves:    2538
 k-point 44 :   0.3846 0.3846 0.0000  plane waves:    2522
 k-point 45 :   0.4615 0.3846 0.0000  plane waves:    2527
 k-point 46 :  -0.4615 0.3846-0.0000  plane waves:    2532
 k-point 47 :  -0.3846 0.3846-0.0000  plane waves:    2538
 k-point 48 :   0.4615 0.4615 0.0000  plane waves:    2510
 k-point 49 :  -0.4615 0.4615 0.0000  plane waves:    2518
 k-point 50 :   0.2308 0.1538 0.0769  plane waves:    2566
 k-point 51 :   0.3077 0.1538 0.0769  plane waves:    2549
 k-point 52 :   0.3846 0.1538 0.0769  plane waves:    2540
 k-point 53 :   0.4615 0.1538 0.0769  plane waves:    2528
 k-point 54 :  -0.4615 0.1538 0.0769  plane waves:    2534
 k-point 55 :   0.3077 0.2308 0.0769  plane waves:    2543
 k-point 56 :   0.3846 0.2308 0.0769  plane waves:    2537
 k-point 57 :   0.4615 0.2308 0.0769  plane waves:    2537
 k-point 58 :  -0.4615 0.2308 0.0769  plane waves:    2535
 k-point 59 :  -0.3846 0.2308 0.0769  plane waves:    2534
 k-point 60 :  -0.3077 0.2308 0.0769  plane waves:    2540
 k-point 61 :  -0.2308 0.2308 0.0769  plane waves:    2547
 k-point 62 :  -0.1538 0.2308 0.0769  plane waves:    2545
 k-point 63 :   0.3846 0.3077 0.0769  plane waves:    2550
 k-point 64 :   0.4615 0.3077 0.0769  plane waves:    2538
 k-point 65 :  -0.4615 0.3077 0.0769  plane waves:    2538
 k-point 66 :  -0.3846 0.3077 0.0769  plane waves:    2539
 k-point 67 :  -0.3077 0.3077 0.0769  plane waves:    2535
 k-point 68 :  -0.2308 0.3077 0.0769  plane waves:    2531
 k-point 69 :   0.4615 0.3846 0.0769  plane waves:    2537
 k-point 70 :  -0.4615 0.3846 0.0769  plane waves:    2529
 k-point 71 :  -0.3846 0.3846 0.0769  plane waves:    2538
 k-point 72 :  -0.3077 0.3846 0.0769  plane waves:    2543
 k-point 73 :  -0.4615 0.4615 0.0769  plane waves:    2520
 k-point 74 :  -0.3846 0.4615 0.0769  plane waves:    2539
 k-point 75 :   0.4615 0.3077 0.1538  plane waves:    2533
 k-point 76 :  -0.4615 0.3077 0.1538  plane waves:    2535
 k-point 77 :  -0.3846 0.3077 0.1538  plane waves:    2541
 k-point 78 :  -0.4615 0.3846 0.1538  plane waves:    2532
 k-point 79 :  -0.3846 0.3846 0.1538  plane waves:    2535
 k-point 80 :  -0.3077 0.3846 0.1538  plane waves:    2531
 k-point 81 :  -0.2308 0.3846 0.1538  plane waves:    2541
 k-point 82 :  -0.3846 0.4615 0.1538  plane waves:    2539
 k-point 83 :  -0.3077 0.4615 0.1538  plane waves:    2539
 k-point 84 :  -0.3077 0.4615 0.2308  plane waves:    2534

 maximum and minimum number of plane-waves per node :       669      613

 maximum number of plane-waves:      2637
 maximum index in each direction:
   IXMAX=    9   IYMAX=    9   IZMAX=    9
   IXMIN=   -9   IYMIN=   -9   IZMIN=   -9


 parallel 3D FFT for wavefunctions:
    minimum data exchange during FFTs selected (reduces bandwidth)
 parallel 3D FFT for charge:
    minimum data exchange during FFTs selected (reduces bandwidth)


 total amount of memory used by VASP MPI-rank0    65920. kBytes
=======================================================================

   base      :      30000. kBytes
   nonl-proj :      24272. kBytes
   fftplans  :       5203. kBytes
   grid      :       2732. kBytes
   one-center:         15. kBytes
   wavefun   :       3698. kBytes

     INWAV:  cpu time    0.0002: real time    0.0004
 Broyden mixing: mesh for mixing (old mesh)
   NGX = 19   NGY = 19   NGZ = 19
  (NGX  = 80   NGY  = 80   NGZ  = 80)
  gives a total of   6859 points

 initial charge density was supplied:
 charge density of overlapping atoms calculated
 number of electron      25.0000000 magnetization
 keeping initial charge density in first step


--------------------------------------------------------------------------------------------------------


 Maximum index for augmentation-charges        31407 (set IRDMAX)


--------------------------------------------------------------------------------------------------------


 First call to EWALD:  gamma=   0.452
 Maximum number of real-space cells 3x 3x 3
 Maximum number of reciprocal cells 3x 3x 3

    FEWALD:  cpu time    0.0055: real time    0.0065


--------------------------------------- Iteration      1(   1)  ---------------------------------------


    POTLOK:  cpu time    0.0449: real time    0.1075
    SETDIJ:  cpu time    0.0778: real time    0.0780
     EDDAV:  cpu time    0.9082: real time    0.9254
       DOS:  cpu time    0.0037: real time    0.0044
    --------------------------------------------
      LOOP:  cpu time    1.0349: real time    1.1178

 eigenvalue-minimisations  :  2688
 total energy-change (2. order) : 0.1427674E+03  (-0.1435744E+04)
 number of electron      25.0000000 magnetization
 augmentation part       25.0000000 magnetization

 Free energy of the ion-electron system (eV)
  ---------------------------------------------------
  alpha Z        PSCENC =       112.87213063
  Ewald energy   TEWEN  =     -1596.98561175
  -Hartree energ DENC   =      -312.50744645
  -exchange      EXHF   =         0.00000000
  -V(xc)+E(xc)   XCENC  =       -18.44626850
  PAW double counting   =      1514.36848356    -1421.27055995
  entropy T*S    EENTRO =        -0.00002348
  eigenvalues    EBANDS =       123.63217072
  atomic energy  EATOM  =      1741.10451121
  Solvation  Ediel_sol  =         0.00000000
  ---------------------------------------------------
  free energy    TOTEN  =       142.76738598 eV

  energy without entropy =      142.76740946  energy(sigma->0) =      142.76739772


--------------------------------------------------------------------------------------------------------




--------------------------------------- Iteration      1(   2)  ---------------------------------------


     EDDAV:  cpu time    1.0765: real time    1.0977
       DOS:  cpu time    0.0026: real time    0.0029
    --------------------------------------------
      LOOP:  cpu time    1.0791: real time    1.1021

 eigenvalue-minimisations  :  3408
 total energy-change (2. order) :-0.1629552E+03  (-0.1611309E+03)
 number of electron      25.0000000 magnetization
 augmentation part       25.0000000 magnetization

 Free energy of the ion-electron system (eV)
  ---------------------------------------------------
  alpha Z        PSCENC =       112.87213063
  Ewald energy   TEWEN  =     -1596.98561175
  -Hartree energ DENC   =      -312.50744645
  -exchange      EXHF   =         0.00000000
  -V(xc)+E(xc)   XCENC  =       -18.44626850
  PAW double counting   =      1514.36848356    -1421.27055995
  entropy T*S    EENTRO =        -0.00007345
  eigenvalues    EBANDS =       -39.32298371
  atomic energy  EATOM  =      1741.10451121
  Solvation  Ediel_sol  =         0.00000000
  ---------------------------------------------------
  free energy    TOTEN  =       -20.18781843 eV

  energy without entropy =      -20.18774497  energy(sigma->0) =      -20.18778170


--------------------------------------------------------------------------------------------------------




--------------------------------------- Iteration      1(   3)  ---------------------------------------


     EDDAV:  cpu time    1.1129: real time    1.1408
       DOS:  cpu time    0.0026: real time    0.0028
    --------------------------------------------
      LOOP:  cpu time    1.1155: real time    1.1408

 eigenvalue-minimisations  :  3544
 total energy-change (2. order) :-0.4532453E+01  (-0.4491658E+01)
 number of electron      25.0000000 magnetization
 augmentation part       25.0000000 magnetization

 Free energy of the ion-electron system (eV)
  ---------------------------------------------------
  alpha Z        PSCENC =       112.87213063
  Ewald energy   TEWEN  =     -1596.98561175
  -Hartree energ DENC   =      -312.50744645
  -exchange      EXHF   =         0.00000000
  -V(xc)+E(xc)   XCENC  =       -18.44626850
  PAW double counting   =      1514.36848356    -1421.27055995
  entropy T*S    EENTRO =        -0.00033698
  eigenvalues    EBANDS =       -43.85517354
  atomic energy  EATOM  =      1741.10451121
  Solvation  Ediel_sol  =         0.00000000
  ---------------------------------------------------
  free energy    TOTEN  =       -24.72027178 eV

  energy without entropy =      -24.71993480  energy(sigma->0) =      -24.72010329


--------------------------------------------------------------------------------------------------------




--------------------------------------- Iteration      1(   4)  ---------------------------------------


     EDDAV:  cpu time    1.0577: real time    1.0748
       DOS:  cpu time    0.0025: real time    0.0027
    --------------------------------------------
      LOOP:  cpu time    1.0603: real time    1.0779

 eigenvalue-minimisations  :  3360
 total energy-change (2. order) :-0.6446137E-01  (-0.6427194E-01)
 number of electron      25.0000000 magnetization
 augmentation part       25.0000000 magnetization

 Free energy of the ion-electron system (eV)
  ---------------------------------------------------
  alpha Z        PSCENC =       112.87213063
  Ewald energy   TEWEN  =     -1596.98561175
  -Hartree energ DENC   =      -312.50744645
  -exchange      EXHF   =         0.00000000
  -V(xc)+E(xc)   XCENC  =       -18.44626850
  PAW double counting   =      1514.36848356    -1421.27055995
  entropy T*S    EENTRO =        -0.00030520
  eigenvalues    EBANDS =       -43.91966669
  atomic energy  EATOM  =      1741.10451121
  Solvation  Ediel_sol  =         0.00000000
  ---------------------------------------------------
  free energy    TOTEN  =       -24.78473315 eV

  energy without entropy =      -24.78442795  energy(sigma->0) =      -24.78458055


--------------------------------------------------------------------------------------------------------




--------------------------------------- Iteration      1(   5)  ---------------------------------------


     EDDAV:  cpu time    1.1398: real time    1.1573
       DOS:  cpu time    0.0024: real time    0.0026
    CHARGE:  cpu time    0.2400: real time    0.2410
    MIXING:  cpu time    0.0057: real time    0.0060
    --------------------------------------------
      LOOP:  cpu time    1.3878: real time    1.4071

 eigenvalue-minimisations  :  3632
 total energy-change (2. order) :-0.1553388E-02  (-0.1552690E-02)
 number of electron      25.0000000 magnetization
 augmentation part        4.7789665 magnetization

 Broyden mixing:
  rms(total) = 0.47267E+01    rms(broyden)= 0.47267E+01
  rms(prec ) = 0.49018E+01
  weight for this iteration     100.00

 Free energy of the ion-electron system (eV)
  ---------------------------------------------------
  alpha Z        PSCENC =       112.87213063
  Ewald energy   TEWEN  =     -1596.98561175
  -Hartree energ DENC   =      -312.50744645
  -exchange      EXHF   =         0.00000000
  -V(xc)+E(xc)   XCENC  =       -18.44626850
  PAW double counting   =      1514.36848356    -1421.27055995
  entropy T*S    EENTRO =        -0.00030175
  eigenvalues    EBANDS =       -43.92122352
  atomic energy  EATOM  =      1741.10451121
  Solvation  Ediel_sol  =         0.00000000
  ---------------------------------------------------
  free energy    TOTEN  =       -24.78628654 eV

  energy without entropy =      -24.78598478  energy(sigma->0) =      -24.78613566


--------------------------------------------------------------------------------------------------------




--------------------------------------- Iteration      1(   6)  ---------------------------------------


    POTLOK:  cpu time    0.0359: real time    0.0639
    SETDIJ:  cpu time    0.0882: real time    0.0883
     EDDAV:  cpu time    1.0822: real time    1.0825
       DOS:  cpu time    0.0025: real time    0.0027
    CHARGE:  cpu time    0.2002: real time    0.2004
    MIXING:  cpu time    0.0044: real time    0.0047
    --------------------------------------------
      LOOP:  cpu time    1.4135: real time    1.4429

 eigenvalue-minimisations  :  3456
 total energy-change (2. order) : 0.6694534E+00  (-0.1455946E+00)
 number of electron      25.0000000 magnetization
 augmentation part        4.9623400 magnetization

 Broyden mixing:
  rms(total) = 0.28194E+01    rms(broyden)= 0.28194E+01
  rms(prec ) = 0.28702E+01
  weight for this iteration     100.00

 eigenvalues of (default mixing * dielectric matrix)
  average eigenvalue GAMMA=   2.4350
  2.4350

 Free energy of the ion-electron system (eV)
  ---------------------------------------------------
  alpha Z        PSCENC =       112.87213063
  Ewald energy   TEWEN  =     -1596.98561175
  -Hartree energ DENC   =      -298.66694305
  -exchange      EXHF   =         0.00000000
  -V(xc)+E(xc)   XCENC  =       -18.90497464
  PAW double counting   =      2030.26191085    -1939.83717933
  entropy T*S    EENTRO =        -0.00029099
  eigenvalues    EBANDS =       -53.96038610
  atomic energy  EATOM  =      1741.10451121
  Solvation  Ediel_sol  =         0.00000000
  ---------------------------------------------------
  free energy    TOTEN  =       -24.11683316 eV

  energy without entropy =      -24.11654217  energy(sigma->0) =      -24.11668767


--------------------------------------------------------------------------------------------------------




--------------------------------------- Iteration      1(   7)  ---------------------------------------


    POTLOK:  cpu time    0.0460: real time    0.0661
    SETDIJ:  cpu time    0.0753: real time    0.0756
     EDDAV:  cpu time    1.1330: real time    1.1332
       DOS:  cpu time    0.0026: real time    0.0029
    CHARGE:  cpu time    0.1799: real time    0.1800
    MIXING:  cpu time    0.0036: real time    0.0046
    --------------------------------------------
      LOOP:  cpu time    1.4405: real time    1.4627

 eigenvalue-minimisations  :  3704
 total energy-change (2. order) : 0.1302223E+00  (-0.9193443E-01)
 number of electron      25.0000000 magnetization
 augmentation part        4.9859629 magnetization

 Broyden mixing:
  rms(total) = 0.42394E+00    rms(broyden)= 0.42394E+00
  rms(prec ) = 0.55866E+00
  weight for this iteration     100.00

 eigenvalues of (default mixing * dielectric matrix)
  average eigenvalue GAMMA=   1.8597
  1.0925  2.6268

 Free energy of the ion-electron system (eV)
  ---------------------------------------------------
  alpha Z        PSCENC =       112.87213063
  Ewald energy   TEWEN  =     -1596.98561175
  -Hartree energ DENC   =      -291.26767511
  -exchange      EXHF   =         0.00000000
  -V(xc)+E(xc)   XCENC  =       -19.07442249
  PAW double counting   =      2827.06596570    -2739.78811454
  entropy T*S    EENTRO =        -0.00036143
  eigenvalues    EBANDS =       -57.91303306
  atomic energy  EATOM  =      1741.10451121
  Solvation  Ediel_sol  =         0.00000000
  ---------------------------------------------------
  free energy    TOTEN  =       -23.98661083 eV

  energy without entropy =      -23.98624940  energy(sigma->0) =      -23.98643011


--------------------------------------------------------------------------------------------------------




--------------------------------------- Iteration      1(   8)  ---------------------------------------


    POTLOK:  cpu time    0.0314: real time    0.0563
    SETDIJ:  cpu time    0.0768: real time    0.0769
     EDDAV:  cpu time    1.1141: real time    1.1145
       DOS:  cpu time    0.0024: real time    0.0027
    CHARGE:  cpu time    0.2215: real time    0.2217
    MIXING:  cpu time    0.0039: real time    0.0040
    --------------------------------------------
      LOOP:  cpu time    1.4500: real time    1.4753

 eigenvalue-minimisations  :  3536
 total energy-change (2. order) : 0.3282859E-01  (-0.3788782E-01)
 number of electron      25.0000000 magnetization
 augmentation part        5.0338927 magnetization

 Broyden mixing:
  rms(total) = 0.97636E-01    rms(broyden)= 0.97636E-01
  rms(prec ) = 0.18232E+00
  weight for this iteration     100.00

 eigenvalues of (default mixing * dielectric matrix)
  average eigenvalue GAMMA=   1.5355
  2.5455  1.4357  0.6253

 Free energy of the ion-electron system (eV)
  ---------------------------------------------------
  alpha Z        PSCENC =       112.87213063
  Ewald energy   TEWEN  =     -1596.98561175
  -Hartree energ DENC   =      -291.01704617
  -exchange      EXHF   =         0.00000000
  -V(xc)+E(xc)   XCENC  =       -19.04978227
  PAW double counting   =      2906.98506652    -2819.87603802
  entropy T*S    EENTRO =        -0.00014232
  eigenvalues    EBANDS =       -57.98687006
  atomic energy  EATOM  =      1741.10451121
  Solvation  Ediel_sol  =         0.00000000
  ---------------------------------------------------
  free energy    TOTEN  =       -23.95378223 eV

  energy without entropy =      -23.95363991  energy(sigma->0) =      -23.95371107


--------------------------------------------------------------------------------------------------------




--------------------------------------- Iteration      1(   9)  ---------------------------------------


    POTLOK:  cpu time    0.0486: real time    0.0691
    SETDIJ:  cpu time    0.0725: real time    0.0727
     EDDAV:  cpu time    0.9731: real time    0.9734
       DOS:  cpu time    0.0025: real time    0.0028
    CHARGE:  cpu time    0.1950: real time    0.1951
    MIXING:  cpu time    0.0043: real time    0.0044
    --------------------------------------------
      LOOP:  cpu time    1.2961: real time    1.3183

 eigenvalue-minimisations  :  2952
 total energy-change (2. order) : 0.6414005E-02  (-0.4340268E-02)
 number of electron      25.0000000 magnetization
 augmentation part        5.0049356 magnetization

 Broyden mixing:
  rms(total) = 0.46197E-01    rms(broyden)= 0.46197E-01
  rms(prec ) = 0.60419E-01
  weight for this iteration     100.00

 eigenvalues of (default mixing * dielectric matrix)
  average eigenvalue GAMMA=   1.4262
  2.3871  1.3382  1.3382  0.6411

 Free energy of the ion-electron system (eV)
  ---------------------------------------------------
  alpha Z        PSCENC =       112.87213063
  Ewald energy   TEWEN  =     -1596.98561175
  -Hartree energ DENC   =      -292.45537123
  -exchange      EXHF   =         0.00000000
  -V(xc)+E(xc)   XCENC  =       -18.99625758
  PAW double counting   =      2895.69187551    -2808.49742948
  entropy T*S    EENTRO =        -0.00015536
  eigenvalues    EBANDS =       -56.68106016
  atomic energy  EATOM  =      1741.10451121
  Solvation  Ediel_sol  =         0.00000000
  ---------------------------------------------------
  free energy    TOTEN  =       -23.94736823 eV

  energy without entropy =      -23.94721286  energy(sigma->0) =      -23.94729055


--------------------------------------------------------------------------------------------------------




--------------------------------------- Iteration      1(  10)  ---------------------------------------


    POTLOK:  cpu time    0.0337: real time    0.0644
    SETDIJ:  cpu time    0.0752: real time    0.0754
     EDDAV:  cpu time    1.1386: real time    1.1389
       DOS:  cpu time    0.0057: real time    0.0059
    CHARGE:  cpu time    0.1763: real time    0.1764
    MIXING:  cpu time    0.0044: real time    0.0046
    --------------------------------------------
      LOOP:  cpu time    1.4339: real time    1.4648

 eigenvalue-minimisations  :  3688
 total energy-change (2. order) : 0.3302280E-03  (-0.5336224E-03)
 number of electron      25.0000000 magnetization
 augmentation part        5.0007590 magnetization

 Broyden mixing:
  rms(total) = 0.29021E-01    rms(broyden)= 0.29021E-01
  rms(prec ) = 0.31543E-01
  weight for this iteration     100.00

 eigenvalues of (default mixing * dielectric matrix)
  average eigenvalue GAMMA=   1.3895
  2.4439  1.8412  1.2148  0.6781  0.7697

 Free energy of the ion-electron system (eV)
  ---------------------------------------------------
  alpha Z        PSCENC =       112.87213063
  Ewald energy   TEWEN  =     -1596.98561175
  -Hartree energ DENC   =      -292.44646808
  -exchange      EXHF   =         0.00000000
  -V(xc)+E(xc)   XCENC  =       -18.99861407
  PAW double counting   =      2890.77522719    -2803.49807023
  entropy T*S    EENTRO =        -0.00017415
  eigenvalues    EBANDS =       -56.76996876
  atomic energy  EATOM  =      1741.10451121
  Solvation  Ediel_sol  =         0.00000000
  ---------------------------------------------------
  free energy    TOTEN  =       -23.94703800 eV

  energy without entropy =      -23.94686385  energy(sigma->0) =      -23.94695093


--------------------------------------------------------------------------------------------------------




--------------------------------------- Iteration      1(  11)  ---------------------------------------


    POTLOK:  cpu time    0.0326: real time    0.0630
    SETDIJ:  cpu time    0.0738: real time    0.0742
     EDDAV:  cpu time    0.9740: real time    0.9743
       DOS:  cpu time    0.0026: real time    0.0028
    CHARGE:  cpu time    0.1775: real time    0.1786
    MIXING:  cpu time    0.0051: real time    0.0052
    --------------------------------------------
      LOOP:  cpu time    1.2657: real time    1.2978

 eigenvalue-minimisations  :  2936
 total energy-change (2. order) : 0.2020408E-04  (-0.1652755E-04)
 number of electron      25.0000000 magnetization
 augmentation part        5.0023366 magnetization

 Broyden mixing:
  rms(total) = 0.11727E-01    rms(broyden)= 0.11727E-01
  rms(prec ) = 0.13231E-01
  weight for this iteration     100.00

 eigenvalues of (default mixing * dielectric matrix)
  average eigenvalue GAMMA=   1.4656
  2.5977  2.2964  0.6616  1.1204  1.1204  0.9973

 Free energy of the ion-electron system (eV)
  ---------------------------------------------------
  alpha Z        PSCENC =       112.87213063
  Ewald energy   TEWEN  =     -1596.98561175
  -Hartree energ DENC   =      -292.44450397
  -exchange      EXHF   =         0.00000000
  -V(xc)+E(xc)   XCENC  =       -18.99669081
  PAW double counting   =      2896.00834080    -2808.72247910
  entropy T*S    EENTRO =        -0.00017000
  eigenvalues    EBANDS =       -56.78254479
  atomic energy  EATOM  =      1741.10451121
  Solvation  Ediel_sol  =         0.00000000
  ---------------------------------------------------
  free energy    TOTEN  =       -23.94701779 eV

  energy without entropy =      -23.94684779  energy(sigma->0) =      -23.94693279


--------------------------------------------------------------------------------------------------------




--------------------------------------- Iteration      1(  12)  ---------------------------------------


    POTLOK:  cpu time    0.0418: real time    0.0625
    SETDIJ:  cpu time    0.0752: real time    0.0754
     EDDAV:  cpu time    1.1578: real time    1.1582
       DOS:  cpu time    0.0024: real time    0.0032
    CHARGE:  cpu time    0.1754: real time    0.1757
    MIXING:  cpu time    0.0051: real time    0.0053
    --------------------------------------------
      LOOP:  cpu time    1.4577: real time    1.4815

 eigenvalue-minimisations  :  3624
 total energy-change (2. order) : 0.7903837E-05  (-0.1143647E-04)
 number of electron      25.0000000 magnetization
 augmentation part        5.0023047 magnetization

 Broyden mixing:
  rms(total) = 0.28777E-02    rms(broyden)= 0.28777E-02
  rms(prec ) = 0.30702E-02
  weight for this iteration     100.00

 eigenvalues of (default mixing * dielectric matrix)
  average eigenvalue GAMMA=   1.4881
  2.4166  2.4166  1.8951  0.6627  1.0391  1.0391  0.9473

 Free energy of the ion-electron system (eV)
  ---------------------------------------------------
  alpha Z        PSCENC =       112.87213063
  Ewald energy   TEWEN  =     -1596.98561175
  -Hartree energ DENC   =      -292.50160201
  -exchange      EXHF   =         0.00000000
  -V(xc)+E(xc)   XCENC  =       -18.99349753
  PAW double counting   =      2896.92995560    -2809.63401066
  entropy T*S    EENTRO =        -0.00016650
  eigenvalues    EBANDS =       -56.73871889
  atomic energy  EATOM  =      1741.10451121
  Solvation  Ediel_sol  =         0.00000000
  ---------------------------------------------------
  free energy    TOTEN  =       -23.94700989 eV

  energy without entropy =      -23.94684339  energy(sigma->0) =      -23.94692664


--------------------------------------------------------------------------------------------------------




--------------------------------------- Iteration      1(  13)  ---------------------------------------


    POTLOK:  cpu time    0.0381: real time    0.0608
    SETDIJ:  cpu time    0.0761: real time    0.0762
     EDDAV:  cpu time    0.9313: real time    0.9316
       DOS:  cpu time    0.0026: real time    0.0028
    CHARGE:  cpu time    0.1765: real time    0.1767
    MIXING:  cpu time    0.0054: real time    0.0055
    --------------------------------------------
      LOOP:  cpu time    1.2300: real time    1.2525

 eigenvalue-minimisations  :  2864
 total energy-change (2. order) : 0.1627223E-05  (-0.3775624E-06)
 number of electron      25.0000000 magnetization
 augmentation part        5.0025002 magnetization

 Broyden mixing:
  rms(total) = 0.45479E-03    rms(broyden)= 0.45478E-03
  rms(prec ) = 0.76490E-03
  weight for this iteration     100.00

 eigenvalues of (default mixing * dielectric matrix)
  average eigenvalue GAMMA=   1.5334
  2.6765  2.4979  2.1175  0.6639  1.2731  0.9271  1.0555  1.0555

 Free energy of the ion-electron system (eV)
  ---------------------------------------------------
  alpha Z        PSCENC =       112.87213063
  Ewald energy   TEWEN  =     -1596.98561175
  -Hartree energ DENC   =      -292.48699483
  -exchange      EXHF   =         0.00000000
  -V(xc)+E(xc)   XCENC  =       -18.99421548
  PAW double counting   =      2896.12421777    -2808.82611298
  entropy T*S    EENTRO =        -0.00016661
  eigenvalues    EBANDS =       -56.75476622
  atomic energy  EATOM  =      1741.10451121
  Solvation  Ediel_sol  =         0.00000000
  ---------------------------------------------------
  free energy    TOTEN  =       -23.94700826 eV

  energy without entropy =      -23.94684165  energy(sigma->0) =      -23.94692496


--------------------------------------------------------------------------------------------------------




--------------------------------------- Iteration      1(  14)  ---------------------------------------


    POTLOK:  cpu time    0.0428: real time    0.0572
    SETDIJ:  cpu time    0.0756: real time    0.0760
     EDDAV:  cpu time    1.1447: real time    1.1451
       DOS:  cpu time    0.0025: real time    0.0027
    CHARGE:  cpu time    0.1744: real time    0.1748
    MIXING:  cpu time    0.0049: real time    0.0052
    --------------------------------------------
      LOOP:  cpu time    1.4450: real time    1.4609

 eigenvalue-minimisations  :  3784
 total energy-change (2. order) : 0.1058602E-06  (-0.8880342E-07)
 number of electron      25.0000000 magnetization
 augmentation part        5.0024575 magnetization

 Broyden mixing:
  rms(total) = 0.93362E-04    rms(broyden)= 0.93316E-04
  rms(prec ) = 0.11947E-03
  weight for this iteration     100.00

 eigenvalues of (default mixing * dielectric matrix)
  average eigenvalue GAMMA=   1.4684
  2.5929  2.4593  2.1391  0.6640  1.3142  1.0676  1.0676  1.0022  0.9082

 Free energy of the ion-electron system (eV)
  ---------------------------------------------------
  alpha Z        PSCENC =       112.87213063
  Ewald energy   TEWEN  =     -1596.98561175
  -Hartree energ DENC   =      -292.48669258
  -exchange      EXHF   =         0.00000000
  -V(xc)+E(xc)   XCENC  =       -18.99418199
  PAW double counting   =      2896.29523355    -2808.99638064
  entropy T*S    EENTRO =        -0.00016685
  eigenvalues    EBANDS =       -56.75584973
  atomic energy  EATOM  =      1741.10451121
  Solvation  Ediel_sol  =         0.00000000
  ---------------------------------------------------
  free energy    TOTEN  =       -23.94700816 eV

  energy without entropy =      -23.94684131  energy(sigma->0) =      -23.94692473


--------------------------------------------------------------------------------------------------------




--------------------------------------- Iteration      1(  15)  ---------------------------------------


    POTLOK:  cpu time    0.0304: real time    0.0677
    SETDIJ:  cpu time    0.0731: real time    0.0734
     EDDAV:  cpu time    0.6960: real time    0.6965
       DOS:  cpu time    0.0025: real time    0.0037
    --------------------------------------------
      LOOP:  cpu time    0.8020: real time    0.8417

 eigenvalue-minimisations  :  1784
 total energy-change (2. order) :-0.2229490E-07  (-0.2048244E-08)
 number of electron      25.0000000 magnetization
 augmentation part        5.0024575 magnetization

 Free energy of the ion-electron system (eV)
  ---------------------------------------------------
  alpha Z        PSCENC =       112.87213063
  Ewald energy   TEWEN  =     -1596.98561175
  -Hartree energ DENC   =      -292.48609169
  -exchange      EXHF   =         0.00000000
  -V(xc)+E(xc)   XCENC  =       -18.99419986
  PAW double counting   =      2896.34730668    -2809.04863401
  entropy T*S    EENTRO =        -0.00016685
  eigenvalues    EBANDS =       -56.75625255
  atomic energy  EATOM  =      1741.10451121
  Solvation  Ediel_sol  =         0.00000000
  ---------------------------------------------------
  free energy    TOTEN  =       -23.94700818 eV

  energy without entropy =      -23.94684133  energy(sigma->0) =      -23.94692476


--------------------------------------------------------------------------------------------------------




 average (electrostatic) potential at core
  the test charge radii are     1.1707  1.1712  1.2059
  (the norm of the test charge is              1.0000)
       1 -33.7494       2 -83.9195       3 -65.7886



 E-fermi :   9.8265     XC(G=0): -11.6521     alpha+bet :-14.5032


 k-point     1 :       0.0000    0.0000    0.0000
  band No.  band energies     occupation
      1     -22.3430      2.00000
      2     -22.3430      2.00000
      3     -22.3430      2.00000
      4      -3.5374      2.00000
      5       3.3294      2.00000
      6       3.3294      2.00000
      7       3.3294      2.00000
      8       4.1419      2.00000
      9       4.1419      2.00000
     10       7.9771      2.00000
     11       7.9771      2.00000
     12       7.9771      2.00000
     13       9.2091      2.00000
     14      10.7571      0.00000
     15      10.7571      0.00000
     16      10.7571      0.00000

 k-point     2 :       0.0769   -0.0000    0.0000
  band No.  band energies     occupation
      1     -22.3444      2.00000
      2     -22.3429      2.00000
      3     -22.3429      2.00000
      4      -3.4664      2.00000
      5       3.2531      2.00000
      6       3.2930      2.00000
      7       3.2930      2.00000
      8       4.1917      2.00000
      9       4.1917      2.00000
     10       7.4623      2.00000
     11       7.9117      2.00000
     12       7.9117      2.00000
     13       9.3494      2.00000
     14      10.5835      0.00000
     15      10.5835      0.00000
     16      11.2010      0.00000

 k-point     3 :       0.1538    0.0000   -0.0000
  band No.  band energies     occupation
      1     -22.3485      2.00000
      2     -22.3426      2.00000
      3     -22.3426      2.00000
      4      -3.2606      2.00000
      5       3.0394      2.00000
      6       3.2176      2.00000
      7       3.2176      2.00000
      8       4.2990      2.00000
      9       4.2990      2.00000
     10       6.5621      2.00000
     11       7.7485      2.00000
     12       7.7485      2.00000
     13       9.5090      2.00000
     14      10.4708      0.00000
     15      10.4708      0.00000
     16      11.9995      0.00000

 k-point     4 :       0.2308    0.0000   -0.0000
  band No.  band energies     occupation
      1     -22.3541      2.00000
      2     -22.3422      2.00000
      3     -22.3422      2.00000
      4      -2.9431      2.00000
      5       2.7215      2.00000
      6       3.1513      2.00000
      7       3.1513      2.00000
      8       4.3945      2.00000
      9       4.3945      2.00000
     10       5.7202      2.00000
     11       7.5609      2.00000
     12       7.5609      2.00000
     13       9.6437      2.00000
     14      10.4936      0.00000
     15      10.4936      0.00000
     16      12.6912      0.00000

 k-point     5 :       0.3077    0.0000   -0.0000
  band No.  band energies     occupation
      1     -22.3600      2.00000
      2     -22.3418      2.00000
      3     -22.3418      2.00000
      4      -2.5582      2.00000
      5       2.3374      2.00000
      6       3.1153      2.00000
      7       3.1153      2.00000
      8       4.4375      2.00000
      9       4.4375      2.00000
     10       5.0700      2.00000
     11       7.4131      2.00000
     12       7.4131      2.00000
     13       9.7695      2.00000
     14      10.6210      0.00000
     15      10.6210      0.00000
     16      12.2141      0.00000

 k-point     6 :       0.3846   -0.0000    0.0000
  band No.  band energies     occupation
      1     -22.3648      2.00000
      2     -22.3414      2.00000
      3     -22.3414      2.00000
      4      -2.1820      2.00000
      5       1.9543      2.00000
      6       3.1076      2.00000
      7       3.1076      2.00000
      8       4.4296      2.00000
      9       4.4296      2.00000
     10       4.6528      2.00000
     11       7.3286      2.00000
     12       7.3286      2.00000
     13       9.8979      0.00000
     14      10.8022      0.00000
     15      10.8022      0.00000
     16      11.4224      0.00000

 k-point     7 :       0.4615    0.0000   -0.0000
  band No.  band energies     occupation
      1     -22.3675      2.00000
      2     -22.3413      2.00000
      3     -22.3413      2.00000
      4      -1.9335      2.00000
      5       1.6973      2.00000
      6       3.1121      2.00000
      7       3.1121      2.00000
      8       4.4075      2.00000
      9       4.4075      2.00000
     10       4.4561      2.00000
     11       7.2952      2.00000
     12       7.2952      2.00000
     13      10.0192      0.00000
     14      10.9289      0.00000
     15      10.9468      0.00000
     16      10.9468      0.00000

 k-point     8 :       0.0769    0.0769    0.0000
  band No.  band energies     occupation
      1     -22.3444      2.00000
      2     -22.3431      2.00000
      3     -22.3431      2.00000
      4      -3.4431      2.00000
      5       3.0913      2.00000
      6       3.3622      2.00000
      7       3.3622      2.00000
      8       4.1777      2.00000
      9       4.2167      2.00000
     10       7.5239      2.00000
     11       7.7755      2.00000
     12       7.7755      2.00000
     13       9.3799      2.00000
     14      10.4841      0.00000
     15      11.0012      0.00000
     16      11.0564      0.00000

 k-point     9 :       0.1538    0.0769    0.0000
  band No.  band energies     occupation
      1     -22.3474      2.00000
      2     -22.3431      2.00000
      3     -22.3429      2.00000
      4      -3.2835      2.00000
      5       2.8713      2.00000
      6       3.3346      2.00000
      7       3.3596      2.00000
      8       4.2526      2.00000
      9       4.2882      2.00000
     10       6.8333      2.00000
     11       7.5807      2.00000
     12       7.6670      2.00000
     13       9.5594      2.00000
     14      10.3273      0.00000
     15      10.7463      0.00000
     16      11.5940      0.00000

 k-point    10 :       0.2308    0.0769   -0.0000
  band No.  band energies     occupation
      1     -22.3524      2.00000
      2     -22.3429      2.00000
      3     -22.3425      2.00000
      4      -3.0054      2.00000
      5       2.6293      2.00000
      6       3.2273      2.00000
      7       3.3175      2.00000
      8       4.3538      2.00000
      9       4.3771      2.00000
     10       6.0012      2.00000
     11       7.4002      2.00000
     12       7.5000      2.00000
     13       9.8011      1.99966
     14      10.3008      0.00000
     15      10.6128      0.00000
     16      12.2063      0.00000

 k-point    11 :       0.3077    0.0769    0.0000
  band No.  band energies     occupation
      1     -22.3580      2.00000
      2     -22.3425      2.00000
      3     -22.3422      2.00000
      4      -2.6460      2.00000
      5       2.3504      2.00000
      6       3.1200      2.00000
      7       3.2717      2.00000
      8       4.4160      2.00000
      9       4.4393      2.00000
[...]
  212              fftbas_plan_mpi                       0.062137                     12   6
  213                dfftw_execute                         0.025733                   36   7
  214                map_backward                          0.004204                   12   7
  215                  map_gather                            0.000796                  6   8
  216                  m_alltoallv_z                         0.002024                  6   8
  217                  map_scatter                           0.001096                  6   8
  218                map_forward                           0.029056                   12   7
  219                  map_gather                            0.016220                  6   8
  220                  m_alltoallv_z                         0.005644                  6   8
  221                  map_scatter                           0.006868                  6   8
  222            M_sumb_d                              0.008270                        6   5
  223          M_sumb_d                              0.000027                          1   4
  224        setdij_                               1.321977                           20   3
  225          fft3d_mpi                             0.220716                         40   4
  226            fftbas_plan_mpi                       0.203968                       40   5
  227              dfftw_execute                         0.085570                    120   6
  228              map_backward                          0.013354                     40   6
  229                map_gather                            0.002734                   20   7
  230                m_alltoallv_z                         0.005933                   20   7
  231                map_scatter                           0.003687                   20   7
  232              map_forward                           0.094409                     40   6
  233                map_gather                            0.049847                   20   7
  234                m_alltoallv_z                         0.019904                   20   7
  235                map_scatter                           0.023685                   20   7
  236          M_sumb_d                              0.012529                         20   4
  237        set_dd_magatom                        0.000003                            1   3
  238        set_dd_paw                            0.008654                            1   3
  239          set_rsgf_all                          0.000004                          1   4
  240          M_sumb_d                              0.008509                          8   4
  241        strkin                                0.000786                            1   3
  242          M_sumb_d                              0.000416                          1   4
  243        strelo                                0.002682                            1   3
  244          M_sumb_d                              0.000162                          2   4
  245        strenl                                0.656631                            1   3
  246          spher                                 0.523742                         19   4
  247          phase                                 0.010623                        189   4
  248          proj1                                 0.109551                        756   4
  249            crexp_mul_wave                        0.017107                     2268   5
  250            M_sumb_d                              0.027768                      756   5
  251          M_sumb_d                              0.000508                          1   4
  252        M_sumb_d                              0.000263                            6   3
  253        fft3d_mpi                             0.015146                           11   3
  254          fftbas_plan_mpi                       0.014139                         11   4
  255            dfftw_execute                         0.005135                       33   5
  256            map_forward                           0.002775                       10   5
  257              map_gather                            0.000574                      5   6
  258              m_alltoallv_z                         0.001293                      5   6
  259              map_scatter                           0.000676                      5   6
  260            map_backward                          0.003703                       12   5
  261              map_gather                            0.000792                      6   6
  262              m_alltoallv_z                         0.001507                      6   6
  263              map_scatter                           0.001112                      6   6
  264        ggaall_grid                           0.001549                            1   3
  265        forhar                                0.006134                            2   3
  266          M_sumb_d                              0.000213                          2   4
  267        strehar                               0.002624                            1   3
  268          M_sumb_d                              0.000070                          1   4
  269        chggra                                0.005696                            1   3
  270          fft3d_mpi                             0.004002                          3   4
  271            fftbas_plan_mpi                       0.003728                        3   5
  272              dfftw_execute                         0.001309                      9   6
  273              map_backward                          0.000601                      2   6
  274                map_gather                            0.000125                    1   7
  275                m_alltoallv_z                         0.000238                    1   7
  276                map_scatter                           0.000189                    1   7
  277              map_forward                           0.001080                      4   6
  278                map_gather                            0.000208                    2   7
  279                m_alltoallv_z                         0.000531                    2   7
  280                map_scatter                           0.000251                    2   7
  281          M_sumb_d                              0.000139                          3   4
  282        brmix                                 0.008122                            1   3
  283          M_sumb_d                              0.000252                          6   4
  284          brpre                                 0.000055                          1   4
  285          setg0                                 0.001459                          1   4
  286          broyd                                 0.001955                          1   4
  287            M_sumb_d                              0.000538                       17   5
  288            brsav                                 0.000103                       16   5
  289            brget                                 0.000275                       59   5
  290          M_bcast_z                             0.003449                          1   4
  291          M_bcast_d                             0.000059                          1   4
  292        M_bcast_d                             0.000036                            2   3
  293      potlok                                0.026175                              1   2
  294        fft3d_mpi                             0.018069                           13   3
  295          fftbas_plan_mpi                       0.016880                         13   4
  296            dfftw_execute                         0.005638                       39   5
  297            map_forward                           0.003993                       14   5
  298              map_gather                            0.000772                      8   6
  299              m_alltoallv_z                         0.001959                      8   6
  300              map_scatter                           0.000905                      8   6
  301            map_backward                          0.004047                       12   5
  302              map_gather                            0.001008                      6   6
  303              m_alltoallv_z                         0.001637                      6   6
  304              map_scatter                           0.001110                      6   6
  305        ggaall_grid                           0.001534                            1   3
  306        M_sumb_d                              0.000262                            6   3
  307        M_bcast_d                             0.000110                            1   3
  308      potlok_metagga                        0.000004                              1   2
  309      set_dd_magatom                        0.000003                              1   2
  310      set_dd_paw                            0.000401                              1   2
  311        set_rsgf_all                          0.000004                            1   3
  312        M_sumb_d                              0.000246                            8   3
  313      densta                                0.001974                              1   2
  314        M_sumb_d                              0.000780                           40   3
  315      lprj_proall                           0.000008                              1   2

 Flat profile
 ============

             routine name                   CPU           calls
 ---------------------------------------------------------------
 total_time                             12.902243           1
 eddav                                   2.953018          15
 dfftw_execute                           2.919556       29130
 setdij_                                 2.214327          39
 fftbas_plan_mpi                         1.951984        9712
 elmin                                   1.798635           1
 M_sumb_d                                1.471928       27457
 set_charge                              1.181179          11
 m_alltoallv_z                           1.127281        9733
 M_alltoall_d                            0.687156       31822
 pdssyex_zheevx                          0.638459         315
 spher                                   0.592966          20
 crpa_reader                             0.569131           1
 orth1                                   0.459758        6480
 vhamil                                  0.440732        4306
 map_gather                              0.396310        9733
 proj1                                   0.390000        3886
 map_forward                             0.370929       10528
 fftwav_mpi                              0.369381        5133
 map_scatter                             0.360329        9733
 gemm                                    0.334542       12918
 M_bcast_z                               0.296193        3862
 vnlac0                                  0.282980        4306
 redis_pw                                0.262820       12330
 redis_proj                              0.234413       15397
 hamiltmu                                0.232300        2153
 fft3d_mpi                               0.176415        9710
 w1_copy                                 0.163321       12918
 map_backward                            0.158476        8892
 work_mul_crexp                          0.131032       12918
 fftext_mpi                              0.130911        4306
 eccp                                    0.112689        1260
 crexp_mul_wave                          0.099109       11658
 kinhamil                                0.083400        4306
 overl                                   0.079784        7373
 force_and_stress                        0.077215           1
 potlok                                  0.076484          12
 M_bcast_d                               0.070649        2183
 overl1                                  0.053147        4306
 pw_charge                               0.049989         827
 lincom                                  0.049777         336
 setup_precond                           0.041038        1260
 apply_precond                           0.040229        3046
 w1_projall                              0.032707        1523
 phase                                   0.030903         547
 soft_charge                             0.021475          11
 ggaall_grid                             0.020307          13
 fornl                                   0.019208           1
 truncate_high_frequency_w1              0.019181        5566
 densta                                  0.018980          16
 setg0                                   0.013278          12
 strenl                                  0.012207           1
 brmix                                   0.010892          11
 broyd                                   0.007208          11
 forhar                                  0.005921           2
 forloc                                  0.003039           1
 depsum                                  0.002698          11
 set_dd_paw                              0.002613          13
 strehar                                 0.002554           1
 strelo                                  0.002520           1
 orthch                                  0.002210           1
 brgrid                                  0.001854           1
 brget                                   0.001679         368
 chggra                                  0.001555           1
 proj                                    0.001045          21
 choleski                                0.000817          21
 brsav                                   0.000792         112
 brpre                                   0.000692          11
 strkin                                  0.000370           1
 fordep                                  0.000122           1
 set_rsgf_all                            0.000062          13
 vectorpot                               0.000059          12
 potlok_metagga                          0.000053          12
 set_dd_magatom                          0.000045          13
 set_kineden                             0.000036          10
 rotate_active_occupied_orbital          0.000015           1
 lprj_proall                             0.000008           1
 redis_pw_over_bands                     0.000004           1
 ---------------------------------------------------------------
  summed up times    37.2693228721619

 Accumulative profile
 ====================

             routine name                   CPU           calls
 ---------------------------------------------------------------
 total_time                             37.269323           1
 elmin                                  20.483753           1
 eddav                                  15.564195          15
 fft3d_mpi                               7.425076        9710
 fftbas_plan_mpi                         7.284864        9712
 hamiltmu                                4.846117        2153
 fftwav_mpi                              4.013030        5133
 kinhamil                                3.107935        4306
 fftext_mpi                              3.024534        4306
 dfftw_execute                           2.919556       29130
 force_and_stress                        2.716682           1
 setdij_                                 2.697834          39
 set_charge                              2.082297          11
 M_sumb_d                                1.471928       27457
 map_forward                             1.422950       10528
 m_alltoallv_z                           1.127281        9733
 vnlac0                                  1.012004        4306
 map_backward                            0.990375        8892
 soft_charge                             0.729269          11
 M_alltoall_d                            0.687156       31822
 proj1                                   0.681977        3886
 strenl                                  0.656631           1
 pdssyex_zheevx                          0.638459         315
 redis_pw                                0.636473       12330
 spher                                   0.592966          20
 w1_projall                              0.592828        1523
 crpa_reader                             0.569131           1
 redis_proj                              0.547917       15397
 orth1                                   0.459758        6480
 vhamil                                  0.440732        4306
 fordep                                  0.409746           1
 map_gather                              0.396310        9733
 map_scatter                             0.360329        9733
 gemm                                    0.334542       12918
 potlok                                  0.315824          12
 M_bcast_z                               0.296193        3862
 eccp                                    0.187171        1260
 w1_copy                                 0.163321       12918
 work_mul_crexp                          0.131032       12918
 crexp_mul_wave                          0.099109       11658
 overl                                   0.079784        7373
 set_dd_paw                              0.076540          13
 M_bcast_d                               0.070649        2183
 setup_precond                           0.070515        1260
 overl1                                  0.053147        4306
 brmix                                   0.052912          11
 pw_charge                               0.049989         827
 lincom                                  0.049777         336
 apply_precond                           0.040229        3046
 densta                                  0.033150          16
 phase                                   0.030903         547
 fornl                                   0.027398           1
 orthch                                  0.023974           1
 ggaall_grid                             0.020307          13
 truncate_high_frequency_w1              0.019181        5566
 broyd                                   0.013741          11
 proj                                    0.013350          21
 setg0                                   0.013278          12
 forhar                                  0.006134           2
 chggra                                  0.005696           1
 depsum                                  0.005286          11
 forloc                                  0.003097           1
 strelo                                  0.002682           1
 strehar                                 0.002624           1
 brgrid                                  0.001854           1
 brget                                   0.001679         368
 choleski                                0.000817          21
 brsav                                   0.000792         112
 strkin                                  0.000786           1
 brpre                                   0.000692          11
 set_rsgf_all                            0.000062          13
 vectorpot                               0.000059          12
 potlok_metagga                          0.000053          12
 set_dd_magatom                          0.000045          13
 set_kineden                             0.000036          10
 rotate_active_occupied_orbital          0.000015           1
 lprj_proall                             0.000008           1
 redis_pw_over_bands                     0.000004           1
 ---------------------------------------------------------------

Profiling took   0.760267  0.938852  0.006590  0.005223 seconds
Profiling took   0.736509 seconds
