<?xml version="1.0" encoding="ISO-8859-1"?>
<modeling>
 <generator>
  <i name="program" type="string">vasp </i>
  <i name="version" type="string">6.0.8  </i>
  <i name="subversion" type="string">29Jun18 (build Jun 13 2019 12:54:44) complex                          parallel </i>
  <i name="platform" type="string">IFC18_CrayMPICH </i>
  <i name="date" type="string">2021 12 05 </i>
  <i name="time" type="string">14:21:49 </i>
 </generator>
 <incar>
  <i type="int" name="KPAR">     4</i>
  <i type="int" name="NPAR">     4</i>
  <i type="int" name="ISTART">     0</i>
  <i type="string" name="PREC"> ACC</i>
  <i type="string" name="ALGO"> Normal</i>
  <i type="logical" name="ADDGRID"> T  </i>
  <i type="int" name="ISPIN">     1</i>
  <i type="int" name="NELMIN">     5</i>
  <i type="int" name="IBRION">    -1</i>
  <i name="EDIFF">      0.00000010</i>
  <i type="int" name="NSW">     0</i>
  <i type="int" name="ISIF">     3</i>
  <i name="ENCUT">    700.00000000</i>
  <i type="logical" name="LREAL"> F  </i>
  <i type="int" name="ISMEAR">     0</i>
  <i name="SIGMA">      0.01000000</i>
  <i type="logical" name="LWAVE"> F  </i>
  <i type="logical" name="LCHARG"> F  </i>
  <i type="logical" name="LVTOT"> F  </i>
  <i type="string" name="ALGO"> Normal</i>
  <i type="string" name="GGA"> PS</i>
  <i name="EDIFF">      0.00000010</i>
  <i type="int" name="ISPIN">     1</i>
 </incar>
 <structure name="primitive_cell" >
  <crystal>
   <varray name="basis" >
    <v>       0.00000000       3.11340286       3.11340286 </v>
    <v>       3.11340286       0.00000000       3.11340286 </v>
    <v>       3.11340286       3.11340286       0.00000000 </v>
   </varray>
   <i name="volume">     60.35815473 </i>
   <varray name="rec_basis" >
    <v>      -0.16059599       0.16059599       0.16059599 </v>
    <v>       0.16059599      -0.16059599       0.16059599 </v>
    <v>       0.16059599       0.16059599      -0.16059599 </v>
   </varray>
  </crystal>
  <varray name="positions" >
   <v>       0.75000000       0.75000000       0.75000000 </v>
   <v>       0.25000000       0.25000000       0.25000000 </v>
   <v>       0.00000000       0.00000000       0.00000000 </v>
  </varray>
 </structure>
 <varray name="primitive_index" >
  <v type="int" >        1 </v>
  <v type="int" >        2 </v>
  <v type="int" >        3 </v>
 </varray>
 <kpoints>
  <generation param="Gamma">
   <v type="int" name="divisions">      13       13       13 </v>
   <v name="usershift">      0.00000000       0.00000000       0.00000000 </v>
   <v name="genvec1">      0.07692308       0.00000000      -0.00000000 </v>
   <v name="genvec2">      0.00000000       0.07692308       0.00000000 </v>
   <v name="genvec3">     -0.00000000      -0.00000000       0.07692308 </v>
   <v name="shift">      0.00000000       0.00000000       0.00000000 </v>
  </generation>
  <varray name="kpointlist" >
   <v>       0.00000000       0.00000000       0.00000000 </v>
   <v>       0.07692308      -0.00000000       0.00000000 </v>
   <v>       0.15384615       0.00000000      -0.00000000 </v>
   <v>       0.23076923       0.00000000      -0.00000000 </v>
   <v>       0.30769231       0.00000000      -0.00000000 </v>
   <v>       0.38461538      -0.00000000       0.00000000 </v>
   <v>       0.46153846       0.00000000      -0.00000000 </v>
   <v>       0.07692308       0.07692308       0.00000000 </v>
   <v>       0.15384615       0.07692308       0.00000000 </v>
   <v>       0.23076923       0.07692308      -0.00000000 </v>
   <v>       0.30769231       0.07692308       0.00000000 </v>
   <v>       0.38461538       0.07692308       0.00000000 </v>
   <v>       0.46153846       0.07692308       0.00000000 </v>
   <v>      -0.46153846       0.07692308       0.00000000 </v>
   <v>      -0.38461538       0.07692308       0.00000000 </v>
   <v>      -0.30769231       0.07692308      -0.00000000 </v>
   <v>      -0.23076923       0.07692308      -0.00000000 </v>
   <v>      -0.15384615       0.07692308       0.00000000 </v>
   <v>      -0.07692308       0.07692308       0.00000000 </v>
   <v>       0.15384615       0.15384615       0.00000000 </v>
   <v>       0.23076923       0.15384615       0.00000000 </v>
   <v>       0.30769231       0.15384615       0.00000000 </v>
   <v>       0.38461538       0.15384615      -0.00000000 </v>
   <v>       0.46153846       0.15384615      -0.00000000 </v>
   <v>      -0.46153846       0.15384615       0.00000000 </v>
   <v>      -0.38461538       0.15384615       0.00000000 </v>
   <v>      -0.30769231       0.15384615       0.00000000 </v>
   <v>      -0.23076923       0.15384615      -0.00000000 </v>
   <v>      -0.15384615       0.15384615       0.00000000 </v>
   <v>       0.23076923       0.23076923       0.00000000 </v>
   <v>       0.30769231       0.23076923       0.00000000 </v>
   <v>       0.38461538       0.23076923       0.00000000 </v>
   <v>       0.46153846       0.23076923       0.00000000 </v>
   <v>      -0.46153846       0.23076923       0.00000000 </v>
   <v>      -0.38461538       0.23076923      -0.00000000 </v>
   <v>      -0.30769231       0.23076923       0.00000000 </v>
   <v>      -0.23076923       0.23076923       0.00000000 </v>
   <v>       0.30769231       0.30769231       0.00000000 </v>
   <v>       0.38461538       0.30769231       0.00000000 </v>
   <v>       0.46153846       0.30769231       0.00000000 </v>
   <v>      -0.46153846       0.30769231       0.00000000 </v>
   <v>      -0.38461538       0.30769231      -0.00000000 </v>
   <v>      -0.30769231       0.30769231       0.00000000 </v>
   <v>       0.38461538       0.38461538       0.00000000 </v>
   <v>       0.46153846       0.38461538       0.00000000 </v>
   <v>      -0.46153846       0.38461538      -0.00000000 </v>
   <v>      -0.38461538       0.38461538      -0.00000000 </v>
   <v>       0.46153846       0.46153846       0.00000000 </v>
   <v>      -0.46153846       0.46153846       0.00000000 </v>
   <v>       0.23076923       0.15384615       0.07692308 </v>
   <v>       0.30769231       0.15384615       0.07692308 </v>
   <v>       0.38461538       0.15384615       0.07692308 </v>
   <v>       0.46153846       0.15384615       0.07692308 </v>
   <v>      -0.46153846       0.15384615       0.07692308 </v>
   <v>       0.30769231       0.23076923       0.07692308 </v>
   <v>       0.38461538       0.23076923       0.07692308 </v>
   <v>       0.46153846       0.23076923       0.07692308 </v>
   <v>      -0.46153846       0.23076923       0.07692308 </v>
   <v>      -0.38461538       0.23076923       0.07692308 </v>
   <v>      -0.30769231       0.23076923       0.07692308 </v>
   <v>      -0.23076923       0.23076923       0.07692308 </v>
   <v>      -0.15384615       0.23076923       0.07692308 </v>
   <v>       0.38461538       0.30769231       0.07692308 </v>
   <v>       0.46153846       0.30769231       0.07692308 </v>
   <v>      -0.46153846       0.30769231       0.07692308 </v>
   <v>      -0.38461538       0.30769231       0.07692308 </v>
   <v>      -0.30769231       0.30769231       0.07692308 </v>
   <v>      -0.23076923       0.30769231       0.07692308 </v>
   <v>       0.46153846       0.38461538       0.07692308 </v>
   <v>      -0.46153846       0.38461538       0.07692308 </v>
   <v>      -0.38461538       0.38461538       0.07692308 </v>
   <v>      -0.30769231       0.38461538       0.07692308 </v>
   <v>      -0.46153846       0.46153846       0.07692308 </v>
   <v>      -0.38461538       0.46153846       0.07692308 </v>
   <v>       0.46153846       0.30769231       0.15384615 </v>
   <v>      -0.46153846       0.30769231       0.15384615 </v>
   <v>      -0.38461538       0.30769231       0.15384615 </v>
   <v>      -0.46153846       0.38461538       0.15384615 </v>
   <v>      -0.38461538       0.38461538       0.15384615 </v>
   <v>      -0.30769231       0.38461538       0.15384615 </v>
   <v>      -0.23076923       0.38461538       0.15384615 </v>
   <v>      -0.38461538       0.46153846       0.15384615 </v>
   <v>      -0.30769231       0.46153846       0.15384615 </v>
   <v>      -0.30769231       0.46153846       0.23076923 </v>
  </varray>
  <varray name="weights" >
   <v>       0.00045517 </v>
   <v>       0.00364133 </v>
   <v>       0.00364133 </v>
   <v>       0.00364133 </v>
   <v>       0.00364133 </v>
   <v>       0.00364133 </v>
   <v>       0.00364133 </v>
   <v>       0.00273100 </v>
   <v>       0.01092399 </v>
   <v>       0.01092399 </v>
   <v>       0.01092399 </v>
   <v>       0.01092399 </v>
   <v>       0.01092399 </v>
   <v>       0.01092399 </v>
   <v>       0.01092399 </v>
   <v>       0.01092399 </v>
   <v>       0.01092399 </v>
   <v>       0.01092399 </v>
   <v>       0.00546199 </v>
   <v>       0.00273100 </v>
   <v>       0.01092399 </v>
   <v>       0.01092399 </v>
   <v>       0.01092399 </v>
   <v>       0.01092399 </v>
   <v>       0.01092399 </v>
   <v>       0.01092399 </v>
   <v>       0.01092399 </v>
   <v>       0.01092399 </v>
   <v>       0.00546199 </v>
   <v>       0.00273100 </v>
   <v>       0.01092399 </v>
   <v>       0.01092399 </v>
   <v>       0.01092399 </v>
   <v>       0.01092399 </v>
   <v>       0.01092399 </v>
   <v>       0.01092399 </v>
   <v>       0.00546199 </v>
   <v>       0.00273100 </v>
   <v>       0.01092399 </v>
   <v>       0.01092399 </v>
   <v>       0.01092399 </v>
   <v>       0.01092399 </v>
   <v>       0.00546199 </v>
   <v>       0.00273100 </v>
   <v>       0.01092399 </v>
   <v>       0.01092399 </v>
   <v>       0.00546199 </v>
   <v>       0.00273100 </v>
   <v>       0.00546199 </v>
   <v>       0.01092399 </v>
   <v>       0.02184797 </v>
   <v>       0.02184797 </v>
   <v>       0.02184797 </v>
   <v>       0.02184797 </v>
   <v>       0.01092399 </v>
   <v>       0.02184797 </v>
   <v>       0.02184797 </v>
   <v>       0.02184797 </v>
   <v>       0.02184797 </v>
   <v>       0.02184797 </v>
   <v>       0.02184797 </v>
   <v>       0.01092399 </v>
   <v>       0.01092399 </v>
   <v>       0.02184797 </v>
   <v>       0.02184797 </v>
   <v>       0.02184797 </v>
   <v>       0.02184797 </v>
   <v>       0.01092399 </v>
   <v>       0.01092399 </v>
   <v>       0.02184797 </v>
   <v>       0.02184797 </v>
   <v>       0.01092399 </v>
   <v>       0.01092399 </v>
   <v>       0.01092399 </v>
   <v>       0.01092399 </v>
   <v>       0.02184797 </v>
   <v>       0.02184797 </v>
   <v>       0.01092399 </v>
   <v>       0.02184797 </v>
   <v>       0.02184797 </v>
   <v>       0.01092399 </v>
   <v>       0.01092399 </v>
   <v>       0.01092399 </v>
   <v>       0.01092399 </v>
  </varray>
 </kpoints>
 <parameters>
  <separator name="general" >
   <i type="string" name="SYSTEM">unknown system</i>
   <i type="logical" name="LCOMPAT"> F  </i>
  </separator>
  <separator name="electronic" >
   <i type="string" name="PREC">acc</i>
   <i name="ENMAX">    700.00000000</i>
   <i name="ENAUG">    380.87800000</i>
   <i name="EDIFF">      0.00000010</i>
   <i type="int" name="IALGO">    38</i>
   <i type="int" name="IWAVPR">    10</i>
   <i type="int" name="NBANDS">    16</i>
   <i type="int" name="NBANDSLOW">    -1</i>
   <i type="int" name="NBANDSHIGH">    -1</i>
   <i name="NELECT">     25.00000000</i>
   <i type="int" name="TURBO">     0</i>
   <i type="int" name="IRESTART">     0</i>
   <i type="int" name="NREBOOT">     0</i>
   <i type="int" name="NMIN">     0</i>
   <i name="EREF">      0.00000000</i>
   <separator name="electronic smearing" >
    <i type="int" name="ISMEAR">     0</i>
    <i name="SIGMA">      0.01000000</i>
    <i name="KSPACING">      0.50000000</i>
    <i type="logical" name="KGAMMA"> T  </i>
    <i type="logical" name="KBLOWUP"> T  </i>
   </separator>
   <separator name="electronic projectors" >
    <i type="logical" name="LREAL"> F  </i>
    <v name="ROPT">      0.00000000      0.00000000      0.00000000</v>
    <i type="int" name="LMAXPAW">  -100</i>
    <i type="int" name="LMAXMIX">     2</i>
    <i type="logical" name="NLSPLINE"> F  </i>
   </separator>
   <separator name="electronic startup" >
    <i type="int" name="ISTART">     0</i>
    <i type="int" name="ICHARG">     2</i>
    <i type="int" name="INIWAV">     1</i>
   </separator>
   <separator name="electronic spin" >
    <i type="int" name="ISPIN">     1</i>
    <i type="logical" name="LNONCOLLINEAR"> F  </i>
    <v name="MAGMOM">      1.00000000      1.00000000      1.00000000</v>
    <i name="NUPDOWN">     -1.00000000</i>
    <i type="logical" name="LSORBIT"> F  </i>
    <v name="SAXIS">      0.00000000      0.00000000      1.00000000</v>
    <i type="logical" name="LSPIRAL"> F  </i>
    <v name="QSPIRAL">      0.00000000      0.00000000      0.00000000</v>
    <i type="logical" name="LZEROZ"> F  </i>
   </separator>
   <separator name="electronic exchange-correlation" >
    <i type="logical" name="LASPH"> F  </i>
    <i type="logical" name="LMETAGGA"> F  </i>
   </separator>
   <separator name="electronic convergence" >
    <i type="int" name="NELM">    60</i>
    <i type="int" name="NELMDL">    -5</i>
    <i type="int" name="NELMIN">     5</i>
    <i name="ENINI">    700.00000000</i>
    <separator name="electronic convergence detail" >
     <i type="logical" name="LDIAG"> T  </i>
     <i type="logical" name="LSUBROT"> F  </i>
     <i name="WEIMIN">      0.00000000</i>
     <i name="EBREAK">      0.00000000</i>
     <i name="DEPER">      0.30000000</i>
     <i type="int" name="NRMM">     4</i>
     <i name="TIME">      0.40000000</i>
    </separator>
   </separator>
   <separator name="electronic mixer" >
    <i name="AMIX">      0.40000000</i>
    <i name="BMIX">      1.00000000</i>
    <i name="AMIN">      0.10000000</i>
    <i name="AMIX_MAG">      1.60000000</i>
    <i name="BMIX_MAG">      1.00000000</i>
    <separator name="electronic mixer details" >
     <i type="int" name="IMIX">     4</i>
     <i type="logical" name="MIXFIRST"> F  </i>
     <i type="int" name="MAXMIX">   -45</i>
     <i name="WC">    100.00000000</i>
     <i type="int" name="INIMIX">     1</i>
     <i type="int" name="MIXPRE">     1</i>
     <i type="int" name="MREMOVE">     5</i>
    </separator>
   </separator>
   <separator name="electronic dipolcorrection" >
    <i type="logical" name="LDIPOL"> F  </i>
    <i type="logical" name="LMONO"> F  </i>
    <i type="int" name="IDIPOL">     0</i>
    <i name="EPSILON">      1.00000000</i>
    <v name="DIPOL">   -100.00000000   -100.00000000   -100.00000000</v>
    <i name="EFIELD">      0.00000000</i>
   </separator>
  </separator>
  <separator name="grids" >
   <i type="int" name="NGX">    40</i>
   <i type="int" name="NGY">    40</i>
   <i type="int" name="NGZ">    40</i>
   <i type="int" name="NGXF">    80</i>
   <i type="int" name="NGYF">    80</i>
   <i type="int" name="NGZF">    80</i>
   <i type="logical" name="ADDGRID"> T  </i>
  </separator>
  <separator name="ionic" >
   <i type="int" name="NSW">     0</i>
   <i type="int" name="IBRION">    -1</i>
   <i type="int" name="MDALGO">     0</i>
   <i type="int" name="ISIF">     3</i>
   <i name="PSTRESS">      0.00000000</i>
   <i name="EDIFFG">      0.00000100</i>
   <i type="int" name="NFREE">     0</i>
   <i name="POTIM">      0.50000000</i>
   <i name="SMASS">     -3.00000000</i>
   <i name="SCALEE">      1.00000000</i>
  </separator>
  <separator name="ionic md" >
   <i name="TEBEG">      0.00010000</i>
   <i name="TEEND">      0.00010000</i>
   <i type="int" name="NBLOCK">     1</i>
   <i type="int" name="KBLOCK">     1</i>
   <i type="int" name="NPACO">   256</i>
   <i name="APACO">     16.00000000</i>
  </separator>
  <separator name="symmetry" >
   <i type="int" name="ISYM">     2</i>
   <i name="SYMPREC">      0.00001000</i>
  </separator>
  <separator name="dos" >
   <i type="int" name="LORBIT">     0</i>
   <v name="RWIGS">     -1.00000000     -1.00000000     -1.00000000</v>
   <i type="int" name="NEDOS">   301</i>
   <i name="EMIN">     10.00000000</i>
   <i name="EMAX">    -10.00000000</i>
   <i name="EFERMI">      0.00000000</i>
  </separator>
  <separator name="writing" >
   <i type="int" name="NWRITE">     2</i>
   <i type="logical" name="LWAVE"> F  </i>
   <i type="logical" name="LDOWNSAMPLE"> F  </i>
   <i type="logical" name="LCHARG"> F  </i>
   <i type="logical" name="LPARD"> F  </i>
   <i type="logical" name="LVTOT"> F  </i>
   <i type="logical" name="LVHAR"> F  </i>
   <i type="logical" name="LELF"> F  </i>
   <i type="logical" name="LOPTICS"> F  </i>
   <v name="STM">      0.00000000      0.00000000      0.00000000      0.00000000      0.00000000      0.00000000      0.00000000</v>
  </separator>
  <separator name="performance" >
   <i type="int" name="NPAR">     4</i>
   <i type="int" name="NSIM">     4</i>
   <i type="int" name="NBLK">    -1</i>
   <i type="logical" name="LPLANE"> T  </i>
   <i type="logical" name="LSCALAPACK"> T  </i>
   <i type="logical" name="LSCAAWARE"> F  </i>
   <i type="logical" name="LSCALU"> F  </i>
   <i type="logical" name="LASYNC"> F  </i>
   <i type="logical" name="LORBITALREAL"> F  </i>
  </separator>
  <separator name="miscellaneous" >
   <i type="int" name="IDIOT">     3</i>
   <i type="int" name="PHON_NSTRUCT">    -1</i>
   <i type="logical" name="LMUSIC"> F  </i>
   <v name="POMASS">    178.49000000    121.75000000    195.08000000</v>
   <v name="DARWINR">      0.00000000      0.00000000      0.00000000</v>
   <v name="DARWINV">      1.00000000      1.00000000      1.00000000</v>
   <i type="logical" name="LCORR"> T  </i>
  </separator>
  <i type="logical" name="GGA_COMPAT"> T  </i>
  <i type="logical" name="LBERRY"> F  </i>
  <i type="int" name="ICORELEVEL">     0</i>
  <i type="logical" name="LDAU"> F  </i>
  <i type="int" name="I_CONSTRAINED_M">     0</i>
  <separator name="electronic exchange-correlation" >
   <i type="string" name="GGA">PS</i>
   <i type="int" name="VOSKOWN">     0</i>
   <i type="logical" name="LHFCALC"> F  </i>
   <i type="string" name="PRECFOCK"></i>
   <i type="logical" name="LSYMGRAD"> F  </i>
   <i type="logical" name="LHFONE"> F  </i>
   <i type="logical" name="LRHFCALC"> F  </i>
   <i type="logical" name="LTHOMAS"> F  </i>
   <i type="logical" name="LMODELHF"> F  </i>
   <i type="logical" name="LFOCKACE"> F  </i>
   <i name="ENCUT4O">     -1.00000000</i>
   <i type="int" name="EXXOEP">     0</i>
   <i type="int" name="FOURORBIT">     0</i>
   <i name="AEXX">      0.00000000</i>
   <i name="HFALPHA">      0.00000000</i>
   <i name="MCALPHA">      0.00000000</i>
   <i name="ALDAX">      1.00000000</i>
   <i name="AGGAX">      1.00000000</i>
   <i name="ALDAC">      1.00000000</i>
   <i name="AGGAC">      1.00000000</i>
   <i type="int" name="NKREDX">     1</i>
   <i type="int" name="NKREDY">     1</i>
   <i type="int" name="NKREDZ">     1</i>
   <i type="logical" name="SHIFTRED"> F  </i>
   <i type="logical" name="ODDONLY"> F  </i>
   <i type="logical" name="EVENONLY"> F  </i>
   <i type="int" name="LMAXFOCK">     0</i>
   <i type="int" name="NMAXFOCKAE">     0</i>
   <i type="logical" name="LFOCKAEDFT"> F  </i>
   <i name="HFSCREEN">      0.00000000</i>
   <i name="HFSCREENC">      0.00000000</i>
   <i type="int" name="NBANDSGWLOW">     0</i>
  </separator>
  <separator name="vdW DFT" >
   <i type="logical" name="LUSE_VDW"> F  </i>
   <i name="Zab_VDW">     -0.84910000</i>
   <i name="PARAM1">      0.12340000</i>
   <i name="PARAM2">      1.00000000</i>
   <i name="PARAM3">      0.00000000</i>
  </separator>
  <separator name="model GW" >
   <i type="int" name="MODEL_GW">     0</i>
   <i name="MODEL_EPS0">     12.07163095</i>
   <i name="MODEL_ALPHA">      1.00000000</i>
  </separator>
  <separator name="linear response parameters" >
   <i type="logical" name="LEPSILON"> F  </i>
   <i type="logical" name="LRPA"> F  </i>
   <i type="logical" name="LNABLA"> F  </i>
   <i type="logical" name="LVEL"> F  </i>
   <i type="int" name="KINTER">     0</i>
   <i name="CSHIFT">      0.10000000</i>
   <i name="OMEGAMAX">     -1.00000000</i>
   <i name="DEG_THRESHOLD">      0.00200000</i>
   <i name="RTIME">     -0.10000000</i>
   <i name="WPLASMAI">      0.00000000</i>
   <v name="DFIELD">      0.00000000      0.00000000      0.00000000</v>
   <v name="WPLASMA">      0.00000000      0.00000000      0.00000000      0.00000000      0.00000000      0.00000000      0.00000000      0.00000000      0.00000000</v>
  </separator>
  <separator name="orbital magnetization" >
   <i type="logical" name="NUCIND"> F  </i>
   <v name="MAGPOS">      0.00000000      0.00000000      0.00000000</v>
   <i type="logical" name="LNICSALL"> T  </i>
   <i type="logical" name="ORBITALMAG"> F  </i>
   <i type="logical" name="LMAGBLOCH"> F  </i>
   <i type="logical" name="LCHIMAG"> F  </i>
   <i type="logical" name="LGAUGE"> T  </i>
   <i type="int" name="MAGATOM">     0</i>
   <v name="MAGDIPOL">      0.00000000      0.00000000      0.00000000</v>
   <v name="AVECCONST">      0.00000000      0.00000000      0.00000000</v>
  </separator>
  <separator name="response functions" >
   <i type="logical" name="LFINITE_TEMPERATURE"> F  </i>
   <i type="logical" name="LADDER"> F  </i>
   <i type="logical" name="LRPAFORCE"> F  </i>
   <i type="logical" name="LFXC"> F  </i>
   <i type="logical" name="LHARTREE"> T  </i>
   <i type="int" name="IBSE">     0</i>
   <v type="int" name="KPOINT">    -1     0     0     0</v>
   <i type="logical" name="LTCTC"> F  </i>
   <i type="logical" name="LTCTE"> F  </i>
   <i type="logical" name="LTETE"> F  </i>
   <i type="logical" name="LTRIPLET"> F  </i>
   <i type="logical" name="LFXCEPS"> F  </i>
   <i type="logical" name="LFXHEG"> F  </i>
   <i type="int" name="NATURALO">     2</i>
   <i type="logical" name="L2ORDER"> F  </i>
   <i type="logical" name="LDMP1"> F  </i>
   <i type="logical" name="LMP2LT"> F  </i>
   <i type="logical" name="LSMP2LT"> F  </i>
   <i type="logical" name="LUSEW"> F  </i>
   <i name="ENCUTGW">     -2.00000000</i>
   <i name="ENCUTGWSOFT">     -2.00000000</i>
   <i name="ENCUTLF">     -1.00000000</i>
   <i type="int" name="LMAXMP2">    -1</i>
   <i name="SCISSOR">      0.00000000</i>
   <i type="int" name="NOMEGA">     0</i>
   <i type="int" name="NOMEGAR">     0</i>
   <i type="int" name="NBANDSGW">    -1</i>
   <i type="int" name="NBANDSO">    -1</i>
   <i type="int" name="NBANDSV">    -1</i>
   <i type="int" name="NELM">     1</i>
   <i type="int" name="NELMHF">     1</i>
   <i type="int" name="DIM">     3</i>
   <i type="int" name="IESPILON">     4</i>
   <i type="int" name="ANTIRES">     0</i>
   <i name="OMEGAMAX">    -30.00000000</i>
   <i name="OMEGAMIN">    -30.00000000</i>
   <i name="OMEGATL">   -200.00000000</i>
   <i type="int" name="OMEGAGRID">   145</i>
   <i name="CSHIFT">     -0.10000000</i>
   <i type="logical" name="LSELFENERGY"> F  </i>
   <i type="logical" name="LSPECTRAL"> F  </i>
   <i type="logical" name="LSPECTRALGW"> F  </i>
   <i type="logical" name="LSINGLES"> F  </i>
   <i type="logical" name="LFERMIGW"> F  </i>
   <i type="logical" name="ODDONLYGW"> F  </i>
   <i type="logical" name="EVENONLYGW"> F  </i>
   <i type="int" name="NKREDLFX">     1</i>
   <i type="int" name="NKREDLFY">     1</i>
   <i type="int" name="NKREDLFZ">     1</i>
   <i type="int" name="MAXMEM">  2800</i>
   <i type="int" name="TELESCOPE">     0</i>
   <i type="int" name="NTAUPAR">     1</i>
   <i type="int" name="NOMEGAPAR">    -1</i>
   <i name="LAMBDA">      1.00000000</i>
  </separator>
  <separator name="External order field" >
   <i name="OFIELD_KAPPA">      0.00000000</i>
   <v name="OFIELD_K">      0.00000000      0.00000000      0.00000000</v>
   <i name="OFIELD_Q6_NEAR">      0.00000000</i>
   <i name="OFIELD_Q6_FAR">      0.00000000</i>
   <i name="OFIELD_A">      0.00000000</i>
  </separator>
 </parameters>
 <atominfo>
  <atoms>       3 </atoms>
  <types>       3 </types>
  <array name="atoms" >
   <dimension dim="1">ion</dimension>
   <field type="string">element</field>
   <field type="int">atomtype</field>
   <set>
    <rc><c>Hf</c><c>   1</c></rc>
    <rc><c>Sb</c><c>   2</c></rc>
    <rc><c>Pt</c><c>   3</c></rc>
   </set>
  </array>
  <array name="atomtypes" >
   <dimension dim="1">type</dimension>
   <field type="int">atomspertype</field>
   <field type="string">element</field>
   <field>mass</field>
   <field>valence</field>
   <field type="string">pseudopotential</field>
   <set>
    <rc><c>   1</c><c>Hf</c><c>    178.49000000</c><c>     10.00000000</c><c>  PAW_PBE Hf_pv 06Sep2000               </c></rc>
    <rc><c>   1</c><c>Sb</c><c>    121.75000000</c><c>      5.00000000</c><c>  PAW_PBE Sb 06Sep2000                  </c></rc>
    <rc><c>   1</c><c>Pt</c><c>    195.08000000</c><c>     10.00000000</c><c>  PAW_PBE Pt 04Feb2005                  </c></rc>
   </set>
  </array>
 </atominfo>
 <structure name="initialpos" >
  <crystal>
   <varray name="basis" >
    <v>       0.00000000       3.11340286       3.11340286 </v>
    <v>       3.11340286       0.00000000       3.11340286 </v>
    <v>       3.11340286       3.11340286       0.00000000 </v>
   </varray>
   <i name="volume">     60.35815473 </i>
   <varray name="rec_basis" >
    <v>      -0.16059599       0.16059599       0.16059599 </v>
    <v>       0.16059599      -0.16059599       0.16059599 </v>
    <v>       0.16059599       0.16059599      -0.16059599 </v>
   </varray>
  </crystal>
  <varray name="positions" >
   <v>       0.75000000       0.75000000       0.75000000 </v>
   <v>       0.25000000       0.25000000       0.25000000 </v>
   <v>       0.00000000       0.00000000       0.00000000 </v>
  </varray>
 </structure>
 <calculation>
  <scstep>
   <time name="dav">    0.91    0.93</time>
   <time name="total">    1.03    1.12</time>
   <energy>
    <i name="alphaZ">    112.87213063 </i>
    <i name="ewald">  -1596.98561175 </i>
    <i name="hartreedc">   -312.50744645 </i>
    <i name="XCdc">    -18.44626850 </i>
    <i name="pawpsdc">   1514.36848356 </i>
    <i name="pawaedc">  -1421.27055995 </i>
    <i name="eentropy">     -0.00002348 </i>
    <i name="bandstr">    123.63217072 </i>
    <i name="atom">   1741.10451121 </i>
    <i name="e_fr_energy">    142.76738598 </i>
    <i name="e_wo_entrp">    142.76740946 </i>
    <i name="e_0_energy">    142.76739772 </i>
   </energy>
  </scstep>
  <scstep>
   <time name="dav">    1.08    1.10</time>
   <time name="total">    1.08    1.10</time>
   <energy>
    <i name="e_fr_energy">    -20.18781843 </i>
    <i name="e_wo_entrp">    -20.18774497 </i>
    <i name="e_0_energy">    -20.18778170 </i>
   </energy>
  </scstep>
  <scstep>
   <time name="dav">    1.11    1.14</time>
   <time name="total">    1.12    1.14</time>
   <energy>
    <i name="e_fr_energy">    -24.72027178 </i>
    <i name="e_wo_entrp">    -24.71993480 </i>
    <i name="e_0_energy">    -24.72010329 </i>
   </energy>
  </scstep>
  <scstep>
   <time name="dav">    1.06    1.07</time>
   <time name="total">    1.06    1.08</time>
   <energy>
    <i name="e_fr_energy">    -24.78473315 </i>
    <i name="e_wo_entrp">    -24.78442795 </i>
    <i name="e_0_energy">    -24.78458055 </i>
   </energy>
  </scstep>
  <scstep>
   <time name="dav">    1.14    1.16</time>
   <time name="total">    1.39    1.41</time>
   <energy>
    <i name="e_fr_energy">    -24.78628654 </i>
    <i name="e_wo_entrp">    -24.78598478 </i>
    <i name="e_0_energy">    -24.78613566 </i>
   </energy>
  </scstep>
  <scstep>
   <time name="dav">    1.08    1.08</time>
   <time name="total">    1.41    1.44</time>
   <energy>
    <i name="e_fr_energy">    -24.11683316 </i>
    <i name="e_wo_entrp">    -24.11654217 </i>
    <i name="e_0_energy">    -24.11668767 </i>
   </energy>
  </scstep>
  <scstep>
   <time name="dav">    1.13    1.13</time>
   <time name="total">    1.44    1.46</time>
   <energy>
    <i name="e_fr_energy">    -23.98661083 </i>
    <i name="e_wo_entrp">    -23.98624940 </i>
    <i name="e_0_energy">    -23.98643011 </i>
   </energy>
  </scstep>
  <scstep>
   <time name="dav">    1.11    1.11</time>
   <time name="total">    1.45    1.48</time>
   <energy>
    <i name="e_fr_energy">    -23.95378223 </i>
    <i name="e_wo_entrp">    -23.95363991 </i>
    <i name="e_0_energy">    -23.95371107 </i>
   </energy>
  </scstep>
  <scstep>
   <time name="dav">    0.97    0.97</time>
   <time name="total">    1.30    1.32</time>
   <energy>
    <i name="e_fr_energy">    -23.94736823 </i>
    <i name="e_wo_entrp">    -23.94721286 </i>
    <i name="e_0_energy">    -23.94729055 </i>
   </energy>
  </scstep>
  <scstep>
   <time name="dav">    1.14    1.14</time>
   <time name="total">    1.43    1.46</time>
   <energy>
    <i name="e_fr_energy">    -23.94703800 </i>
    <i name="e_wo_entrp">    -23.94686385 </i>
    <i name="e_0_energy">    -23.94695093 </i>
   </energy>
  </scstep>
  <scstep>
   <time name="dav">    0.97    0.97</time>
   <time name="total">    1.27    1.30</time>
   <energy>
    <i name="e_fr_energy">    -23.94701779 </i>
    <i name="e_wo_entrp">    -23.94684779 </i>
    <i name="e_0_energy">    -23.94693279 </i>
   </energy>
  </scstep>
  <scstep>
   <time name="dav">    1.16    1.16</time>
   <time name="total">    1.46    1.48</time>
   <energy>
    <i name="e_fr_energy">    -23.94700989 </i>
    <i name="e_wo_entrp">    -23.94684339 </i>
    <i name="e_0_energy">    -23.94692664 </i>
   </energy>
  </scstep>
  <scstep>
   <time name="dav">    0.93    0.93</time>
   <time name="total">    1.23    1.25</time>
   <energy>
    <i name="e_fr_energy">    -23.94700826 </i>
    <i name="e_wo_entrp">    -23.94684165 </i>
    <i name="e_0_energy">    -23.94692496 </i>
   </energy>
  </scstep>
  <scstep>
   <time name="dav">    1.14    1.15</time>
   <time name="total">    1.44    1.46</time>
   <energy>
    <i name="e_fr_energy">    -23.94700816 </i>
    <i name="e_wo_entrp">    -23.94684131 </i>
    <i name="e_0_energy">    -23.94692473 </i>
   </energy>
  </scstep>
  <scstep>
   <time name="dav">    0.70    0.70</time>
   <time name="total">    0.80    0.84</time>
   <energy>
    <i name="alphaZ">    112.87213063 </i>
    <i name="ewald">  -1596.98561175 </i>
    <i name="hartreedc">   -292.48609169 </i>
    <i name="XCdc">    -18.99419986 </i>
    <i name="pawpsdc">   2896.34730668 </i>
    <i name="pawaedc">  -2809.04863401 </i>
    <i name="eentropy">     -0.00016685 </i>
    <i name="bandstr">    -56.75625255 </i>
    <i name="atom">   1741.10451121 </i>
    <i name="e_fr_energy">    -23.94700818 </i>
    <i name="e_wo_entrp">    -23.94684133 </i>
    <i name="e_0_energy">    -23.94692476 </i>
   </energy>
  </scstep>
  <structure>
   <crystal>
    <varray name="basis" >
     <v>       0.00000000       3.11340286       3.11340286 </v>
     <v>       3.11340286       0.00000000       3.11340286 </v>
     <v>       3.11340286       3.11340286       0.00000000 </v>
    </varray>
    <i name="volume">     60.35815473 </i>
    <varray name="rec_basis" >
     <v>      -0.16059599       0.16059599       0.16059599 </v>
     <v>       0.16059599      -0.16059599       0.16059599 </v>
     <v>       0.16059599       0.16059599      -0.16059599 </v>
    </varray>
   </crystal>
   <varray name="positions" >
    <v>       0.75000000       0.75000000       0.75000000 </v>
    <v>       0.25000000       0.25000000       0.25000000 </v>
    <v>       0.00000000       0.00000000       0.00000000 </v>
   </varray>
  </structure>
  <varray name="forces" >
   <v>      -0.00000000      -0.00000000      -0.00000000 </v>
   <v>      -0.00000000      -0.00000000      -0.00000000 </v>
   <v>       0.00000000       0.00000000       0.00000000 </v>
  </varray>
  <varray name="stress" >
   <v>      98.58066789       0.00000000      -0.00000000 </v>
   <v>       0.00000000      98.58066789      -0.00000000 </v>
   <v>      -0.00000000      -0.00000000      98.58066789 </v>
  </varray>
  <energy>
   <i name="e_fr_energy">    -23.94700818 </i>
   <i name="e_wo_entrp">    -23.94692476 </i>
   <i name="e_0_energy">     -0.00016685 </i>
  </energy>
  <time name="totalsc">   21.80   23.45</time>
  <eigenvalues>
   <array>
    <dimension dim="1">band</dimension>
    <dimension dim="2">kpoint</dimension>
    <dimension dim="3">spin</dimension>
    <field>eigene</field>
    <field>occ</field>
    <set>
     <set comment="spin 1">
      <set comment="kpoint 1">
       <r>  -22.3430    1.0000 </r>
       <r>  -22.3430    1.0000 </r>
       <r>  -22.3430    1.0000 </r>
       <r>   -3.5374    1.0000 </r>
       <r>    3.3294    1.0000 </r>
       <r>    3.3294    1.0000 </r>
       <r>    3.3294    1.0000 </r>
       <r>    4.1419    1.0000 </r>
       <r>    4.1419    1.0000 </r>
       <r>    7.9771    1.0000 </r>
       <r>    7.9771    1.0000 </r>
       <r>    7.9771    1.0000 </r>
       <r>    9.2091    1.0000 </r>
       <r>   10.7571    0.0000 </r>
       <r>   10.7571    0.0000 </r>
       <r>   10.7571    0.0000 </r>
      </set>
      <set comment="kpoint 2">
       <r>  -22.3444    1.0000 </r>
       <r>  -22.3429    1.0000 </r>
       <r>  -22.3429    1.0000 </r>
       <r>   -3.4664    1.0000 </r>
       <r>    3.2531    1.0000 </r>
       <r>    3.2930    1.0000 </r>
       <r>    3.2930    1.0000 </r>
       <r>    4.1917    1.0000 </r>
       <r>    4.1917    1.0000 </r>
       <r>    7.4623    1.0000 </r>
       <r>    7.9117    1.0000 </r>
       <r>    7.9117    1.0000 </r>
       <r>    9.3494    1.0000 </r>
       <r>   10.5835    0.0000 </r>
       <r>   10.5835    0.0000 </r>
       <r>   11.2010    0.0000 </r>
      </set>
      <set comment="kpoint 3">
       <r>  -22.3485    1.0000 </r>
       <r>  -22.3426    1.0000 </r>
       <r>  -22.3426    1.0000 </r>
       <r>   -3.2606    1.0000 </r>
       <r>    3.0394    1.0000 </r>
       <r>    3.2176    1.0000 </r>
       <r>    3.2176    1.0000 </r>
       <r>    4.2990    1.0000 </r>
       <r>    4.2990    1.0000 </r>
       <r>    6.5621    1.0000 </r>
       <r>    7.7485    1.0000 </r>
       <r>    7.7485    1.0000 </r>
       <r>    9.5090    1.0000 </r>
       <r>   10.4708    0.0000 </r>
       <r>   10.4708    0.0000 </r>
       <r>   11.9995    0.0000 </r>
      </set>
      <set comment="kpoint 4">
       <r>  -22.3541    1.0000 </r>
       <r>  -22.3422    1.0000 </r>
       <r>  -22.3422    1.0000 </r>
       <r>   -2.9431    1.0000 </r>
       <r>    2.7215    1.0000 </r>
       <r>    3.1513    1.0000 </r>
       <r>    3.1513    1.0000 </r>
       <r>    4.3945    1.0000 </r>
       <r>    4.3945    1.0000 </r>
       <r>    5.7202    1.0000 </r>
       <r>    7.5609    1.0000 </r>
       <r>    7.5609    1.0000 </r>
       <r>    9.6437    1.0000 </r>
       <r>   10.4936    0.0000 </r>
       <r>   10.4936    0.0000 </r>
       <r>   12.6912    0.0000 </r>
      </set>
      <set comment="kpoint 5">
       <r>  -22.3600    1.0000 </r>
       <r>  -22.3418    1.0000 </r>
       <r>  -22.3418    1.0000 </r>
       <r>   -2.5582    1.0000 </r>
       <r>    2.3374    1.0000 </r>
       <r>    3.1153    1.0000 </r>
       <r>    3.1153    1.0000 </r>
       <r>    4.4375    1.0000 </r>
       <r>    4.4375    1.0000 </r>
       <r>    5.0700    1.0000 </r>
       <r>    7.4131    1.0000 </r>
       <r>    7.4131    1.0000 </r>
       <r>    9.7695    1.0000 </r>
       <r>   10.6210    0.0000 </r>
       <r>   10.6210    0.0000 </r>
       <r>   12.2141    0.0000 </r>
      </set>
      <set comment="kpoint 6">
       <r>  -22.3648    1.0000 </r>
       <r>  -22.3414    1.0000 </r>
       <r>  -22.3414    1.0000 </r>
       <r>   -2.1820    1.0000 </r>
       <r>    1.9543    1.0000 </r>
       <r>    3.1076    1.0000 </r>
       <r>    3.1076    1.0000 </r>
       <r>    4.4296    1.0000 </r>
       <r>    4.4296    1.0000 </r>
       <r>    4.6528    1.0000 </r>
       <r>    7.3286    1.0000 </r>
       <r>    7.3286    1.0000 </r>
       <r>    9.8979    0.0000 </r>
       <r>   10.8022    0.0000 </r>
       <r>   10.8022    0.0000 </r>
       <r>   11.4224    0.0000 </r>
      </set>
      <set comment="kpoint 7">
       <r>  -22.3675    1.0000 </r>
       <r>  -22.3413    1.0000 </r>
       <r>  -22.3413    1.0000 </r>
       <r>   -1.9335    1.0000 </r>
       <r>    1.6973    1.0000 </r>
       <r>    3.1121    1.0000 </r>
       <r>    3.1121    1.0000 </r>
       <r>    4.4075    1.0000 </r>
       <r>    4.4075    1.0000 </r>
       <r>    4.4561    1.0000 </r>
       <r>    7.2952    1.0000 </r>
       <r>    7.2952    1.0000 </r>
       <r>   10.0192    0.0000 </r>
       <r>   10.9289    0.0000 </r>
       <r>   10.9468    0.0000 </r>
       <r>   10.9468    0.0000 </r>
      </set>
      <set comment="kpoint 8">
       <r>  -22.3444    1.0000 </r>
       <r>  -22.3431    1.0000 </r>
       <r>  -22.3431    1.0000 </r>
       <r>   -3.4431    1.0000 </r>
       <r>    3.0913    1.0000 </r>
       <r>    3.3622    1.0000 </r>
       <r>    3.3622    1.0000 </r>
       <r>    4.1777    1.0000 </r>
       <r>    4.2167    1.0000 </r>
       <r>    7.5239    1.0000 </r>
       <r>    7.7755    1.0000 </r>
       <r>    7.7755    1.0000 </r>
       <r>    9.3799    1.0000 </r>
       <r>   10.4841    0.0000 </r>
       <r>   11.0012    0.0000 </r>
       <r>   11.0564    0.0000 </r>
      </set>
      <set comment="kpoint 9">
       <r>  -22.3474    1.0000 </r>
       <r>  -22.3431    1.0000 </r>
       <r>  -22.3429    1.0000 </r>
       <r>   -3.2835    1.0000 </r>
       <r>    2.8713    1.0000 </r>
       <r>    3.3346    1.0000 </r>
       <r>    3.3596    1.0000 </r>
       <r>    4.2526    1.0000 </r>
       <r>    4.2882    1.0000 </r>
       <r>    6.8333    1.0000 </r>
       <r>    7.5807    1.0000 </r>
       <r>    7.6670    1.0000 </r>
       <r>    9.5594    1.0000 </r>
       <r>   10.3273    0.0000 </r>
       <r>   10.7463    0.0000 </r>
       <r>   11.5940    0.0000 </r>
      </set>
      <set comment="kpoint 10">
       <r>  -22.3524    1.0000 </r>
       <r>  -22.3429    1.0000 </r>
       <r>  -22.3425    1.0000 </r>
       <r>   -3.0054    1.0000 </r>
       <r>    2.6293    1.0000 </r>
       <r>    3.2273    1.0000 </r>
       <r>    3.3175    1.0000 </r>
       <r>    4.3538    1.0000 </r>
       <r>    4.3771    1.0000 </r>
       <r>    6.0012    1.0000 </r>
       <r>    7.4002    1.0000 </r>
       <r>    7.5000    1.0000 </r>
       <r>    9.8011    0.9998 </r>
       <r>   10.3008    0.0000 </r>
       <r>   10.6128    0.0000 </r>
       <r>   12.2063    0.0000 </r>
      </set>
      <set comment="kpoint 11">
       <r>  -22.3580    1.0000 </r>
       <r>  -22.3425    1.0000 </r>
       <r>  -22.3422    1.0000 </r>
       <r>   -2.6460    1.0000 </r>
       <r>    2.3504    1.0000 </r>
       <r>    3.1200    1.0000 </r>
       <r>    3.2717    1.0000 </r>
       <r>    4.4160    1.0000 </r>
       <r>    4.4393    1.0000 </r>
       <r>    5.2931    1.0000 </r>
       <r>    7.2803    1.0000 </r>
       <r>    7.3287    1.0000 </r>
       <r>    9.8631    0.0000 </r>
       <r>   10.5673    0.0000 </r>
       <r>   10.6146    0.0000 </r>
       <r>   12.3047    0.0000 </r>
      </set>
      <set comment="kpoint 12">
       <r>  -22.3631    1.0000 </r>
       <r>  -22.3421    1.0000 </r>
       <r>  -22.3421    1.0000 </r>
       <r>   -2.2693    1.0000 </r>
       <r>    2.0420    1.0000 </r>
       <r>    3.0650    1.0000 </r>
       <r>    3.2303    1.0000 </r>
       <r>    4.4269    1.0000 </r>
       <r>    4.4500    1.0000 </r>
       <r>    4.7983    1.0000 </r>
       <r>    7.2051    1.0000 </r>
       <r>    7.2276    1.0000 </r>
       <r>    9.8950    0.0000 </r>
       <r>   10.7340    0.0000 </r>
       <r>   10.8759    0.0000 </r>
       <r>   11.6140    0.0000 </r>
      </set>
      <set comment="kpoint 13">
       <r>  -22.3664    1.0000 </r>
       <r>  -22.3422    1.0000 </r>
       <r>  -22.3416    1.0000 </r>
       <r>   -1.9768    1.0000 </r>
       <r>    1.7851    1.0000 </r>
       <r>    3.0688    1.0000 </r>
       <r>    3.1830    1.0000 </r>
       <r>    4.4120    1.0000 </r>
       <r>    4.4219    1.0000 </r>
       <r>    4.5417    1.0000 </r>
       <r>    7.1360    1.0000 </r>
       <r>    7.2194    1.0000 </r>
       <r>    9.9905    0.0000 </r>
       <r>   10.8088    0.0000 </r>
       <r>   10.9013    0.0000 </r>
       <r>   11.3238    0.0000 </r>
      </set>
      <set comment="kpoint 14">
       <r>  -22.3672    1.0000 </r>
       <r>  -22.3424    1.0000 </r>
       <r>  -22.3413    1.0000 </r>
       <r>   -1.8904    1.0000 </r>
       <r>    1.7079    1.0000 </r>
       <r>    3.1139    1.0000 </r>
       <r>    3.1224    1.0000 </r>
       <r>    4.3735    1.0000 </r>
       <r>    4.4378    1.0000 </r>
       <r>    4.4897    1.0000 </r>
       <r>    7.0988    1.0000 </r>
       <r>    7.2378    1.0000 </r>
       <r>   10.0799    0.0000 </r>
       <r>   10.6101    0.0000 </r>
       <r>   10.9790    0.0000 </r>
       <r>   11.3712    0.0000 </r>
      </set>
      <set comment="kpoint 15">
       <r>  -22.3654    1.0000 </r>
       <r>  -22.3427    1.0000 </r>
       <r>  -22.3412    1.0000 </r>
       <r>   -2.0565    1.0000 </r>
       <r>    1.8636    1.0000 </r>
       <r>    3.0604    1.0000 </r>
       <r>    3.1807    1.0000 </r>
       <r>    4.3826    1.0000 </r>
       <r>    4.4730    1.0000 </r>
       <r>    4.6071    1.0000 </r>
       <r>    7.0720    1.0000 </r>
       <r>    7.2907    1.0000 </r>
       <r>   10.0012    0.0000 </r>
       <r>   10.8309    0.0000 </r>
       <r>   10.8799    0.0000 </r>
       <r>   11.3656    0.0000 </r>
      </set>
      <set comment="kpoint 16">
       <r>  -22.3615    1.0000 </r>
       <r>  -22.3431    1.0000 </r>
       <r>  -22.3413    1.0000 </r>
       <r>   -2.3905    1.0000 </r>
       <r>    2.1671    1.0000 </r>
       <r>    3.0214    1.0000 </r>
       <r>    3.2572    1.0000 </r>
       <r>    4.3924    1.0000 </r>
       <r>    4.4932    1.0000 </r>
       <r>    4.9439    1.0000 </r>
       <r>    7.0622    1.0000 </r>
       <r>    7.4009    1.0000 </r>
       <r>    9.9492    0.0000 </r>
       <r>   10.6716    0.0000 </r>
       <r>   10.7950    0.0000 </r>
       <r>   11.8535    0.0000 </r>
      </set>
      <set comment="kpoint 17">
       <r>  -22.3561    1.0000 </r>
       <r>  -22.3434    1.0000 </r>
       <r>  -22.3416    1.0000 </r>
       <r>   -2.7709    1.0000 </r>
       <r>    2.5039    1.0000 </r>
       <r>    3.0262    1.0000 </r>
       <r>    3.3350    1.0000 </r>
       <r>    4.3680    1.0000 </r>
       <r>    4.4660    1.0000 </r>
       <r>    5.5106    1.0000 </r>
       <r>    7.1062    1.0000 </r>
       <r>    7.5760    1.0000 </r>
       <r>    9.9405    0.0000 </r>
       <r>   10.4564    0.0000 </r>
       <r>   10.6168    0.0000 </r>
       <r>   12.1955    0.0000 </r>
      </set>
      <set comment="kpoint 18">
       <r>  -22.3506    1.0000 </r>
       <r>  -22.3435    1.0000 </r>
       <r>  -22.3420    1.0000 </r>
       <r>   -3.1090    1.0000 </r>
       <r>    2.8125    1.0000 </r>
       <r>    3.0826    1.0000 </r>
       <r>    3.3944    1.0000 </r>
       <r>    4.2974    1.0000 </r>
       <r>    4.3867    1.0000 </r>
       <r>    6.2608    1.0000 </r>
       <r>    7.2473    1.0000 </r>
       <r>    7.7772    1.0000 </r>
       <r>    9.8216    0.7577 </r>
       <r>   10.3166    0.0000 </r>
       <r>   10.6047    0.0000 </r>
       <r>   11.6706    0.0000 </r>
      </set>
      <set comment="kpoint 19">
       <r>  -22.3464    1.0000 </r>
       <r>  -22.3433    1.0000 </r>
       <r>  -22.3425    1.0000 </r>
       <r>   -3.3508    1.0000 </r>
       <r>    3.0716    1.0000 </r>
       <r>    3.1819    1.0000 </r>
       <r>    3.3899    1.0000 </r>
       <r>    4.2210    1.0000 </r>
       <r>    4.2799    1.0000 </r>
       <r>    7.0203    1.0000 </r>
       <r>    7.5388    1.0000 </r>
       <r>    7.9157    1.0000 </r>
       <r>    9.5478    1.0000 </r>
       <r>   10.3376    0.0000 </r>
       <r>   10.7590    0.0000 </r>
       <r>   11.1971    0.0000 </r>
      </set>
      <set comment="kpoint 20">
       <r>  -22.3484    1.0000 </r>
       <r>  -22.3435    1.0000 </r>
       <r>  -22.3435    1.0000 </r>
       <r>   -3.1752    1.0000 </r>
       <r>    2.6069    1.0000 </r>
       <r>    3.4544    1.0000 </r>
       <r>    3.4544    1.0000 </r>
       <r>    4.2723    1.0000 </r>
       <r>    4.2806    1.0000 </r>
       <r>    6.7991    1.0000 </r>
       <r>    7.3616    1.0000 </r>
       <r>    7.3616    1.0000 </r>
       <r>    9.4381    1.0000 </r>
       <r>   10.4330    0.0000 </r>
       <r>   10.7970    0.0000 </r>
       <r>   11.7040    0.0000 </r>
      </set>
      <set comment="kpoint 21">
       <r>  -22.3521    1.0000 </r>
       <r>  -22.3436    1.0000 </r>
       <r>  -22.3435    1.0000 </r>
       <r>   -2.9492    1.0000 </r>
       <r>    2.3688    1.0000 </r>
       <r>    3.4427    1.0000 </r>
       <r>    3.4792    1.0000 </r>
       <r>    4.2984    1.0000 </r>
       <r>    4.3662    1.0000 </r>
       <r>    6.2356    1.0000 </r>
       <r>    7.1717    1.0000 </r>
       <r>    7.1881    1.0000 </r>
       <r>    9.5924    1.0000 </r>
       <r>   10.4360    0.0000 </r>
       <r>   10.6366    0.0000 </r>
       <r>   12.0819    0.0000 </r>
      </set>
      <set comment="kpoint 22">
       <r>  -22.3568    1.0000 </r>
       <r>  -22.3435    1.0000 </r>
       <r>  -22.3434    1.0000 </r>
       <r>   -2.6374    1.0000 </r>
       <r>    2.1710    1.0000 </r>
       <r>    3.3255    1.0000 </r>
       <r>    3.4575    1.0000 </r>
       <r>    4.3645    1.0000 </r>
       <r>    4.4413    1.0000 </r>
       <r>    5.5618    1.0000 </r>
       <r>    7.0067    1.0000 </r>
       <r>    7.0595    1.0000 </r>
       <r>    9.7897    1.0000 </r>
       <r>   10.5497    0.0000 </r>
       <r>   10.6469    0.0000 </r>
       <r>   12.2098    0.0000 </r>
      </set>
      <set comment="kpoint 23">
       <r>  -22.3613    1.0000 </r>
       <r>  -22.3439    1.0000 </r>
       <r>  -22.3430    1.0000 </r>
       <r>   -2.2944    1.0000 </r>
       <r>    2.0115    1.0000 </r>
       <r>    3.1810    1.0000 </r>
       <r>    3.4064    1.0000 </r>
       <r>    4.4191    1.0000 </r>
       <r>    4.4709    1.0000 </r>
       <r>    5.0044    1.0000 </r>
       <r>    6.8482    1.0000 </r>
       <r>    7.0272    1.0000 </r>
       <r>    9.8086    0.9943 </r>
       <r>   10.6115    0.0000 </r>
       <r>   11.1156    0.0000 </r>
       <r>   11.6922    0.0000 </r>
      </set>
      <set comment="kpoint 24">
       <r>  -22.3645    1.0000 </r>
       <r>  -22.3445    1.0000 </r>
       <r>  -22.3424    1.0000 </r>
       <r>   -2.0024    1.0000 </r>
       <r>    1.8902    1.0000 </r>
       <r>    3.0795    1.0000 </r>
       <r>    3.3237    1.0000 </r>
       <r>    4.4058    1.0000 </r>
       <r>    4.4815    1.0000 </r>
       <r>    4.6795    1.0000 </r>
       <r>    6.7376    1.0000 </r>
       <r>    7.0390    1.0000 </r>
       <r>    9.8469    0.0020 </r>
       <r>   10.8035    0.0000 </r>
       <r>   10.9793    0.0000 </r>
       <r>   11.6354    0.0000 </r>
      </set>
      <set comment="kpoint 25">
       <r>  -22.3656    1.0000 </r>
       <r>  -22.3453    1.0000 </r>
       <r>  -22.3418    1.0000 </r>
       <r>   -1.8599    1.0000 </r>
       <r>    1.8352    1.0000 </r>
       <r>    3.0683    1.0000 </r>
       <r>    3.2122    1.0000 </r>
       <r>    4.3277    1.0000 </r>
       <r>    4.5082    1.0000 </r>
       <r>    4.6145    1.0000 </r>
       <r>    6.6615    1.0000 </r>
       <r>    7.0702    1.0000 </r>
       <r>    9.9918    0.0000 </r>
       <r>   10.5599    0.0000 </r>
       <r>   10.9902    0.0000 </r>
       <r>   11.9020    0.0000 </r>
      </set>
      <set comment="kpoint 26">
       <r>  -22.3647    1.0000 </r>
       <r>  -22.3459    1.0000 </r>
       <r>  -22.3414    1.0000 </r>
       <r>   -1.9293    1.0000 </r>
       <r>    1.8877    1.0000 </r>
       <r>    3.0954    1.0000 </r>
       <r>    3.1555    1.0000 </r>
       <r>    4.3206    1.0000 </r>
       <r>    4.5478    1.0000 </r>
       <r>    4.6883    1.0000 </r>
       <r>    6.5879    1.0000 </r>
       <r>    7.1325    1.0000 </r>
       <r>   10.0855    0.0000 </r>
       <r>   10.6065    0.0000 </r>
       <r>   10.9859    0.0000 </r>
       <r>   11.8687    0.0000 </r>
      </set>
      <set comment="kpoint 27">
       <r>  -22.3619    1.0000 </r>
       <r>  -22.3461    1.0000 </r>
       <r>  -22.3411    1.0000 </r>
       <r>   -2.1797    1.0000 </r>
       <r>    2.0443    1.0000 </r>
       <r>    3.0055    1.0000 </r>
       <r>    3.3028    1.0000 </r>
       <r>    4.3488    1.0000 </r>
       <r>    4.5690    1.0000 </r>
       <r>    4.9345    1.0000 </r>
       <r>    6.5107    1.0000 </r>
       <r>    7.2539    1.0000 </r>
       <r>   10.1034    0.0000 </r>
       <r>   10.8038    0.0000 </r>
       <r>   11.0452    0.0000 </r>
       <r>   11.6948    0.0000 </r>
      </set>
      <set comment="kpoint 28">
       <r>  -22.3579    1.0000 </r>
       <r>  -22.3458    1.0000 </r>
       <r>  -22.3412    1.0000 </r>
       <r>   -2.5166    1.0000 </r>
       <r>    2.2694    1.0000 </r>
       <r>    2.9673    1.0000 </r>
       <r>    3.4388    1.0000 </r>
       <r>    4.3468    1.0000 </r>
       <r>    4.5464    1.0000 </r>
       <r>    5.3809    1.0000 </r>
       <r>    6.4918    1.0000 </r>
       <r>    7.4404    1.0000 </r>
       <r>   10.2411    0.0000 </r>
       <r>   10.5655    0.0000 </r>
       <r>   10.9562    0.0000 </r>
       <r>   11.8107    0.0000 </r>
      </set>
      <set comment="kpoint 29">
       <r>  -22.3539    1.0000 </r>
       <r>  -22.3448    1.0000 </r>
       <r>  -22.3415    1.0000 </r>
       <r>   -2.8479    1.0000 </r>
       <r>    2.5340    1.0000 </r>
       <r>    2.9934    1.0000 </r>
       <r>    3.4867    1.0000 </r>
       <r>    4.3157    1.0000 </r>
       <r>    4.4790    1.0000 </r>
       <r>    5.8954    1.0000 </r>
       <r>    6.6914    1.0000 </r>
       <r>    7.6468    1.0000 </r>
       <r>   10.3300    0.0000 </r>
       <r>   10.3701    0.0000 </r>
       <r>   10.5752    0.0000 </r>
       <r>   11.6186    0.0000 </r>
      </set>
      <set comment="kpoint 30">
       <r>  -22.3542    1.0000 </r>
       <r>  -22.3440    1.0000 </r>
       <r>  -22.3440    1.0000 </r>
       <r>   -2.7835    1.0000 </r>
       <r>    2.1380    1.0000 </r>
       <r>    3.5869    1.0000 </r>
       <r>    3.5869    1.0000 </r>
       <r>    4.2050    1.0000 </r>
       <r>    4.4356    1.0000 </r>
       <r>    6.1388    1.0000 </r>
       <r>    6.9612    1.0000 </r>
       <r>    6.9612    1.0000 </r>
       <r>    9.3506    1.0000 </r>
       <r>   10.5075    0.0000 </r>
       <r>   10.5934    0.0000 </r>
       <r>   12.2170    0.0000 </r>
      </set>
      <set comment="kpoint 31">
       <r>  -22.3577    1.0000 </r>
       <r>  -22.3444    1.0000 </r>
       <r>  -22.3441    1.0000 </r>
       <r>   -2.5357    1.0000 </r>
       <r>    1.9818    1.0000 </r>
       <r>    3.5605    1.0000 </r>
       <r>    3.6238    1.0000 </r>
       <r>    4.2111    1.0000 </r>
       <r>    4.5174    1.0000 </r>
       <r>    5.6994    1.0000 </r>
       <r>    6.7630    1.0000 </r>
       <r>    6.8312    1.0000 </r>
       <r>    9.4399    1.0000 </r>
       <r>   10.3786    0.0000 </r>
       <r>   10.7584    0.0000 </r>
       <r>   12.2194    0.0000 </r>
      </set>
      <set comment="kpoint 32">
       <r>  -22.3611    1.0000 </r>
       <r>  -22.3452    1.0000 </r>
       <r>  -22.3439    1.0000 </r>
       <r>   -2.2527    1.0000 </r>
       <r>    1.9185    1.0000 </r>
       <r>    3.3967    1.0000 </r>
       <r>    3.5970    1.0000 </r>
       <r>    4.3124    1.0000 </r>
       <r>    4.5624    1.0000 </r>
       <r>    5.1819    1.0000 </r>
       <r>    6.5313    1.0000 </r>
       <r>    6.7960    1.0000 </r>
       <r>    9.5608    1.0000 </r>
       <r>   10.3879    0.0000 </r>
       <r>   11.1849    0.0000 </r>
       <r>   11.7937    0.0000 </r>
      </set>
      <set comment="kpoint 33">
       <r>  -22.3634    1.0000 </r>
       <r>  -22.3467    1.0000 </r>
       <r>  -22.3434    1.0000 </r>
       <r>   -1.9988    1.0000 </r>
       <r>    1.9464    1.0000 </r>
       <r>    3.2065    1.0000 </r>
       <r>    3.5078    1.0000 </r>
       <r>    4.3694    1.0000 </r>
       <r>    4.5819    1.0000 </r>
       <r>    4.8046    1.0000 </r>
       <r>    6.3267    1.0000 </r>
       <r>    6.8153    1.0000 </r>
       <r>    9.6146    1.0000 </r>
       <r>   10.5923    0.0000 </r>
       <r>   11.1938    0.0000 </r>
       <r>   11.7410    0.0000 </r>
      </set>
      <set comment="kpoint 34">
       <r>  -22.3640    1.0000 </r>
       <r>  -22.3484    1.0000 </r>
       <r>  -22.3427    1.0000 </r>
       <r>   -1.8429    1.0000 </r>
       <r>    2.0219    1.0000 </r>
       <r>    3.0620    1.0000 </r>
       <r>    3.3663    1.0000 </r>
       <r>    4.2622    1.0000 </r>
       <r>    4.6087    1.0000 </r>
       <r>    4.7612    1.0000 </r>
       <r>    6.1732    1.0000 </r>
       <r>    6.8523    1.0000 </r>
       <r>    9.7273    1.0000 </r>
       <r>   10.7263    0.0000 </r>
       <r>   10.9230    0.0000 </r>
       <r>   11.9652    0.0000 </r>
      </set>
      <set comment="kpoint 35">
       <r>  -22.3630    1.0000 </r>
       <r>  -22.3498    1.0000 </r>
       <r>  -22.3420    1.0000 </r>
       <r>   -1.8344    1.0000 </r>
       <r>    2.0587    1.0000 </r>
       <r>    3.0543    1.0000 </r>
       <r>    3.2064    1.0000 </r>
       <r>    4.2180    1.0000 </r>
       <r>    4.6395    1.0000 </r>
       <r>    4.8679    1.0000 </r>
       <r>    6.0598    1.0000 </r>
       <r>    6.9180    1.0000 </r>
       <r>    9.9371    0.0000 </r>
       <r>   10.5252    0.0000 </r>
       <r>   11.0969    0.0000 </r>
       <r>   11.8746    0.0000 </r>
      </set>
      <set comment="kpoint 36">
       <r>  -22.3612    1.0000 </r>
       <r>  -22.3499    1.0000 </r>
       <r>  -22.3414    1.0000 </r>
       <r>   -1.9781    1.0000 </r>
       <r>    2.0564    1.0000 </r>
       <r>    3.0685    1.0000 </r>
       <r>    3.1965    1.0000 </r>
       <r>    4.2789    1.0000 </r>
       <r>    4.6466    1.0000 </r>
       <r>    5.0433    1.0000 </r>
       <r>    5.9874    1.0000 </r>
       <r>    7.0437    1.0000 </r>
       <r>   10.0806    0.0000 </r>
       <r>   10.8087    0.0000 </r>
       <r>   10.9850    0.0000 </r>
       <r>   11.7708    0.0000 </r>
      </set>
      <set comment="kpoint 37">
       <r>  -22.3595    1.0000 </r>
       <r>  -22.3484    1.0000 </r>
       <r>  -22.3411    1.0000 </r>
       <r>   -2.2295    1.0000 </r>
       <r>    2.1126    1.0000 </r>
       <r>    2.9830    1.0000 </r>
       <r>    3.3677    1.0000 </r>
       <r>    4.3340    1.0000 </r>
       <r>    4.6133    1.0000 </r>
       <r>    5.2518    1.0000 </r>
       <r>    6.0732    1.0000 </r>
       <r>    7.2334    1.0000 </r>
       <r>   10.1854    0.0000 </r>
       <r>   10.7697    0.0000 </r>
       <r>   11.3873    0.0000 </r>
       <r>   11.6632    0.0000 </r>
      </set>
      <set comment="kpoint 38">
       <r>  -22.3604    1.0000 </r>
       <r>  -22.3446    1.0000 </r>
       <r>  -22.3446    1.0000 </r>
       <r>   -2.3631    1.0000 </r>
       <r>    1.8692    1.0000 </r>
       <r>    3.7286    1.0000 </r>
       <r>    3.7286    1.0000 </r>
       <r>    4.0482    1.0000 </r>
       <r>    4.6159    1.0000 </r>
       <r>    5.5072    1.0000 </r>
       <r>    6.6670    1.0000 </r>
       <r>    6.6670    1.0000 </r>
       <r>    9.2395    1.0000 </r>
       <r>   10.1856    0.0000 </r>
       <r>   10.8374    0.0000 </r>
       <r>   12.1578    0.0000 </r>
      </set>
      <set comment="kpoint 39">
       <r>  -22.3632    1.0000 </r>
       <r>  -22.3452    1.0000 </r>
       <r>  -22.3446    1.0000 </r>
       <r>   -2.1581    1.0000 </r>
       <r>    1.8682    1.0000 </r>
       <r>    3.6276    1.0000 </r>
       <r>    3.7549    1.0000 </r>
       <r>    4.1205    1.0000 </r>
       <r>    4.6824    1.0000 </r>
       <r>    5.1234    1.0000 </r>
       <r>    6.4712    1.0000 </r>
       <r>    6.6034    1.0000 </r>
       <r>    9.2816    1.0000 </r>
       <r>   10.1088    0.0000 </r>
       <r>   11.0788    0.0000 </r>
       <r>   11.8546    0.0000 </r>
      </set>
      <set comment="kpoint 40">
       <r>  -22.3646    1.0000 </r>
       <r>  -22.3469    1.0000 </r>
       <r>  -22.3443    1.0000 </r>
       <r>   -1.9680    1.0000 </r>
       <r>    1.9830    1.0000 </r>
       <r>    3.4079    1.0000 </r>
       <r>    3.6951    1.0000 </r>
       <r>    4.2673    1.0000 </r>
       <r>    4.7072    1.0000 </r>
       <r>    4.7641    1.0000 </r>
       <r>    6.1721    1.0000 </r>
       <r>    6.6128    1.0000 </r>
       <r>    9.3650    1.0000 </r>
       <r>   10.2565    0.0000 </r>
       <r>   11.3165    0.0000 </r>
       <r>   11.6988    0.0000 </r>
      </set>
      <set comment="kpoint 41">
       <r>  -22.3643    1.0000 </r>
       <r>  -22.3494    1.0000 </r>
       <r>  -22.3437    1.0000 </r>
       <r>   -1.8355    1.0000 </r>
       <r>    2.1699    1.0000 </r>
       <r>    3.1828    1.0000 </r>
       <r>    3.5559    1.0000 </r>
       <r>    4.1668    1.0000 </r>
       <r>    4.7212    1.0000 </r>
       <r>    4.7770    1.0000 </r>
       <r>    5.8807    1.0000 </r>
       <r>    6.6492    1.0000 </r>
       <r>    9.4657    1.0000 </r>
       <r>   10.6560    0.0000 </r>
       <r>   10.9105    0.0000 </r>
       <r>   11.6730    0.0000 </r>
      </set>
      <set comment="kpoint 42">
       <r>  -22.3624    1.0000 </r>
       <r>  -22.3520    1.0000 </r>
       <r>  -22.3428    1.0000 </r>
       <r>   -1.7879    1.0000 </r>
       <r>    2.2942    1.0000 </r>
       <r>    3.0001    1.0000 </r>
       <r>    3.3746    1.0000 </r>
       <r>    4.0829    1.0000 </r>
       <r>    4.7272    1.0000 </r>
       <r>    5.0074    1.0000 </r>
       <r>    5.6559    1.0000 </r>
       <r>    6.7175    1.0000 </r>
       <r>    9.6551    1.0000 </r>
       <r>   10.6176    0.0000 </r>
       <r>   11.1492    0.0000 </r>
       <r>   11.6387    0.0000 </r>
      </set>
      <set comment="kpoint 43">
       <r>  -22.3607    1.0000 </r>
       <r>  -22.3527    1.0000 </r>
       <r>  -22.3420    1.0000 </r>
       <r>   -1.8373    1.0000 </r>
       <r>    2.1957    1.0000 </r>
       <r>    3.0377    1.0000 </r>
       <r>    3.1995    1.0000 </r>
       <r>    4.1617    1.0000 </r>
       <r>    4.7044    1.0000 </r>
       <r>    5.1511    1.0000 </r>
       <r>    5.6342    1.0000 </r>
       <r>    6.8490    1.0000 </r>
       <r>    9.9133    0.0000 </r>
       <r>   10.5604    0.0000 </r>
       <r>   11.1607    0.0000 </r>
       <r>   11.6151    0.0000 </r>
      </set>
      <set comment="kpoint 44">
       <r>  -22.3657    1.0000 </r>
       <r>  -22.3450    1.0000 </r>
       <r>  -22.3450    1.0000 </r>
       <r>   -2.0380    1.0000 </r>
       <r>    1.9126    1.0000 </r>
       <r>    3.8435    1.0000 </r>
       <r>    3.8435    1.0000 </r>
       <r>    3.8945    1.0000 </r>
       <r>    4.7807    1.0000 </r>
       <r>    4.8282    1.0000 </r>
       <r>    6.4993    1.0000 </r>
       <r>    6.4993    1.0000 </r>
       <r>    9.1450    1.0000 </r>
       <r>    9.9044    0.0000 </r>
       <r>   10.9842    0.0000 </r>
       <r>   11.7792    0.0000 </r>
      </set>
      <set comment="kpoint 45">
       <r>  -22.3671    1.0000 </r>
       <r>  -22.3458    1.0000 </r>
       <r>  -22.3450    1.0000 </r>
       <r>   -1.9231    1.0000 </r>
       <r>    2.0537    1.0000 </r>
       <r>    3.6338    1.0000 </r>
       <r>    3.8406    1.0000 </r>
       <r>    4.0916    1.0000 </r>
       <r>    4.4958    1.0000 </r>
       <r>    4.8210    1.0000 </r>
       <r>    6.3239    1.0000 </r>
       <r>    6.4816    1.0000 </r>
       <r>    9.1702    1.0000 </r>
       <r>    9.9135    0.0000 </r>
       <r>   11.1359    0.0000 </r>
       <r>   11.5597    0.0000 </r>
      </set>
      <set comment="kpoint 46">
       <r>  -22.3666    1.0000 </r>
       <r>  -22.3479    1.0000 </r>
       <r>  -22.3446    1.0000 </r>
       <r>   -1.8367    1.0000 </r>
       <r>    2.2391    1.0000 </r>
       <r>    3.4154    1.0000 </r>
       <r>    3.7397    1.0000 </r>
       <r>    4.0558    1.0000 </r>
       <r>    4.5205    1.0000 </r>
       <r>    4.8192    1.0000 </r>
       <r>    5.9968    1.0000 </r>
       <r>    6.5091    1.0000 </r>
       <r>    9.2601    1.0000 </r>
       <r>   10.2075    0.0000 </r>
       <r>   11.0759    0.0000 </r>
       <r>   11.4946    0.0000 </r>
      </set>
      <set comment="kpoint 47">
       <r>  -22.3644    1.0000 </r>
       <r>  -22.3505    1.0000 </r>
       <r>  -22.3438    1.0000 </r>
       <r>   -1.7901    1.0000 </r>
       <r>    2.3663    1.0000 </r>
       <r>    3.1567    1.0000 </r>
       <r>    3.5678    1.0000 </r>
       <r>    3.9841    1.0000 </r>
       <r>    4.7895    1.0000 </r>
       <r>    4.8265    1.0000 </r>
       <r>    5.6908    1.0000 </r>
       <r>    6.5792    1.0000 </r>
       <r>    9.4150    1.0000 </r>
       <r>   10.7414    0.0000 </r>
       <r>   10.8112    0.0000 </r>
       <r>   11.4141    0.0000 </r>
      </set>
      <set comment="kpoint 48">
       <r>  -22.3687    1.0000 </r>
       <r>  -22.3453    1.0000 </r>
       <r>  -22.3453    1.0000 </r>
       <r>   -1.8802    1.0000 </r>
       <r>    2.1575    1.0000 </r>
       <r>    3.8556    1.0000 </r>
       <r>    3.9057    1.0000 </r>
       <r>    3.9057    1.0000 </r>
       <r>    4.2055    1.0000 </r>
       <r>    4.8814    1.0000 </r>
       <r>    6.4338    1.0000 </r>
       <r>    6.4338    1.0000 </r>
       <r>    9.0899    1.0000 </r>
       <r>    9.7384    1.0000 </r>
       <r>   10.9281    0.0000 </r>
       <r>   11.5031    0.0000 </r>
      </set>
      <set comment="kpoint 49">
       <r>  -22.3685    1.0000 </r>
       <r>  -22.3461    1.0000 </r>
       <r>  -22.3451    1.0000 </r>
       <r>   -1.8505    1.0000 </r>
       <r>    2.2354    1.0000 </r>
       <r>    3.6670    1.0000 </r>
       <r>    3.8691    1.0000 </r>
       <r>    4.0128    1.0000 </r>
       <r>    4.1994    1.0000 </r>
       <r>    4.8774    1.0000 </r>
       <r>    6.2834    1.0000 </r>
       <r>    6.4440    1.0000 </r>
       <r>    9.1308    1.0000 </r>
       <r>    9.8436    0.0077 </r>
       <r>   11.0595    0.0000 </r>
       <r>   11.4442    0.0000 </r>
      </set>
      <set comment="kpoint 50">
       <r>  -22.3503    1.0000 </r>
       <r>  -22.3438    1.0000 </r>
       <r>  -22.3425    1.0000 </r>
       <r>   -3.0893    1.0000 </r>
       <r>    2.6245    1.0000 </r>
       <r>    3.2495    1.0000 </r>
       <r>    3.4653    1.0000 </r>
       <r>    4.2883    1.0000 </r>
       <r>    4.3643    1.0000 </r>
       <r>    6.4043    1.0000 </r>
       <r>    7.1093    1.0000 </r>
       <r>    7.6215    1.0000 </r>
       <r>    9.7947    1.0000 </r>
       <r>   10.2953    0.0000 </r>
       <r>   10.6931    0.0000 </r>
       <r>   11.6351    0.0000 </r>
      </set>
      <set comment="kpoint 51">
       <r>  -22.3548    1.0000 </r>
       <r>  -22.3443    1.0000 </r>
       <r>  -22.3420    1.0000 </r>
       <r>   -2.7930    1.0000 </r>
       <r>    2.3863    1.0000 </r>
       <r>    3.1488    1.0000 </r>
       <r>    3.4656    1.0000 </r>
       <r>    4.3413    1.0000 </r>
       <r>    4.4527    1.0000 </r>
       <r>    5.7685    1.0000 </r>
       <r>    6.8395    1.0000 </r>
       <r>    7.4763    1.0000 </r>
       <r>   10.0424    0.0000 </r>
       <r>   10.4158    0.0000 </r>
       <r>   10.6237    0.0000 </r>
       <r>   11.9451    0.0000 </r>
      </set>
      <set comment="kpoint 52">
       <r>  -22.3596    1.0000 </r>
       <r>  -22.3445    1.0000 </r>
       <r>  -22.3418    1.0000 </r>
       <r>   -2.4408    1.0000 </r>
       <r>    2.1576    1.0000 </r>
       <r>    3.0786    1.0000 </r>
       <r>    3.3894    1.0000 </r>
       <r>    4.3815    1.0000 </r>
       <r>    4.5034    1.0000 </r>
       <r>    5.1675    1.0000 </r>
       <r>    6.7641    1.0000 </r>
       <r>    7.3055    1.0000 </r>
       <r>   10.0055    0.0000 </r>
       <r>   10.5815    0.0000 </r>
       <r>   10.9306    0.0000 </r>
       <r>   11.9244    0.0000 </r>
      </set>
      <set comment="kpoint 53">
       <r>  -22.3636    1.0000 </r>
       <r>  -22.3445    1.0000 </r>
       <r>  -22.3417    1.0000 </r>
       <r>   -2.1073    1.0000 </r>
       <r>    1.9493    1.0000 </r>
       <r>    3.0534    1.0000 </r>
       <r>    3.2875    1.0000 </r>
       <r>    4.3829    1.0000 </r>
       <r>    4.5054    1.0000 </r>
       <r>    4.7622    1.0000 </r>
       <r>    6.7675    1.0000 </r>
       <r>    7.1856    1.0000 </r>
       <r>    9.9763    0.0000 </r>
       <r>   10.7376    0.0000 </r>
       <r>   11.0624    0.0000 </r>
       <r>   11.5502    0.0000 </r>
      </set>
      <set comment="kpoint 54">
       <r>  -22.3658    1.0000 </r>
       <r>  -22.3444    1.0000 </r>
       <r>  -22.3417    1.0000 </r>
       <r>   -1.8950    1.0000 </r>
       <r>    1.8116    1.0000 </r>
       <r>    3.0647    1.0000 </r>
       <r>    3.2051    1.0000 </r>
       <r>    4.3533    1.0000 </r>
       <r>    4.4754    1.0000 </r>
       <r>    4.6014    1.0000 </r>
       <r>    6.7820    1.0000 </r>
       <r>    7.1333    1.0000 </r>
       <r>   10.0561    0.0000 </r>
       <r>   10.5562    0.0000 </r>
       <r>   10.9847    0.0000 </r>
       <r>   11.7396    0.0000 </r>
      </set>
      <set comment="kpoint 55">
       <r>  -22.3553    1.0000 </r>
       <r>  -22.3446    1.0000 </r>
       <r>  -22.3431    1.0000 </r>
       <r>   -2.7093    1.0000 </r>
       <r>    2.1601    1.0000 </r>
       <r>    3.3910    1.0000 </r>
       <r>    3.5675    1.0000 </r>
       <r>    4.2954    1.0000 </r>
       <r>    4.4480    1.0000 </r>
       <r>    5.8761    1.0000 </r>
       <r>    6.7293    1.0000 </r>
       <r>    7.1730    1.0000 </r>
       <r>    9.6826    1.0000 </r>
       <r>   10.4955    0.0000 </r>
       <r>   10.6317    0.0000 </r>
       <r>   12.1113    0.0000 </r>
      </set>
      <set comment="kpoint 56">
       <r>  -22.3590    1.0000 </r>
       <r>  -22.3455    1.0000 </r>
       <r>  -22.3428    1.0000 </r>
       <r>   -2.4097    1.0000 </r>
       <r>    2.0213    1.0000 </r>
       <r>    3.2841    1.0000 </r>
       <r>    3.5469    1.0000 </r>
       <r>    4.3517    1.0000 </r>
       <r>    4.5047    1.0000 </r>
       <r>    5.3822    1.0000 </r>
       <r>    6.4916    1.0000 </r>
       <r>    7.0671    1.0000 </r>
       <r>    9.8079    0.9957 </r>
       <r>   10.4345    0.0000 </r>
       <r>   11.0365    0.0000 </r>
       <r>   11.9956    0.0000 </r>
      </set>
      <set comment="kpoint 57">
       <r>  -22.3622    1.0000 </r>
       <r>  -22.3463    1.0000 </r>
       <r>  -22.3427    1.0000 </r>
       <r>   -2.1126    1.0000 </r>
       <r>    1.9580    1.0000 </r>
       <r>    3.1575    1.0000 </r>
       <r>    3.4651    1.0000 </r>
       <r>    4.3988    1.0000 </r>
       <r>    4.5178    1.0000 </r>
       <r>    4.9439    1.0000 </r>
       <r>    6.3917    1.0000 </r>
       <r>    6.9797    1.0000 </r>
       <r>    9.8228    0.7006 </r>
       <r>   10.5476    0.0000 </r>
       <r>   11.3290    0.0000 </r>
       <r>   11.6051    0.0000 </r>
      </set>
      <set comment="kpoint 58">
       <r>  -22.3640    1.0000 </r>
       <r>  -22.3472    1.0000 </r>
       <r>  -22.3425    1.0000 </r>
       <r>   -1.8967    1.0000 </r>
       <r>    1.9545    1.0000 </r>
       <r>    3.0464    1.0000 </r>
       <r>    3.3703    1.0000 </r>
       <r>    4.3393    1.0000 </r>
       <r>    4.5191    1.0000 </r>
       <r>    4.7574    1.0000 </r>
       <r>    6.3267    1.0000 </r>
       <r>    6.9523    1.0000 </r>
       <r>    9.8771    0.0000 </r>
       <r>   10.6403    0.0000 </r>
       <r>   10.9339    0.0000 </r>
       <r>   11.9582    0.0000 </r>
      </set>
      <set comment="kpoint 59">
       <r>  -22.3642    1.0000 </r>
       <r>  -22.3479    1.0000 </r>
       <r>  -22.3422    1.0000 </r>
       <r>   -1.8336    1.0000 </r>
       <r>    1.9703    1.0000 </r>
       <r>    3.0108    1.0000 </r>
       <r>    3.2909    1.0000 </r>
       <r>    4.2741    1.0000 </r>
       <r>    4.5448    1.0000 </r>
       <r>    4.7611    1.0000 </r>
       <r>    6.2741    1.0000 </r>
       <r>    6.9686    1.0000 </r>
       <r>   10.0292    0.0000 </r>
       <r>   10.4181    0.0000 </r>
       <r>   11.0189    0.0000 </r>
       <r>   12.0433    0.0000 </r>
      </set>
      <set comment="kpoint 60">
       <r>  -22.3628    1.0000 </r>
       <r>  -22.3481    1.0000 </r>
       <r>  -22.3418    1.0000 </r>
       <r>   -1.9478    1.0000 </r>
       <r>    1.9893    1.0000 </r>
       <r>    3.0431    1.0000 </r>
       <r>    3.2851    1.0000 </r>
       <r>    4.3104    1.0000 </r>
       <r>    4.5776    1.0000 </r>
       <r>    4.8653    1.0000 </r>
       <r>    6.2261    1.0000 </r>
       <r>    7.0323    1.0000 </r>
       <r>   10.0658    0.0000 </r>
       <r>   10.5995    0.0000 </r>
       <r>   10.9917    0.0000 </r>
       <r>   11.9608    0.0000 </r>
      </set>
      <set comment="kpoint 61">
       <r>  -22.3604    1.0000 </r>
       <r>  -22.3476    1.0000 </r>
       <r>  -22.3416    1.0000 </r>
       <r>   -2.1979    1.0000 </r>
       <r>    2.0511    1.0000 </r>
       <r>    3.0515    1.0000 </r>
       <r>    3.3969    1.0000 </r>
       <r>    4.3549    1.0000 </r>
       <r>    4.5755    1.0000 </r>
       <r>    5.1372    1.0000 </r>
       <r>    6.2065    1.0000 </r>
       <r>    7.1624    1.0000 </r>
       <r>   10.1153    0.0000 </r>
       <r>   10.5893    0.0000 </r>
       <r>   11.3570    0.0000 </r>
       <r>   11.7029    0.0000 </r>
      </set>
      <set comment="kpoint 62">
       <r>  -22.3576    1.0000 </r>
       <r>  -22.3462    1.0000 </r>
       <r>  -22.3417    1.0000 </r>
       <r>   -2.5052    1.0000 </r>
       <r>    2.1850    1.0000 </r>
       <r>    3.0762    1.0000 </r>
       <r>    3.4969    1.0000 </r>
       <r>    4.3494    1.0000 </r>
       <r>    4.5301    1.0000 </r>
       <r>    5.5019    1.0000 </r>
       <r>    6.3553    1.0000 </r>
       <r>    7.3392    1.0000 </r>
       <r>   10.1925    0.0000 </r>
       <r>   10.4532    0.0000 </r>
       <r>   11.0256    0.0000 </r>
       <r>   11.8473    0.0000 </r>
      </set>
      <set comment="kpoint 63">
       <r>  -22.3606    1.0000 </r>
       <r>  -22.3454    1.0000 </r>
       <r>  -22.3439    1.0000 </r>
       <r>   -2.3066    1.0000 </r>
       <r>    1.8995    1.0000 </r>
       <r>    3.4998    1.0000 </r>
       <r>    3.6851    1.0000 </r>
       <r>    4.2254    1.0000 </r>
       <r>    4.5832    1.0000 </r>
       <r>    5.3751    1.0000 </r>
       <r>    6.4429    1.0000 </r>
       <r>    6.8020    1.0000 </r>
       <r>    9.4703    1.0000 </r>
       <r>   10.2630    0.0000 </r>
       <r>   11.0386    0.0000 </r>
       <r>   12.0146    0.0000 </r>
      </set>
      <set comment="kpoint 64">
       <r>  -22.3628    1.0000 </r>
       <r>  -22.3468    1.0000 </r>
       <r>  -22.3438    1.0000 </r>
       <r>   -2.0723    1.0000 </r>
       <r>    1.9321    1.0000 </r>
       <r>    3.3316    1.0000 </r>
       <r>    3.6653    1.0000 </r>
       <r>    4.3314    1.0000 </r>
       <r>    4.5870    1.0000 </r>
       <r>    5.0097    1.0000 </r>
       <r>    6.1691    1.0000 </r>
       <r>    6.7669    1.0000 </r>
       <r>    9.5578    1.0000 </r>
       <r>   10.2897    0.0000 </r>
       <r>   11.4200    0.0000 </r>
       <r>   11.6023    0.0000 </r>
      </set>
      <set comment="kpoint 65">
       <r>  -22.3635    1.0000 </r>
       <r>  -22.3487    1.0000 </r>
       <r>  -22.3436    1.0000 </r>
       <r>   -1.8887    1.0000 </r>
       <r>    2.0626    1.0000 </r>
       <r>    3.1367    1.0000 </r>
       <r>    3.5822    1.0000 </r>
       <r>    4.3094    1.0000 </r>
       <r>    4.5758    1.0000 </r>
       <r>    4.8406    1.0000 </r>
       <r>    5.9462    1.0000 </r>
       <r>    6.7687    1.0000 </r>
       <r>    9.6283    1.0000 </r>
       <r>   10.5412    0.0000 </r>
       <r>   10.9423    0.0000 </r>
       <r>   11.8370    0.0000 </r>
      </set>
      <set comment="kpoint 66">
       <r>  -22.3628    1.0000 </r>
       <r>  -22.3507    1.0000 </r>
       <r>  -22.3430    1.0000 </r>
       <r>   -1.8009    1.0000 </r>
       <r>    2.1974    1.0000 </r>
       <r>    2.9735    1.0000 </r>
       <r>    3.4598    1.0000 </r>
       <r>    4.1684    1.0000 </r>
       <r>    4.6350    1.0000 </r>
       <r>    4.9055    1.0000 </r>
       <r>    5.7823    1.0000 </r>
       <r>    6.7966    1.0000 </r>
       <r>    9.7742    1.0000 </r>
       <r>   10.5610    0.0000 </r>
       <r>   10.9177    0.0000 </r>
       <r>   11.7336    0.0000 </r>
      </set>
      <set comment="kpoint 67">
       <r>  -22.3615    1.0000 </r>
       <r>  -22.3518    1.0000 </r>
       <r>  -22.3424    1.0000 </r>
       <r>   -1.8315    1.0000 </r>
       <r>    2.1754    1.0000 </r>
       <r>    2.9690    1.0000 </r>
       <r>    3.3426    1.0000 </r>
       <r>    4.1849    1.0000 </r>
       <r>    4.6575    1.0000 </r>
       <r>    5.0424    1.0000 </r>
       <r>    5.7081    1.0000 </r>
       <r>    6.8613    1.0000 </r>
       <r>    9.9924    0.0000 </r>
       <r>   10.4580    0.0000 </r>
       <r>   10.9849    0.0000 </r>
       <r>   11.7466    0.0000 </r>
      </set>
      <set comment="kpoint 68">
       <r>  -22.3607    1.0000 </r>
       <r>  -22.3506    1.0000 </r>
       <r>  -22.3419    1.0000 </r>
       <r>   -1.9756    1.0000 </r>
       <r>    2.0696    1.0000 </r>
       <r>    3.0422    1.0000 </r>
       <r>    3.3193    1.0000 </r>
       <r>    4.2888    1.0000 </r>
       <r>    4.6324    1.0000 </r>
       <r>    5.1361    1.0000 </r>
       <r>    5.8191    1.0000 </r>
       <r>    6.9879    1.0000 </r>
       <r>   10.0973    0.0000 </r>
       <r>   10.6409    0.0000 </r>
       <r>   10.9890    0.0000 </r>
       <r>   11.7578    0.0000 </r>
      </set>
      <set comment="kpoint 69">
       <r>  -22.3651    1.0000 </r>
       <r>  -22.3461    1.0000 </r>
       <r>  -22.3447    1.0000 </r>
       <r>   -2.0016    1.0000 </r>
       <r>    1.9534    1.0000 </r>
       <r>    3.5140    1.0000 </r>
       <r>    3.8104    1.0000 </r>
       <r>    4.1808    1.0000 </r>
       <r>    4.6925    1.0000 </r>
       <r>    4.8308    1.0000 </r>
       <r>    6.2329    1.0000 </r>
       <r>    6.5985    1.0000 </r>
       <r>    9.2964    1.0000 </r>
       <r>   10.0461    0.0000 </r>
       <r>   11.2972    0.0000 </r>
       <r>   11.6207    0.0000 </r>
      </set>
      <set comment="kpoint 70">
       <r>  -22.3654    1.0000 </r>
       <r>  -22.3479    1.0000 </r>
       <r>  -22.3446    1.0000 </r>
       <r>   -1.8727    1.0000 </r>
       <r>    2.1363    1.0000 </r>
       <r>    3.3147    1.0000 </r>
       <r>    3.7767    1.0000 </r>
       <r>    4.2431    1.0000 </r>
       <r>    4.5313    1.0000 </r>
       <r>    4.7887    1.0000 </r>
       <r>    5.9045    1.0000 </r>
       <r>    6.6312    1.0000 </r>
       <r>    9.3857    1.0000 </r>
       <r>   10.1854    0.0000 </r>
       <r>   11.1066    0.0000 </r>
       <r>   11.5945    0.0000 </r>
      </set>
      <set comment="kpoint 71">
       <r>  -22.3640    1.0000 </r>
       <r>  -22.3505    1.0000 </r>
       <r>  -22.3440    1.0000 </r>
       <r>   -1.7950    1.0000 </r>
       <r>    2.3381    1.0000 </r>
       <r>    3.0891    1.0000 </r>
       <r>    3.6585    1.0000 </r>
       <r>    4.0592    1.0000 </r>
       <r>    4.7150    1.0000 </r>
       <r>    4.8250    1.0000 </r>
       <r>    5.5995    1.0000 </r>
       <r>    6.6714    1.0000 </r>
       <r>    9.5177    1.0000 </r>
       <r>   10.5502    0.0000 </r>
       <r>   10.8253    0.0000 </r>
       <r>   11.3914    0.0000 </r>
      </set>
      <set comment="kpoint 72">
       <r>  -22.3618    1.0000 </r>
       <r>  -22.3527    1.0000 </r>
       <r>  -22.3432    1.0000 </r>
       <r>   -1.7796    1.0000 </r>
       <r>    2.3841    1.0000 </r>
       <r>    2.9166    1.0000 </r>
       <r>    3.4913    1.0000 </r>
       <r>    4.0558    1.0000 </r>
       <r>    4.7214    1.0000 </r>
       <r>    5.0917    1.0000 </r>
       <r>    5.4133    1.0000 </r>
       <r>    6.7380    1.0000 </r>
       <r>    9.7362    1.0000 </r>
       <r>   10.5263    0.0000 </r>
       <r>   11.0111    0.0000 </r>
       <r>   11.4312    0.0000 </r>
      </set>
      <set comment="kpoint 73">
       <r>  -22.3676    1.0000 </r>
       <r>  -22.3465    1.0000 </r>
       <r>  -22.3452    1.0000 </r>
       <r>   -1.8570    1.0000 </r>
       <r>    2.2027    1.0000 </r>
       <r>    3.5235    1.0000 </r>
       <r>    3.8716    1.0000 </r>
       <r>    4.1595    1.0000 </r>
       <r>    4.2533    1.0000 </r>
       <r>    4.8453    1.0000 </r>
       <r>    6.1128    1.0000 </r>
       <r>    6.5326    1.0000 </r>
       <r>    9.2021    1.0000 </r>
       <r>    9.9194    0.0000 </r>
       <r>   11.1937    0.0000 </r>
       <r>   11.4105    0.0000 </r>
      </set>
      <set comment="kpoint 74">
       <r>  -22.3663    1.0000 </r>
       <r>  -22.3483    1.0000 </r>
       <r>  -22.3448    1.0000 </r>
       <r>   -1.8137    1.0000 </r>
       <r>    2.3215    1.0000 </r>
       <r>    3.3234    1.0000 </r>
       <r>    3.8030    1.0000 </r>
       <r>    4.0547    1.0000 </r>
       <r>    4.4669    1.0000 </r>
       <r>    4.8173    1.0000 </r>
       <r>    5.8011    1.0000 </r>
       <r>    6.5978    1.0000 </r>
       <r>    9.3266    1.0000 </r>
       <r>   10.1439    0.0000 </r>
       <r>   11.0738    0.0000 </r>
       <r>   11.3178    0.0000 </r>
      </set>
      <set comment="kpoint 75">
       <r>  -22.3608    1.0000 </r>
       <r>  -22.3476    1.0000 </r>
       <r>  -22.3427    1.0000 </r>
       <r>   -2.1576    1.0000 </r>
       <r>    1.9769    1.0000 </r>
       <r>    3.1918    1.0000 </r>
       <r>    3.5445    1.0000 </r>
       <r>    4.3838    1.0000 </r>
       <r>    4.5325    1.0000 </r>
       <r>    5.1937    1.0000 </r>
       <r>    6.0787    1.0000 </r>
       <r>    6.9763    1.0000 </r>
       <r>    9.9138    0.0000 </r>
       <r>   10.3580    0.0000 </r>
       <r>   11.4752    0.0000 </r>
       <r>   11.6280    0.0000 </r>
      </set>
      <set comment="kpoint 76">
       <r>  -22.3620    1.0000 </r>
       <r>  -22.3495    1.0000 </r>
       <r>  -22.3428    1.0000 </r>
       <r>   -1.9414    1.0000 </r>
       <r>    2.0434    1.0000 </r>
       <r>    3.0671    1.0000 </r>
       <r>    3.5066    1.0000 </r>
       <r>    4.3427    1.0000 </r>
       <r>    4.5470    1.0000 </r>
       <r>    5.0004    1.0000 </r>
       <r>    5.8729    1.0000 </r>
       <r>    6.8934    1.0000 </r>
       <r>    9.9551    0.0000 </r>
       <r>   10.4505    0.0000 </r>
       <r>   10.9403    0.0000 </r>
       <r>   11.8882    0.0000 </r>
      </set>
      <set comment="kpoint 77">
       <r>  -22.3625    1.0000 </r>
       <r>  -22.3505    1.0000 </r>
       <r>  -22.3430    1.0000 </r>
       <r>   -1.8171    1.0000 </r>
       <r>    2.1567    1.0000 </r>
       <r>    2.9402    1.0000 </r>
       <r>    3.4904    1.0000 </r>
       <r>    4.2311    1.0000 </r>
       <r>    4.5600    1.0000 </r>
       <r>    4.9190    1.0000 </r>
       <r>    5.7885    1.0000 </r>
       <r>    6.8610    1.0000 </r>
[...]
       <r>   10.2589    0.0000 </r>
       <r>   10.9954    0.0000 </r>
       <r>   11.7533    0.0000 </r>
      </set>
      <set comment="kpoint 79">
       <r>  -22.3627    1.0000 </r>
       <r>  -22.3510    1.0000 </r>
       <r>  -22.3441    1.0000 </r>
       <r>   -1.8076    1.0000 </r>
       <r>    2.2900    1.0000 </r>
       <r>    2.9891    1.0000 </r>
       <r>    3.7124    1.0000 </r>
       <r>    4.2309    1.0000 </r>
       <r>    4.5512    1.0000 </r>
       <r>    4.8986    1.0000 </r>
       <r>    5.4736    1.0000 </r>
       <r>    6.7862    1.0000 </r>
       <r>    9.8064    0.9978 </r>
       <r>   10.4343    0.0000 </r>
       <r>   10.6055    0.0000 </r>
       <r>   11.4893    0.0000 </r>
      </set>
      <set comment="kpoint 80">
       <r>  -22.3616    1.0000 </r>
       <r>  -22.3525    1.0000 </r>
       <r>  -22.3438    1.0000 </r>
       <r>   -1.7756    1.0000 </r>
       <r>    2.4169    1.0000 </r>
       <r>    2.8517    1.0000 </r>
       <r>    3.6615    1.0000 </r>
       <r>    4.1235    1.0000 </r>
       <r>    4.6286    1.0000 </r>
       <r>    5.0115    1.0000 </r>
       <r>    5.2955    1.0000 </r>
       <r>    6.8054    1.0000 </r>
       <r>    9.9896    0.0000 </r>
       <r>   10.3311    0.0000 </r>
       <r>   10.6640    0.0000 </r>
       <r>   11.3505    0.0000 </r>
      </set>
      <set comment="kpoint 81">
       <r>  -22.3613    1.0000 </r>
       <r>  -22.3520    1.0000 </r>
       <r>  -22.3433    1.0000 </r>
       <r>   -1.8218    1.0000 </r>
       <r>    2.2494    1.0000 </r>
       <r>    2.9320    1.0000 </r>
       <r>    3.5777    1.0000 </r>
       <r>    4.2052    1.0000 </r>
       <r>    4.6049    1.0000 </r>
       <r>    5.0772    1.0000 </r>
       <r>    5.4343    1.0000 </r>
       <r>    6.8306    1.0000 </r>
       <r>   10.0880    0.0000 </r>
       <r>   10.3366    0.0000 </r>
       <r>   10.6489    0.0000 </r>
       <r>   11.6814    0.0000 </r>
      </set>
      <set comment="kpoint 82">
       <r>  -22.3647    1.0000 </r>
       <r>  -22.3495    1.0000 </r>
       <r>  -22.3448    1.0000 </r>
       <r>   -1.8051    1.0000 </r>
       <r>    2.3373    1.0000 </r>
       <r>    3.1486    1.0000 </r>
       <r>    3.8117    1.0000 </r>
       <r>    4.2825    1.0000 </r>
       <r>    4.4091    1.0000 </r>
       <r>    4.7804    1.0000 </r>
       <r>    5.5507    1.0000 </r>
       <r>    6.7180    1.0000 </r>
       <r>    9.5431    1.0000 </r>
       <r>   10.1677    0.0000 </r>
       <r>   10.8979    0.0000 </r>
       <r>   11.3097    0.0000 </r>
      </set>
      <set comment="kpoint 83">
       <r>  -22.3629    1.0000 </r>
       <r>  -22.3516    1.0000 </r>
       <r>  -22.3446    1.0000 </r>
       <r>   -1.7722    1.0000 </r>
       <r>    2.4838    1.0000 </r>
       <r>    2.9540    1.0000 </r>
       <r>    3.7689    1.0000 </r>
       <r>    4.1478    1.0000 </r>
       <r>    4.6913    1.0000 </r>
       <r>    4.7184    1.0000 </r>
       <r>    5.2988    1.0000 </r>
       <r>    6.7737    1.0000 </r>
       <r>    9.7483    1.0000 </r>
       <r>   10.3452    0.0000 </r>
       <r>   10.6777    0.0000 </r>
       <r>   11.1445    0.0000 </r>
      </set>
      <set comment="kpoint 84">
       <r>  -22.3616    1.0000 </r>
       <r>  -22.3526    1.0000 </r>
       <r>  -22.3445    1.0000 </r>
       <r>   -1.7662    1.0000 </r>
       <r>    2.5350    1.0000 </r>
       <r>    2.8443    1.0000 </r>
       <r>    3.7712    1.0000 </r>
       <r>    4.2568    1.0000 </r>
       <r>    4.5786    1.0000 </r>
       <r>    4.7936    1.0000 </r>
       <r>    5.1722    1.0000 </r>
       <r>    6.8215    1.0000 </r>
       <r>   10.0677    0.0000 </r>
       <r>   10.3196    0.0000 </r>
       <r>   10.3810    0.0000 </r>
       <r>   11.1457    0.0000 </r>
      </set>
     </set>
    </set>
   </array>
  </eigenvalues>
  <separator name="orbital magnetization" >
   <v name="MAGDIPOLOUT">      0.00000000      0.00000000      0.00000000</v>
  </separator>
  <dos>
   <i name="efermi">      9.82649788 </i>
   <total>
    <array>
     <dimension dim="1">gridpoints</dimension>
     <dimension dim="2">spin</dimension>
     <field>energy</field>
     <field>total</field>
     <field>integrated</field>
     <set>
      <set comment="spin 1">
       <r>   -24.1217     0.0000     0.0000 </r>
       <r>   -23.9932     0.0000     0.0000 </r>
       <r>   -23.8646     0.0000     0.0000 </r>
       <r>   -23.7361     0.0000     0.0000 </r>
       <r>   -23.6075     0.0000     0.0000 </r>
       <r>   -23.4790     0.0000     0.0000 </r>
       <r>   -23.3504     0.0000     0.0000 </r>
       <r>   -23.2219     0.0000     0.0000 </r>
       <r>   -23.0933     0.0000     0.0000 </r>
       <r>   -22.9648     0.0000     0.0000 </r>
       <r>   -22.8362     0.0000     0.0000 </r>
       <r>   -22.7077     0.0000     0.0000 </r>
       <r>   -22.5791     0.0000     0.0000 </r>
       <r>   -22.4505     0.0000     0.0000 </r>
       <r>   -22.3220    46.6381     5.9955 </r>
       <r>   -22.1934     0.0000     6.0000 </r>
       <r>   -22.0649     0.0000     6.0000 </r>
       <r>   -21.9363     0.0000     6.0000 </r>
       <r>   -21.8078     0.0000     6.0000 </r>
       <r>   -21.6792     0.0000     6.0000 </r>
       <r>   -21.5507     0.0000     6.0000 </r>
       <r>   -21.4221     0.0000     6.0000 </r>
       <r>   -21.2936     0.0000     6.0000 </r>
       <r>   -21.1650     0.0000     6.0000 </r>
       <r>   -21.0365     0.0000     6.0000 </r>
       <r>   -20.9079     0.0000     6.0000 </r>
       <r>   -20.7794     0.0000     6.0000 </r>
       <r>   -20.6508     0.0000     6.0000 </r>
       <r>   -20.5223     0.0000     6.0000 </r>
       <r>   -20.3937     0.0000     6.0000 </r>
       <r>   -20.2651     0.0000     6.0000 </r>
       <r>   -20.1366     0.0000     6.0000 </r>
       <r>   -20.0080     0.0000     6.0000 </r>
       <r>   -19.8795     0.0000     6.0000 </r>
       <r>   -19.7509     0.0000     6.0000 </r>
       <r>   -19.6224     0.0000     6.0000 </r>
       <r>   -19.4938     0.0000     6.0000 </r>
       <r>   -19.3653     0.0000     6.0000 </r>
       <r>   -19.2367     0.0000     6.0000 </r>
       <r>   -19.1082     0.0000     6.0000 </r>
       <r>   -18.9796     0.0000     6.0000 </r>
       <r>   -18.8511     0.0000     6.0000 </r>
       <r>   -18.7225     0.0000     6.0000 </r>
       <r>   -18.5940     0.0000     6.0000 </r>
       <r>   -18.4654     0.0000     6.0000 </r>
       <r>   -18.3368     0.0000     6.0000 </r>
       <r>   -18.2083     0.0000     6.0000 </r>
       <r>   -18.0797     0.0000     6.0000 </r>
       <r>   -17.9512     0.0000     6.0000 </r>
       <r>   -17.8226     0.0000     6.0000 </r>
       <r>   -17.6941     0.0000     6.0000 </r>
       <r>   -17.5655     0.0000     6.0000 </r>
       <r>   -17.4370     0.0000     6.0000 </r>
       <r>   -17.3084     0.0000     6.0000 </r>
       <r>   -17.1799     0.0000     6.0000 </r>
       <r>   -17.0513     0.0000     6.0000 </r>
       <r>   -16.9228     0.0000     6.0000 </r>
       <r>   -16.7942     0.0000     6.0000 </r>
       <r>   -16.6657     0.0000     6.0000 </r>
       <r>   -16.5371     0.0000     6.0000 </r>
       <r>   -16.4086     0.0000     6.0000 </r>
       <r>   -16.2800     0.0000     6.0000 </r>
       <r>   -16.1514     0.0000     6.0000 </r>
       <r>   -16.0229     0.0000     6.0000 </r>
       <r>   -15.8943     0.0000     6.0000 </r>
       <r>   -15.7658     0.0000     6.0000 </r>
       <r>   -15.6372     0.0000     6.0000 </r>
       <r>   -15.5087     0.0000     6.0000 </r>
       <r>   -15.3801     0.0000     6.0000 </r>
       <r>   -15.2516     0.0000     6.0000 </r>
       <r>   -15.1230     0.0000     6.0000 </r>
       <r>   -14.9945     0.0000     6.0000 </r>
       <r>   -14.8659     0.0000     6.0000 </r>
       <r>   -14.7374     0.0000     6.0000 </r>
       <r>   -14.6088     0.0000     6.0000 </r>
       <r>   -14.4803     0.0000     6.0000 </r>
       <r>   -14.3517     0.0000     6.0000 </r>
       <r>   -14.2232     0.0000     6.0000 </r>
       <r>   -14.0946     0.0000     6.0000 </r>
       <r>   -13.9660     0.0000     6.0000 </r>
       <r>   -13.8375     0.0000     6.0000 </r>
       <r>   -13.7089     0.0000     6.0000 </r>
       <r>   -13.5804     0.0000     6.0000 </r>
       <r>   -13.4518     0.0000     6.0000 </r>
       <r>   -13.3233     0.0000     6.0000 </r>
       <r>   -13.1947     0.0000     6.0000 </r>
       <r>   -13.0662     0.0000     6.0000 </r>
       <r>   -12.9376     0.0000     6.0000 </r>
       <r>   -12.8091     0.0000     6.0000 </r>
       <r>   -12.6805     0.0000     6.0000 </r>
       <r>   -12.5520     0.0000     6.0000 </r>
       <r>   -12.4234     0.0000     6.0000 </r>
       <r>   -12.2949     0.0000     6.0000 </r>
       <r>   -12.1663     0.0000     6.0000 </r>
       <r>   -12.0377     0.0000     6.0000 </r>
       <r>   -11.9092     0.0000     6.0000 </r>
       <r>   -11.7806     0.0000     6.0000 </r>
       <r>   -11.6521     0.0000     6.0000 </r>
       <r>   -11.5235     0.0000     6.0000 </r>
       <r>   -11.3950     0.0000     6.0000 </r>
       <r>   -11.2664     0.0000     6.0000 </r>
       <r>   -11.1379     0.0000     6.0000 </r>
       <r>   -11.0093     0.0000     6.0000 </r>
       <r>   -10.8808     0.0000     6.0000 </r>
       <r>   -10.7522     0.0000     6.0000 </r>
       <r>   -10.6237     0.0000     6.0000 </r>
       <r>   -10.4951     0.0000     6.0000 </r>
       <r>   -10.3666     0.0000     6.0000 </r>
       <r>   -10.2380     0.0000     6.0000 </r>
       <r>   -10.1095     0.0000     6.0000 </r>
       <r>    -9.9809     0.0000     6.0000 </r>
       <r>    -9.8523     0.0000     6.0000 </r>
       <r>    -9.7238     0.0000     6.0000 </r>
       <r>    -9.5952     0.0000     6.0000 </r>
       <r>    -9.4667     0.0000     6.0000 </r>
       <r>    -9.3381     0.0000     6.0000 </r>
       <r>    -9.2096     0.0000     6.0000 </r>
       <r>    -9.0810     0.0000     6.0000 </r>
       <r>    -8.9525     0.0000     6.0000 </r>
       <r>    -8.8239     0.0000     6.0000 </r>
       <r>    -8.6954     0.0000     6.0000 </r>
       <r>    -8.5668     0.0000     6.0000 </r>
       <r>    -8.4383     0.0000     6.0000 </r>
       <r>    -8.3097     0.0000     6.0000 </r>
       <r>    -8.1812     0.0000     6.0000 </r>
       <r>    -8.0526     0.0000     6.0000 </r>
       <r>    -7.9241     0.0000     6.0000 </r>
       <r>    -7.7955     0.0000     6.0000 </r>
       <r>    -7.6669     0.0000     6.0000 </r>
       <r>    -7.5384     0.0000     6.0000 </r>
       <r>    -7.4098     0.0000     6.0000 </r>
       <r>    -7.2813     0.0000     6.0000 </r>
       <r>    -7.1527     0.0000     6.0000 </r>
       <r>    -7.0242     0.0000     6.0000 </r>
       <r>    -6.8956     0.0000     6.0000 </r>
       <r>    -6.7671     0.0000     6.0000 </r>
       <r>    -6.6385     0.0000     6.0000 </r>
       <r>    -6.5100     0.0000     6.0000 </r>
       <r>    -6.3814     0.0000     6.0000 </r>
       <r>    -6.2529     0.0000     6.0000 </r>
       <r>    -6.1243     0.0000     6.0000 </r>
       <r>    -5.9958     0.0000     6.0000 </r>
       <r>    -5.8672     0.0000     6.0000 </r>
       <r>    -5.7386     0.0000     6.0000 </r>
       <r>    -5.6101     0.0000     6.0000 </r>
       <r>    -5.4815     0.0000     6.0000 </r>
       <r>    -5.3530     0.0000     6.0000 </r>
       <r>    -5.2244     0.0000     6.0000 </r>
       <r>    -5.0959     0.0000     6.0000 </r>
       <r>    -4.9673     0.0000     6.0000 </r>
       <r>    -4.8388     0.0000     6.0000 </r>
       <r>    -4.7102     0.0000     6.0000 </r>
       <r>    -4.5817     0.0000     6.0000 </r>
       <r>    -4.4531     0.0000     6.0000 </r>
       <r>    -4.3246     0.0000     6.0000 </r>
       <r>    -4.1960     0.0000     6.0000 </r>
       <r>    -4.0675     0.0000     6.0000 </r>
       <r>    -3.9389     0.0000     6.0000 </r>
       <r>    -3.8104     0.0000     6.0000 </r>
       <r>    -3.6818     0.0000     6.0000 </r>
       <r>    -3.5532     0.0001     6.0000 </r>
       <r>    -3.4247     0.0989     6.0136 </r>
       <r>    -3.2961     0.0912     6.0254 </r>
       <r>    -3.1676     0.0365     6.0584 </r>
       <r>    -3.0390     0.3399     6.1029 </r>
       <r>    -2.9105     0.2266     6.1538 </r>
       <r>    -2.7819     0.4398     6.2104 </r>
       <r>    -2.6534     0.1972     6.2611 </r>
       <r>    -2.5248     0.2376     6.3319 </r>
       <r>    -2.3963     0.7054     6.4648 </r>
       <r>    -2.2677     0.4425     6.5457 </r>
       <r>    -2.1392     0.9051     6.7035 </r>
       <r>    -2.0106     0.5983     6.8680 </r>
       <r>    -1.8821     2.3878     7.3220 </r>
       <r>    -1.7535     3.3069     7.9991 </r>
       <r>    -1.6250     0.0000     8.0000 </r>
       <r>    -1.4964     0.0000     8.0000 </r>
       <r>    -1.3678     0.0000     8.0000 </r>
       <r>    -1.2393     0.0000     8.0000 </r>
       <r>    -1.1107     0.0000     8.0000 </r>
       <r>    -0.9822     0.0000     8.0000 </r>
       <r>    -0.8536     0.0000     8.0000 </r>
       <r>    -0.7251     0.0000     8.0000 </r>
       <r>    -0.5965     0.0000     8.0000 </r>
       <r>    -0.4680     0.0000     8.0000 </r>
       <r>    -0.3394     0.0000     8.0000 </r>
       <r>    -0.2109     0.0000     8.0000 </r>
       <r>    -0.0823     0.0000     8.0000 </r>
       <r>     0.0462     0.0000     8.0000 </r>
       <r>     0.1748     0.0000     8.0000 </r>
       <r>     0.3033     0.0000     8.0000 </r>
       <r>     0.4319     0.0000     8.0000 </r>
       <r>     0.5605     0.0000     8.0000 </r>
       <r>     0.6890     0.0000     8.0000 </r>
       <r>     0.8176     0.0000     8.0000 </r>
       <r>     0.9461     0.0000     8.0000 </r>
       <r>     1.0747     0.0000     8.0000 </r>
       <r>     1.2032     0.0000     8.0000 </r>
       <r>     1.3318     0.0000     8.0000 </r>
       <r>     1.4603     0.0000     8.0000 </r>
       <r>     1.5889     0.0000     8.0000 </r>
       <r>     1.7174     0.2115     8.0272 </r>
       <r>     1.8460     0.6702     8.1153 </r>
       <r>     1.9745     2.4955     8.5302 </r>
       <r>     2.1031     2.2169     9.0096 </r>
       <r>     2.2316     2.5577     9.3975 </r>
       <r>     2.3602     1.4372     9.6522 </r>
       <r>     2.4887     0.4717     9.8085 </r>
       <r>     2.6173     0.0731     9.8774 </r>
       <r>     2.7459     0.0566     9.9244 </r>
       <r>     2.8744     0.7938    10.0265 </r>
       <r>     3.0030     2.2428    10.3438 </r>
       <r>     3.1315     4.6011    11.2114 </r>
       <r>     3.2601     2.8188    11.7889 </r>
       <r>     3.3886     3.5987    12.4936 </r>
       <r>     3.5172     3.5044    13.1287 </r>
       <r>     3.6457     1.5383    13.4658 </r>
       <r>     3.7743     1.4737    13.8180 </r>
       <r>     3.9028     0.6189    14.0031 </r>
       <r>     4.0314     0.1702    14.0328 </r>
       <r>     4.1599     1.2175    14.3040 </r>
       <r>     4.2885     3.6101    14.9721 </r>
       <r>     4.4170     6.6404    16.1572 </r>
       <r>     4.5456     5.5010    17.1305 </r>
       <r>     4.6741     2.7952    17.9297 </r>
       <r>     4.8027     2.6768    18.5171 </r>
       <r>     4.9313     1.8856    18.9943 </r>
       <r>     5.0598     1.8708    19.3147 </r>
       <r>     5.1884     1.4497    19.5519 </r>
       <r>     5.3169     0.7634    19.6712 </r>
       <r>     5.4455     1.0101    19.8012 </r>
       <r>     5.5740     0.7152    19.9381 </r>
       <r>     5.7026     0.5238    20.0500 </r>
       <r>     5.8311     1.5220    20.2949 </r>
       <r>     5.9597     0.9250    20.4803 </r>
       <r>     6.0882     0.4086    20.5996 </r>
       <r>     6.2168     1.0722    20.7614 </r>
       <r>     6.3453     1.1157    21.0128 </r>
       <r>     6.4739     0.6469    21.1601 </r>
       <r>     6.6024     0.9843    21.4329 </r>
       <r>     6.7310     1.1676    21.6931 </r>
       <r>     6.8596     3.5948    22.4421 </r>
       <r>     6.9881     1.4836    22.7333 </r>
       <r>     7.1167     1.8370    23.0846 </r>
       <r>     7.2452     1.6684    23.4343 </r>
       <r>     7.3738     0.9877    23.6418 </r>
       <r>     7.5023     0.6732    23.7870 </r>
       <r>     7.6309     0.6084    23.8898 </r>
       <r>     7.7594     0.1084    23.9384 </r>
       <r>     7.8880     0.0000    23.9718 </r>
       <r>     8.0165     0.0212    24.0000 </r>
       <r>     8.1451     0.0000    24.0000 </r>
       <r>     8.2736     0.0000    24.0000 </r>
       <r>     8.4022     0.0000    24.0000 </r>
       <r>     8.5307     0.0000    24.0000 </r>
       <r>     8.6593     0.0000    24.0000 </r>
       <r>     8.7878     0.0000    24.0000 </r>
       <r>     8.9164     0.0000    24.0000 </r>
       <r>     9.0450     0.0000    24.0000 </r>
       <r>     9.1735     0.2428    24.0367 </r>
       <r>     9.3021     0.5160    24.1328 </r>
       <r>     9.4306     0.6584    24.2567 </r>
       <r>     9.5592     0.9927    24.4526 </r>
       <r>     9.6877     1.0312    24.6505 </r>
       <r>     9.8163     1.9738    24.9538 </r>
       <r>     9.9448     1.5453    25.2719 </r>
       <r>    10.0734     2.5862    25.8445 </r>
       <r>    10.2019     0.9940    26.1715 </r>
       <r>    10.3305     1.8816    26.4549 </r>
       <r>    10.4590     2.6535    26.9802 </r>
       <r>    10.5876     3.4481    27.5211 </r>
       <r>    10.7161     2.0535    28.1848 </r>
       <r>    10.8447     2.0246    28.5989 </r>
       <r>    10.9732     2.8863    29.0192 </r>
       <r>    11.1018     2.0446    29.6265 </r>
       <r>    11.2304     0.7365    29.8680 </r>
       <r>    11.3589     1.7318    30.0906 </r>
       <r>    11.4875     1.2318    30.3650 </r>
       <r>    11.6160     1.9024    30.6606 </r>
       <r>    11.7446     2.2513    31.0878 </r>
       <r>    11.8731     1.7301    31.4250 </r>
       <r>    12.0017     1.8445    31.7455 </r>
       <r>    12.1302     0.3393    31.8652 </r>
       <r>    12.2588     0.7790    31.9709 </r>
       <r>    12.3873     0.0000    31.9927 </r>
       <r>    12.5159     0.0000    31.9927 </r>
       <r>    12.6444     0.0000    31.9927 </r>
       <r>    12.7730     0.0000    32.0000 </r>
       <r>    12.9015     0.0000    32.0000 </r>
       <r>    13.0301     0.0000    32.0000 </r>
       <r>    13.1587     0.0000    32.0000 </r>
       <r>    13.2872     0.0000    32.0000 </r>
       <r>    13.4158     0.0000    32.0000 </r>
       <r>    13.5443     0.0000    32.0000 </r>
       <r>    13.6729     0.0000    32.0000 </r>
       <r>    13.8014     0.0000    32.0000 </r>
       <r>    13.9300     0.0000    32.0000 </r>
       <r>    14.0585     0.0000    32.0000 </r>
       <r>    14.1871     0.0000    32.0000 </r>
       <r>    14.3156     0.0000    32.0000 </r>
       <r>    14.4442     0.0000    32.0000 </r>
      </set>
     </set>
    </array>
   </total>
  </dos>
 </calculation>
 <structure name="finalpos" >
  <crystal>
   <varray name="basis" >
    <v>       0.00000000       3.11340286       3.11340286 </v>
    <v>       3.11340286       0.00000000       3.11340286 </v>
    <v>       3.11340286       3.11340286       0.00000000 </v>
   </varray>
   <i name="volume">     60.35815473 </i>
   <varray name="rec_basis" >
    <v>      -0.16059599       0.16059599       0.16059599 </v>
    <v>       0.16059599      -0.16059599       0.16059599 </v>
    <v>       0.16059599       0.16059599      -0.16059599 </v>
   </varray>
  </crystal>
  <varray name="positions" >
   <v>       0.75000000       0.75000000       0.75000000 </v>
   <v>       0.25000000       0.25000000       0.25000000 </v>
   <v>       0.00000000       0.00000000       0.00000000 </v>
  </varray>
 </structure>
</modeling>
