 running  128 mpi-ranks, with    1 threads/rank, on    1 nodes
 distrk:  each k-point on   32 cores,    4 groups
 distr:  one band on   16 cores,    2 groups
 vasp.6.4.3 19Mar24 (build Jun  3 2025 16:21:13) complex                         
 POSCAR found type information on POSCAR NiO 
 POSCAR found :  2 types and       2 ions
 Reading from existing POTCAR
 scaLAPACK will be used
 Reading from existing POTCAR
 LDA part: xc-table for (Slater+PW92), standard interpolation
 -----------------------------------------------------------------------------
|                                                                             |
|           W    W    AA    RRRRR   N    N  II  N    N   GGGG   !!!           |
|           W    W   A  A   R    R  NN   N  II  NN   N  G    G  !!!           |
|           W    W  A    A  R    R  N N  N  II  N N  N  G       !!!           |
|           W WW W  AAAAAA  RRRRR   N  N N  II  N  N N  G  GGG   !            |
|           WW  WW  A    A  R   R   N   NN  II  N   NN  G    G                |
|           W    W  A    A  R    R  N    N  II  N    N   GGGG   !!!           |
|                                                                             |
|     The requested file  could not be found or opened for reading            |
|     k-point information. Automatic k-point generation is used as a          |
|     fallback, which may lead to unwanted results.                           |
|                                                                             |
 -----------------------------------------------------------------------------

 INCAR ok, starting setup
 POSCAR ok, starting setup
 FFT: planning ... GRIDC
 FFT: planning ... GRID_SOFT
 FFT: planning ... GRID
 WAVECAR not read
 entering main loop
       N       E                     dE             d eps       ncg     rms          rms(c)
DAV:   1     0.108525060442E+03    0.10853E+03   -0.61837E+03 28608   0.650E+02
DAV:   2     0.354603921677E+00   -0.10817E+03   -0.95375E+02 25856   0.188E+02
DAV:   3    -0.694810967776E+01   -0.73027E+01   -0.70810E+01 30920   0.435E+01
DAV:   4    -0.700544608166E+01   -0.57336E-01   -0.57315E-01 28568   0.384E+00
DAV:   5    -0.700554298907E+01   -0.96907E-04   -0.96953E-04 30064   0.154E-01    0.245E+01
DAV:   6    -0.108508326330E+02   -0.38453E+01   -0.24420E+01 28528   0.507E+01    0.209E+01
DAV:   7    -0.912869838930E+01    0.17221E+01   -0.38409E+00 28272   0.318E+01    0.929E+00
DAV:   8    -0.992642464526E+01   -0.79773E+00   -0.62962E-01 27712   0.873E+00    0.715E+00
DAV:   9    -0.101034462772E+02   -0.17702E+00   -0.10705E-01 28264   0.709E+00    0.276E+00
DAV:  10    -0.101285543290E+02   -0.25108E-01   -0.53929E-02 29864   0.367E+00    0.822E-01
DAV:  11    -0.101278298198E+02    0.72451E-03   -0.12365E-02 28064   0.118E+00    0.264E-01
DAV:  12    -0.101284164244E+02   -0.58660E-03   -0.13732E-03 28976   0.317E-01    0.142E-01
DAV:  13    -0.101286608887E+02   -0.24446E-03   -0.29892E-04 29528   0.250E-01    0.843E-02
DAV:  14    -0.101286641656E+02   -0.32769E-05   -0.50935E-05 30712   0.674E-02    0.221E-02
DAV:  15    -0.101286713055E+02   -0.71399E-05   -0.71432E-06 29744   0.448E-02    0.145E-02
DAV:  16    -0.101286717373E+02   -0.43175E-06   -0.96590E-07 32272   0.297E-02    0.570E-03
DAV:  17    -0.101286718493E+02   -0.11198E-06   -0.46933E-07 30408   0.105E-02    0.223E-03
DAV:  18    -0.101286720525E+02   -0.20327E-06   -0.20099E-07 27272   0.241E-03    0.201E-03
DAV:  19    -0.101286719995E+02    0.52997E-07   -0.13502E-08 17552   0.338E-03
   1 F= -.10128672E+02 E0= -.10128672E+02  d E =0.000000E+00  mag=     2.0000
 PROFILE, used timers:     427
