   3   3   0   0
  0.2410346E+02  0.4676331E-09  0.4676331E-09  0.4676331E-09  0.5000000E-15
  1.000000000000000E-004
  CAR
 unknown system
     14.36560097    -32.05860447  301      9.82419870      1.00000000
    -32.059  0.0000E+00  0.0000E+00
    -31.904  0.0000E+00  0.0000E+00
    -31.749  0.0000E+00  0.0000E+00
    -31.594  0.0000E+00  0.0000E+00
    -31.440  0.0000E+00  0.0000E+00
    -31.285  0.0000E+00  0.0000E+00
    -31.130  0.0000E+00  0.0000E+00
    -30.975  0.0000E+00  0.0000E+00
    -30.821  0.0000E+00  0.0000E+00
    -30.666  0.0000E+00  0.0000E+00
    -30.511  0.0000E+00  0.0000E+00
    -30.356  0.0000E+00  0.0000E+00
    -30.202  0.0000E+00  0.0000E+00
    -30.047  0.0000E+00  0.0000E+00
    -29.892  0.1292E+02  0.2000E+01
    -29.737  0.0000E+00  0.2000E+01
    -29.583  0.0000E+00  0.2000E+01
    -29.428  0.0000E+00  0.2000E+01
    -29.273  0.0000E+00  0.2000E+01
    -29.118  0.0000E+00  0.2000E+01
    -28.964  0.0000E+00  0.2000E+01
    -28.809  0.0000E+00  0.2000E+01
    -28.654  0.0000E+00  0.2000E+01
    -28.499  0.0000E+00  0.2000E+01
    -28.345  0.0000E+00  0.2000E+01
    -28.190  0.0000E+00  0.2000E+01
    -28.035  0.0000E+00  0.2000E+01
    -27.880  0.0000E+00  0.2000E+01
    -27.726  0.0000E+00  0.2000E+01
    -27.571  0.0000E+00  0.2000E+01
    -27.416  0.0000E+00  0.2000E+01
    -27.261  0.0000E+00  0.2000E+01
    -27.107  0.0000E+00  0.2000E+01
    -26.952  0.0000E+00  0.2000E+01
    -26.797  0.0000E+00  0.2000E+01
    -26.642  0.0000E+00  0.2000E+01
    -26.488  0.0000E+00  0.2000E+01
    -26.333  0.0000E+00  0.2000E+01
    -26.178  0.0000E+00  0.2000E+01
    -26.023  0.0000E+00  0.2000E+01
    -25.869  0.0000E+00  0.2000E+01
    -25.714  0.0000E+00  0.2000E+01
    -25.559  0.0000E+00  0.2000E+01
    -25.404  0.0000E+00  0.2000E+01
    -25.250  0.0000E+00  0.2000E+01
    -25.095  0.0000E+00  0.2000E+01
    -24.940  0.0000E+00  0.2000E+01
    -24.785  0.0000E+00  0.2000E+01
    -24.631  0.0000E+00  0.2000E+01
    -24.476  0.0000E+00  0.2000E+01
    -24.321  0.0000E+00  0.2000E+01
    -24.166  0.0000E+00  0.2000E+01
    -24.012  0.0000E+00  0.2000E+01
    -23.857  0.0000E+00  0.2000E+01
    -23.702  0.0000E+00  0.2000E+01
    -23.548  0.0000E+00  0.2000E+01
    -23.393  0.0000E+00  0.2000E+01
    -23.238  0.0000E+00  0.2000E+01
    -23.083  0.0000E+00  0.2000E+01
    -22.929  0.0000E+00  0.2000E+01
    -22.774  0.0000E+00  0.2000E+01
    -22.619  0.0000E+00  0.2000E+01
    -22.464  0.0000E+00  0.2000E+01
    -22.310  0.0000E+00  0.2000E+01
    -22.155  0.0000E+00  0.2000E+01
    -22.000  0.0000E+00  0.2000E+01
    -21.845  0.0000E+00  0.2000E+01
    -21.691  0.0000E+00  0.2000E+01
    -21.536  0.0000E+00  0.2000E+01
    -21.381  0.0000E+00  0.2000E+01
    -21.226  0.0000E+00  0.2000E+01
    -21.072  0.0000E+00  0.2000E+01
    -20.917  0.0000E+00  0.2000E+01
    -20.762  0.0000E+00  0.2000E+01
    -20.607  0.0000E+00  0.2000E+01
    -20.453  0.0000E+00  0.2000E+01
    -20.298  0.0000E+00  0.2000E+01
    -20.143  0.0000E+00  0.2000E+01
    -19.988  0.0000E+00  0.2000E+01
    -19.834  0.0000E+00  0.2000E+01
    -19.679  0.0000E+00  0.2000E+01
    -19.524  0.0000E+00  0.2000E+01
    -19.369  0.0000E+00  0.2000E+01
    -19.215  0.0000E+00  0.2000E+01
    -19.060  0.0000E+00  0.2000E+01
    -18.905  0.0000E+00  0.2000E+01
    -18.750  0.0000E+00  0.2000E+01
    -18.596  0.0000E+00  0.2000E+01
    -18.441  0.0000E+00  0.2000E+01
    -18.286  0.0000E+00  0.2000E+01
    -18.131  0.0000E+00  0.2000E+01
    -17.977  0.0000E+00  0.2000E+01
    -17.822  0.0000E+00  0.2000E+01
    -17.667  0.0000E+00  0.2000E+01
    -17.512  0.0000E+00  0.2000E+01
    -17.358  0.0000E+00  0.2000E+01
    -17.203  0.0000E+00  0.2000E+01
    -17.048  0.0000E+00  0.2000E+01
    -16.893  0.0000E+00  0.2000E+01
    -16.739  0.0000E+00  0.2000E+01
    -16.584  0.0000E+00  0.2000E+01
    -16.429  0.0000E+00  0.2000E+01
    -16.274  0.0000E+00  0.2000E+01
    -16.120  0.0000E+00  0.2000E+01
    -15.965  0.0000E+00  0.2000E+01
    -15.810  0.0000E+00  0.2000E+01
    -15.655  0.0000E+00  0.2000E+01
    -15.501  0.0000E+00  0.2000E+01
    -15.346  0.0000E+00  0.2000E+01
    -15.191  0.0000E+00  0.2000E+01
    -15.036  0.0000E+00  0.2000E+01
    -14.882  0.0000E+00  0.2000E+01
    -14.727  0.0000E+00  0.2000E+01
    -14.572  0.0000E+00  0.2000E+01
    -14.417  0.0000E+00  0.2000E+01
    -14.263  0.0000E+00  0.2000E+01
    -14.108  0.0000E+00  0.2000E+01
    -13.953  0.0000E+00  0.2000E+01
    -13.798  0.0000E+00  0.2000E+01
    -13.644  0.0000E+00  0.2000E+01
    -13.489  0.0000E+00  0.2000E+01
    -13.334  0.2875E+02  0.6449E+01
    -13.179  0.0000E+00  0.1200E+02
    -13.025  0.0000E+00  0.1200E+02
    -12.870  0.0000E+00  0.1200E+02
    -12.715  0.0000E+00  0.1200E+02
    -12.560  0.0000E+00  0.1200E+02
    -12.406  0.0000E+00  0.1200E+02
    -12.251  0.0000E+00  0.1200E+02
    -12.096  0.0000E+00  0.1200E+02
    -11.941  0.0000E+00  0.1200E+02
    -11.787  0.0000E+00  0.1200E+02
    -11.632  0.0000E+00  0.1200E+02
    -11.477  0.0000E+00  0.1200E+02
    -11.322  0.0000E+00  0.1200E+02
    -11.168  0.0000E+00  0.1200E+02
    -11.013  0.0000E+00  0.1200E+02
    -10.858  0.0000E+00  0.1200E+02
    -10.703  0.0000E+00  0.1200E+02
    -10.549  0.0000E+00  0.1200E+02
    -10.394  0.0000E+00  0.1200E+02
    -10.239  0.0000E+00  0.1200E+02
    -10.084  0.0000E+00  0.1200E+02
     -9.930  0.0000E+00  0.1200E+02
     -9.775  0.0000E+00  0.1200E+02
     -9.620  0.0000E+00  0.1200E+02
     -9.465  0.0000E+00  0.1200E+02
     -9.311  0.0000E+00  0.1200E+02
     -9.156  0.0000E+00  0.1200E+02
     -9.001  0.0000E+00  0.1200E+02
     -8.847  0.0000E+00  0.1200E+02
     -8.692  0.0000E+00  0.1200E+02
     -8.537  0.2017E-05  0.1200E+02
     -8.382  0.4373E+01  0.1282E+02
     -8.228  0.2108E+01  0.1414E+02
     -8.073  0.1389E+02  0.1717E+02
     -7.918  0.0000E+00  0.1800E+02
     -7.763  0.0000E+00  0.1800E+02
     -7.609  0.0000E+00  0.1800E+02
     -7.454  0.0000E+00  0.1800E+02
     -7.299  0.0000E+00  0.1800E+02
     -7.144  0.0000E+00  0.1800E+02
     -6.990  0.0000E+00  0.1800E+02
     -6.835  0.0000E+00  0.1800E+02
     -6.680  0.0000E+00  0.1800E+02
     -6.525  0.0000E+00  0.1800E+02
     -6.371  0.0000E+00  0.1800E+02
     -6.216  0.0000E+00  0.1800E+02
     -6.061  0.0000E+00  0.1800E+02
     -5.906  0.0000E+00  0.1800E+02
     -5.752  0.0000E+00  0.1800E+02
     -5.597  0.0000E+00  0.1800E+02
     -5.442  0.0000E+00  0.1800E+02
     -5.287  0.0000E+00  0.1800E+02
     -5.133  0.0000E+00  0.1800E+02
     -4.978  0.0000E+00  0.1800E+02
     -4.823  0.0000E+00  0.1800E+02
     -4.668  0.0000E+00  0.1800E+02
     -4.514  0.0000E+00  0.1800E+02
     -4.359  0.0000E+00  0.1800E+02
     -4.204  0.0000E+00  0.1800E+02
     -4.049  0.0000E+00  0.1800E+02
     -3.895  0.0000E+00  0.1800E+02
     -3.740  0.0000E+00  0.1800E+02
     -3.585  0.0000E+00  0.1800E+02
     -3.430  0.0000E+00  0.1800E+02
     -3.276  0.0000E+00  0.1800E+02
     -3.121  0.0000E+00  0.1800E+02
     -2.966  0.5890E-02  0.1800E+02
     -2.811  0.2263E-01  0.1802E+02
     -2.657  0.4717E-01  0.1805E+02
     -2.502  0.2824E+00  0.1810E+02
     -2.347  0.6788E-01  0.1816E+02
     -2.192  0.1054E+01  0.1844E+02
     -2.038  0.2076E+01  0.1899E+02
     -1.883  0.1711E+01  0.1955E+02
     -1.728  0.4447E+00  0.1990E+02
     -1.573  0.1882E+00  0.2000E+02
     -1.419  0.0000E+00  0.2000E+02
     -1.264  0.0000E+00  0.2000E+02
     -1.109  0.0000E+00  0.2000E+02
     -0.954  0.0000E+00  0.2000E+02
     -0.800  0.0000E+00  0.2000E+02
     -0.645  0.0000E+00  0.2000E+02
     -0.490  0.0000E+00  0.2000E+02
     -0.335  0.0000E+00  0.2000E+02
     -0.181  0.0000E+00  0.2000E+02
     -0.026  0.0000E+00  0.2000E+02
      0.129  0.0000E+00  0.2000E+02
      0.284  0.0000E+00  0.2000E+02
      0.438  0.0000E+00  0.2000E+02
      0.593  0.0000E+00  0.2000E+02
      0.748  0.0000E+00  0.2000E+02
      0.903  0.0000E+00  0.2000E+02
      1.057  0.0000E+00  0.2000E+02
      1.212  0.0000E+00  0.2000E+02
      1.367  0.0000E+00  0.2000E+02
      1.522  0.0000E+00  0.2000E+02
      1.676  0.0000E+00  0.2000E+02
      1.831  0.0000E+00  0.2000E+02
      1.986  0.0000E+00  0.2000E+02
      2.141  0.0000E+00  0.2000E+02
      2.295  0.0000E+00  0.2000E+02
      2.450  0.0000E+00  0.2000E+02
      2.605  0.0000E+00  0.2000E+02
      2.760  0.0000E+00  0.2000E+02
      2.914  0.0000E+00  0.2000E+02
      3.069  0.0000E+00  0.2000E+02
      3.224  0.1539E-09  0.2000E+02
      3.379  0.2848E+00  0.2005E+02
      3.533  0.1597E+01  0.2033E+02
      3.688  0.6258E+00  0.2074E+02
      3.843  0.6358E+00  0.2110E+02
      3.998  0.6930E+00  0.2128E+02
      4.152  0.8703E+00  0.2157E+02
      4.307  0.4660E+01  0.2261E+02
      4.462  0.2810E+01  0.2341E+02
      4.617  0.2781E+01  0.2421E+02
      4.771  0.2497E+01  0.2508E+02
      4.926  0.1811E+01  0.2567E+02
      5.081  0.3993E+00  0.2597E+02
      5.236  0.3447E+00  0.2612E+02
      5.390  0.4953E+01  0.2741E+02
      5.545  0.2787E+01  0.2872E+02
      5.700  0.3497E+01  0.2979E+02
      5.854  0.1042E+01  0.3022E+02
      6.009  0.1222E+01  0.3056E+02
      6.164  0.1372E+01  0.3107E+02
      6.319  0.1208E+01  0.3146E+02
      6.473  0.5404E+00  0.3166E+02
      6.628  0.7100E+00  0.3190E+02
      6.783  0.2825E+00  0.3204E+02
      6.938  0.1076E+01  0.3229E+02
      7.092  0.4745E+00  0.3252E+02
      7.247  0.7439E+00  0.3275E+02
      7.402  0.5018E+00  0.3310E+02
      7.557  0.1123E+01  0.3332E+02
      7.711  0.8627E+00  0.3358E+02
      7.866  0.1114E+01  0.3381E+02
      8.021  0.5531E+01  0.3494E+02
      8.176  0.2132E+01  0.3569E+02
      8.330  0.9049E+00  0.3594E+02
      8.485  0.1647E+00  0.3600E+02
      8.640  0.0000E+00  0.3600E+02
      8.795  0.0000E+00  0.3600E+02
      8.949  0.0000E+00  0.3600E+02
      9.104  0.4706E-01  0.3601E+02
      9.259  0.9412E-01  0.3602E+02
      9.414  0.7100E-01  0.3606E+02
      9.568  0.1129E+01  0.3632E+02
      9.723  0.1244E+01  0.3659E+02
      9.878  0.1448E+01  0.3719E+02
     10.033  0.1573E+01  0.3764E+02
     10.187  0.1023E+01  0.3798E+02
     10.342  0.5324E+00  0.3814E+02
     10.497  0.2025E+00  0.3827E+02
     10.652  0.2167E+00  0.3835E+02
     10.806  0.1180E+01  0.3869E+02
     10.961  0.1616E+01  0.3921E+02
     11.116  0.2328E+01  0.3986E+02
     11.271  0.2174E+01  0.4043E+02
     11.425  0.1844E+01  0.4091E+02
     11.580  0.2513E+01  0.4145E+02
     11.735  0.3205E+01  0.4263E+02
     11.890  0.5221E+01  0.4388E+02
     12.044  0.6070E+01  0.4603E+02
     12.199  0.5746E+01  0.4716E+02
     12.354  0.0000E+00  0.4800E+02
     12.509  0.0000E+00  0.4800E+02
     12.663  0.0000E+00  0.4800E+02
     12.818  0.0000E+00  0.4800E+02
     12.973  0.0000E+00  0.4800E+02
     13.128  0.0000E+00  0.4800E+02
     13.282  0.0000E+00  0.4800E+02
     13.437  0.0000E+00  0.4800E+02
     13.592  0.0000E+00  0.4800E+02
     13.747  0.0000E+00  0.4800E+02
     13.901  0.0000E+00  0.4800E+02
     14.056  0.0000E+00  0.4800E+02
     14.211  0.0000E+00  0.4800E+02
     14.366  0.0000E+00  0.4800E+02
