 vasp.6.0.8 29Jun18 (build Jun 13 2019 12:54:44) complex

 executed on      IFC18_CrayMPICH date 2021.12.05  14:21:49
 running   64 mpi-ranks, with    1 threads/rank
 distrk:  each k-point on   16 cores,    4 groups
 distr:  one band on NCORES_PER_BAND=   4 cores,    4 groups


--------------------------------------------------------------------------------------------------------


 INCAR:
 POTCAR:    PAW_PBE Th 07Sep2000
 POTCAR:    PAW_PBE Bi_d 06Sep2000
 POTCAR:    PAW_PBE Pt 04Feb2005
 POTCAR:    PAW_PBE Th 07Sep2000
   VRHFIN =Th:  [Xe,5d,4f]
   LEXCH  = PE
   EATOM  =   984.7553 eV,   72.3775 Ry

   TITEL  = PAW_PBE Th 07Sep2000
   LULTRA =        F    use ultrasoft PP ?
   IUNSCR =        1    unscreen: 0-lin 1-nonlin 2-no
   RPACOR =    2.200    partial core radius
   POMASS =  232.039; ZVAL   =   12.000    mass and valenz
   RCORE  =    2.800    outmost cutoff radius
   RWIGS  =    3.000; RWIGS  =    1.588    wigner-seitz radius (au A)
   ENMAX  =  247.306; ENMIN  =  185.480 eV
   RCLOC  =    2.211    cutoff for local pot
   LCOR   =        T    correct aug charges
   LPAW   =        T    paw PP
   EAUG   =  535.431
   DEXC   =    0.000
   RMAX   =    2.862    core radius for proj-oper
   RAUG   =    1.300    factor for augmentation sphere
   RDEP   =    2.926    radius for radial grids
   RDEPT  =    2.250    core radius for aug-charge

   Atomic configuration
   18 entries
     n  l   j            E        occ.
     1  0  0.50   -109990.1879   2.0000
     2  0  0.50    -20388.0147   2.0000
     2  1  1.50    -17049.6156   6.0000
     3  0  0.50     -5106.5436   2.0000
     3  1  1.50     -4175.1262   6.0000
     3  2  2.50     -3342.8437  10.0000
     4  0  0.50     -1280.8211   2.0000
     4  1  1.50      -976.4859   6.0000
     4  2  2.50      -661.8358  10.0000
     4  3  3.50      -324.9124  14.0000
     5  0  0.50      -278.7726   2.0000
     5  1  1.50      -186.2212   6.0000
     5  2  2.50       -86.9031  10.0000
     6  0  0.50       -43.3059   2.0000
     7  0  0.50        -4.0783   2.0000
     6  1  1.50       -21.4071   6.0000
     6  2  1.50        -2.3664   1.0000
     5  3  2.50        -1.2804   1.0000
   Description
     l       E           TYP  RCUT    TYP  RCUT
     0    -43.3059201     23  2.800
     0     -4.0782900     23  2.800
     1    -21.4071032     23  2.500
     1    -22.7676858     23  2.500
     2     -2.3664170     23  2.500
     2      3.0546543     23  2.500
     3     -1.2803910     23  2.800
     3      0.1360583     23  2.800
  local pseudopotential read in
  partial core-charges read in
  partial kinetic energy density read in
  atomic valenz-charges read in
  non local Contribution for L=           0  read in
    real space projection operators read in
  non local Contribution for L=           0  read in
    real space projection operators read in
  non local Contribution for L=           1  read in
    real space projection operators read in
  non local Contribution for L=           1  read in
    real space projection operators read in
  non local Contribution for L=           2  read in
    real space projection operators read in
  non local Contribution for L=           2  read in
    real space projection operators read in
  non local Contribution for L=           3  read in
    real space projection operators read in
  non local Contribution for L=           3  read in
    real space projection operators read in
    PAW grid and wavefunctions read in

   number of l-projection  operators is LMAX  =           8
   number of lm-projection operators is LMMAX =          32

 POTCAR:    PAW_PBE Bi_d 06Sep2000
   VRHFIN =Bi:
   LEXCH  = PE
   EATOM  =  1959.2045 eV,  143.9975 Ry

   TITEL  = PAW_PBE Bi_d 06Sep2000
   LULTRA =        F    use ultrasoft PP ?
   IUNSCR =        1    unscreen: 0-lin 1-nonlin 2-no
   RPACOR =    2.200    partial core radius
   POMASS =  208.980; ZVAL   =   15.000    mass and valenz
   RCORE  =    2.500    outmost cutoff radius
   RWIGS  =    3.090; RWIGS  =    1.635    wigner-seitz radius (au A)
   ENMAX  =  242.839; ENMIN  =  182.129 eV
   ICORE  =        3    local potential
   LCOR   =        T    correct aug charges
   LPAW   =        T    paw PP
   EAUG   =  442.899
   DEXC   =    0.000
   RMAX   =    2.551    core radius for proj-oper
   RAUG   =    1.300    factor for augmentation sphere
   RDEP   =    2.650    radius for radial grids
   RDEPT  =    2.039    core radius for aug-charge

   Atomic configuration
   16 entries
     n  l   j            E        occ.
     1  0  0.50    -90639.6581   2.0000
     2  0  0.50    -16282.4666   2.0000
     2  1  1.50    -13922.8286   6.0000
     3  0  0.50     -3930.4763   2.0000
     3  1  1.50     -3256.7013   6.0000
     3  2  2.50     -2581.6168  10.0000
     4  0  0.50      -902.2614   2.0000
     4  1  1.50      -681.5915   6.0000
     4  2  2.50      -429.8249  10.0000
     4  3  3.50      -152.6004  14.0000
     5  0  0.50      -157.7156   2.0000
     5  1  1.50       -95.8054   6.0000
     5  2  2.50       -27.0806  10.0000
     6  0  0.50       -14.4732   2.0000
     6  1  1.50        -4.5702   3.0000
     5  3  2.50        -2.7212   0.0000
   Description
     l       E           TYP  RCUT    TYP  RCUT
     2    -27.0805982     23  2.500
     2     -1.3605826     23  2.500
     0    -14.4732271     23  2.500
     0      6.8029130     23  2.500
     1     -4.5701651     23  2.500
     1     13.6058260     23  2.500
     3     -1.3605826      7  2.500
  local pseudopotential read in
  partial core-charges read in
  partial kinetic energy density read in
  atomic valenz-charges read in
  non local Contribution for L=           2  read in
    real space projection operators read in
  non local Contribution for L=           2  read in
    real space projection operators read in
  non local Contribution for L=           0  read in
    real space projection operators read in
  non local Contribution for L=           0  read in
    real space projection operators read in
  non local Contribution for L=           1  read in
    real space projection operators read in
  non local Contribution for L=           1  read in
    real space projection operators read in
    PAW grid and wavefunctions read in

   number of l-projection  operators is LMAX  =           6
   number of lm-projection operators is LMMAX =          18

 POTCAR:    PAW_PBE Pt 04Feb2005
   VRHFIN =Pt: s1d9
   LEXCH  = PE
   EATOM  =   729.1176 eV,   53.5886 Ry

   TITEL  = PAW_PBE Pt 04Feb2005
   LULTRA =        F    use ultrasoft PP ?
   IUNSCR =        1    unscreen: 0-lin 1-nonlin 2-no
   RPACOR =    2.330    partial core radius
   POMASS =  195.080; ZVAL   =   10.000    mass and valenz
   RCORE  =    2.600    outmost cutoff radius
   RWIGS  =    2.750; RWIGS  =    1.455    wigner-seitz radius (au A)
   ENMAX  =  230.283; ENMIN  =  172.712 eV
   ICORE  =        3    local potential
   LCOR   =        T    correct aug charges
   LPAW   =        T    paw PP
   EAUG   =  358.966
   DEXC   =    0.000
   RMAX   =    2.658    core radius for proj-oper
   RAUG   =    1.300    factor for augmentation sphere
   RDEP   =    2.761    radius for radial grids
   RDEPT  =    2.203    core radius for aug-charge

   Atomic configuration
   16 entries
     n  l   j            E        occ.
     1  0  0.50    -78401.1885   2.0000
     2  0  0.50    -13770.7750   2.0000
     2  1  1.50    -11931.0468   6.0000
     3  0  0.50     -3234.7234   2.0000
     3  1  1.50     -2699.2216   6.0000
     3  2  2.50     -2119.5714  10.0000
     4  0  0.50      -695.1528   2.0000
     4  1  1.50      -519.6034   6.0000
     4  2  2.50      -306.6786  10.0000
     4  3  3.50       -70.1041  14.0000
     5  0  0.50      -101.7747   2.0000
     5  1  1.50       -55.9873   6.0000
     5  2  2.50        -6.1423   9.0000
     6  0  0.50        -5.6573   1.0000
     6  1  1.50        -6.8029   0.0000
     5  3  2.50        -1.3606   0.0000
   Description
     l       E           TYP  RCUT    TYP  RCUT
     2     -6.1423404     23  2.500
     2     -7.5029230     23  2.500
     0     -5.6573207     23  2.500
     0      0.7416693     23  2.500
     1     -2.7211652     23  2.600
     1     20.4087390     23  2.600
     3     -1.3605826     23  2.500
  local pseudopotential read in
  partial core-charges read in
  partial kinetic energy density read in
  atomic valenz-charges read in
  non local Contribution for L=           2  read in
    real space projection operators read in
  non local Contribution for L=           2  read in
    real space projection operators read in
  non local Contribution for L=           0  read in
    real space projection operators read in
  non local Contribution for L=           0  read in
    real space projection operators read in
  non local Contribution for L=           1  read in
    real space projection operators read in
  non local Contribution for L=           1  read in
    real space projection operators read in
    PAW grid and wavefunctions read in

   number of l-projection  operators is LMAX  =           6
   number of lm-projection operators is LMMAX =          18

 WARNING: PSMAXN for non-local potential too small
          PSMAXN should be >   13.5545592237991       NTYP=           1

 -----------------------------------------------------------------------------
|                                                                             |
|  ADVICE TO THIS USER RUNNING 'VASP/VAMP'   (HEAR YOUR MASTER'S VOICE ...):  |
|                                                                             |
|      You enforced a specific xc-type in the INCAR file,                     |
|      a different type was found on the POTCAR file                          |
|          I HOPE YOU KNOW, WHAT YOU ARE  DOING                               |
|                                                                             |
 -----------------------------------------------------------------------------

  PAW_PBE Th 07Sep2000                  :
 energy of atom  1       EATOM= -984.7553
 kinetic energy error for atom=    0.0005 (will be added to EATOM!!)
  PAW_PBE Bi_d 06Sep2000                :
 energy of atom  2       EATOM=-1959.2045
 kinetic energy error for atom=    0.0012 (will be added to EATOM!!)
  PAW_PBE Pt 04Feb2005                  :
 energy of atom  3       EATOM= -729.1176
 kinetic energy error for atom=    0.0010 (will be added to EATOM!!)


 POSCAR: Th1 Bi1 Pt1
  positions in direct lattice
  No initial velocities read in
 exchange correlation table for  LEXCH =       14
   RHO(1)=    0.500       N(1)  =     2000
   RHO(2)=  100.500       N(2)  =     4000



--------------------------------------------------------------------------------------------------------


 ion  position               nearest neighbor table
   1  0.250  0.250  0.250-   3 2.86   3 2.86   3 2.86   3 2.86   2 3.31   2 3.31   2 3.31   2 3.31
                             2 3.31   2 3.31
   2  0.750  0.750  0.750-   3 2.86   3 2.86   3 2.86   3 2.86   1 3.31   1 3.31   1 3.31   1 3.31
                             1 3.31   1 3.31
   3  0.000  0.000  0.000-   2 2.86   1 2.86   2 2.86   1 2.86   2 2.86   2 2.86   1 2.86   1 2.86


  LATTYP: Found a face centered cubic cell.
 ALAT       =     6.6133300165

  Lattice vectors:

 A1 = (   0.0000000000,   3.3066650083,   3.3066650083)
 A2 = (   3.3066650083,   0.0000000000,   3.3066650083)
 A3 = (   3.3066650083,   3.3066650083,   0.0000000000)


Analysis of symmetry for initial positions (statically):
=====================================================================
 Subroutine PRICEL returns:
 Original cell was already a primitive cell.


 Routine SETGRP: Setting up the symmetry group for a
 face centered cubic supercell.


 Subroutine GETGRP returns: Found 24 space group operations
 (whereof 24 operations were pure point group operations)
 out of a pool of 48 trial point group operations.


The static configuration has the point symmetry T_d .


Analysis of symmetry for dynamics (positions and initial velocities):
=====================================================================
 Subroutine PRICEL returns:
 Original cell was already a primitive cell.


 Routine SETGRP: Setting up the symmetry group for a
 face centered cubic supercell.


 Subroutine GETGRP returns: Found 24 space group operations
 (whereof 24 operations were pure point group operations)
 out of a pool of 48 trial point group operations.


The dynamic configuration has the point symmetry T_d .


 Subroutine INISYM returns: Found 24 space group operations
 (whereof 24 operations are pure point group operations),
 and found     1 'primitive' translations


----------------------------------------------------------------------------------------

                                     Primitive cell

  volume of cell :      72.3104

  direct lattice vectors                    reciprocal lattice vectors
     0.000000000  3.306665008  3.306665008    -0.151209753  0.151209753  0.151209753
     3.306665008  0.000000000  3.306665008     0.151209753 -0.151209753  0.151209753
     3.306665008  3.306665008  0.000000000     0.151209753  0.151209753 -0.151209753

  length of vectors
     4.676330501  4.676330501  4.676330501     0.261902975  0.261902975  0.261902975

  position of ions in fractional coordinates (direct lattice)
     0.250000000  0.250000000  0.250000000
     0.750000000  0.750000000  0.750000000
     0.000000000  0.000000000  0.000000000

  ion indices of the primitive-cell ions
   primitive index   ion index
                 1           1
                 2           2
                 3           3

----------------------------------------------------------------------------------------



 KPOINTS: KPOINTS

Automatic generation of k-mesh.
Space group operators:
 irot       det(A)        alpha          n_x          n_y          n_z        tau_x        tau_y        tau_z
    1     1.000000     0.000001     1.000000     0.000000     0.000000     0.000000     0.000000     0.000000
    2     1.000000   120.000000    -0.577350    -0.577350    -0.577350     0.000000     0.000000     0.000000
    3     1.000000   120.000000     0.577350     0.577350     0.577350     0.000000     0.000000     0.000000
    4    -1.000000    90.000000    -0.000000    -0.000000    -1.000000     0.000000     0.000000     0.000000
    5    -1.000000   180.000000    -0.000000     0.707107     0.707107     0.000000     0.000000     0.000000
    6    -1.000000    90.000000    -0.000000     1.000000    -0.000000     0.000000     0.000000     0.000000
    7     1.000000   180.000000     0.000000     0.000000    -1.000000     0.000000     0.000000     0.000000
    8     1.000000   120.000000    -0.577350     0.577350     0.577350     0.000000     0.000000     0.000000
    9     1.000000   120.000000    -0.577350     0.577350    -0.577350     0.000000     0.000000     0.000000
   10    -1.000000    90.000000     0.000000     0.000000     1.000000     0.000000     0.000000     0.000000
   11    -1.000000    90.000000    -1.000000     0.000000    -0.000000     0.000000     0.000000     0.000000
   12    -1.000000   180.000000     0.707107     0.000000     0.707107     0.000000     0.000000     0.000000
   13     1.000000   120.000000     0.577350    -0.577350     0.577350     0.000000     0.000000     0.000000
   14     1.000000   120.000000    -0.577350    -0.577350     0.577350     0.000000     0.000000     0.000000
   15     1.000000   180.000000     1.000000     0.000000     0.000000     0.000000     0.000000     0.000000
   16    -1.000000    90.000000     0.000000    -1.000000     0.000000     0.000000     0.000000     0.000000
   17    -1.000000   180.000000     0.707107     0.707107    -0.000000     0.000000     0.000000     0.000000
   18    -1.000000    90.000000     1.000000     0.000000     0.000000     0.000000     0.000000     0.000000
   19     1.000000   120.000000     0.577350    -0.577350    -0.577350     0.000000     0.000000     0.000000
   20     1.000000   180.000000    -0.000000    -1.000000     0.000000     0.000000     0.000000     0.000000
   21     1.000000   120.000000     0.577350     0.577350    -0.577350     0.000000     0.000000     0.000000
   22    -1.000000   180.000000    -0.000000    -0.707107     0.707107     0.000000     0.000000     0.000000
   23    -1.000000   180.000000     0.707107    -0.707107     0.000000     0.000000     0.000000     0.000000
   24    -1.000000   180.000000    -0.707107     0.000000     0.707107     0.000000     0.000000     0.000000

 Subroutine IBZKPT returns following result:
 ===========================================

 Found     84 irreducible k-points:

 Following reciprocal coordinates:
            Coordinates               Weight
  0.000000  0.000000  0.000000      1.000000
  0.076923  0.000000 -0.000000      8.000000
  0.153846 -0.000000  0.000000      8.000000
  0.230769 -0.000000 -0.000000      8.000000
  0.307692 -0.000000  0.000000      8.000000
  0.384615  0.000000 -0.000000      8.000000
  0.461538 -0.000000  0.000000      8.000000
  0.076923  0.076923  0.000000      6.000000
  0.153846  0.076923  0.000000     24.000000
  0.230769  0.076923  0.000000     24.000000
  0.307692  0.076923 -0.000000     24.000000
  0.384615  0.076923  0.000000     24.000000
  0.461538  0.076923 -0.000000     24.000000
 -0.461538  0.076923 -0.000000     24.000000
 -0.384615  0.076923  0.000000     24.000000
 -0.307692  0.076923 -0.000000     24.000000
 -0.230769  0.076923 -0.000000     24.000000
 -0.153846  0.076923  0.000000     24.000000
 -0.076923  0.076923  0.000000     12.000000
  0.153846  0.153846  0.000000      6.000000
  0.230769  0.153846 -0.000000     24.000000
  0.307692  0.153846  0.000000     24.000000
  0.384615  0.153846 -0.000000     24.000000
  0.461538  0.153846 -0.000000     24.000000
 -0.461538  0.153846 -0.000000     24.000000
 -0.384615  0.153846  0.000000     24.000000
 -0.307692  0.153846 -0.000000     24.000000
 -0.230769  0.153846 -0.000000     24.000000
 -0.153846  0.153846 -0.000000     12.000000
  0.230769  0.230769  0.000000      6.000000
  0.307692  0.230769  0.000000     24.000000
  0.384615  0.230769 -0.000000     24.000000
  0.461538  0.230769  0.000000     24.000000
 -0.461538  0.230769 -0.000000     24.000000
 -0.384615  0.230769  0.000000     24.000000
 -0.307692  0.230769  0.000000     24.000000
 -0.230769  0.230769  0.000000     12.000000
  0.307692  0.307692  0.000000      6.000000
  0.384615  0.307692  0.000000     24.000000
  0.461538  0.307692  0.000000     24.000000
 -0.461538  0.307692  0.000000     24.000000
 -0.384615  0.307692  0.000000     24.000000
 -0.307692  0.307692 -0.000000     12.000000
  0.384615  0.384615  0.000000      6.000000
  0.461538  0.384615  0.000000     24.000000
 -0.461538  0.384615  0.000000     24.000000
 -0.384615  0.384615  0.000000     12.000000
  0.461538  0.461538  0.000000      6.000000
 -0.461538  0.461538 -0.000000     12.000000
  0.230769  0.153846  0.076923     24.000000
  0.307692  0.153846  0.076923     48.000000
  0.384615  0.153846  0.076923     48.000000
  0.461538  0.153846  0.076923     48.000000
 -0.461538  0.153846  0.076923     48.000000
  0.307692  0.230769  0.076923     24.000000
  0.384615  0.230769  0.076923     48.000000
  0.461538  0.230769  0.076923     48.000000
 -0.461538  0.230769  0.076923     48.000000
 -0.384615  0.230769  0.076923     48.000000
 -0.307692  0.230769  0.076923     48.000000
 -0.230769  0.230769  0.076923     48.000000
 -0.153846  0.230769  0.076923     24.000000
  0.384615  0.307692  0.076923     24.000000
  0.461538  0.307692  0.076923     48.000000
 -0.461538  0.307692  0.076923     48.000000
 -0.384615  0.307692  0.076923     48.000000
 -0.307692  0.307692  0.076923     48.000000
 -0.230769  0.307692  0.076923     24.000000
  0.461538  0.384615  0.076923     24.000000
 -0.461538  0.384615  0.076923     48.000000
 -0.384615  0.384615  0.076923     48.000000
 -0.307692  0.384615  0.076923     24.000000
 -0.461538  0.461538  0.076923     24.000000
 -0.384615  0.461538  0.076923     24.000000
  0.461538  0.307692  0.153846     24.000000
 -0.461538  0.307692  0.153846     48.000000
 -0.384615  0.307692  0.153846     48.000000
 -0.461538  0.384615  0.153846     24.000000
 -0.384615  0.384615  0.153846     48.000000
 -0.307692  0.384615  0.153846     48.000000
 -0.230769  0.384615  0.153846     24.000000
 -0.384615  0.461538  0.153846     24.000000
 -0.307692  0.461538  0.153846     24.000000
 -0.307692  0.461538  0.230769     24.000000

 Following cartesian coordinates:
            Coordinates               Weight
  0.000000  0.000000  0.000000      1.000000
 -0.011230  0.011230  0.011230      8.000000
 -0.022460  0.022460  0.022460      8.000000
 -0.033690  0.033690  0.033690      8.000000
 -0.044920  0.044920  0.044920      8.000000
 -0.056151  0.056151  0.056151      8.000000
 -0.067381  0.067381  0.067381      8.000000
  0.000000 -0.000000  0.022460      6.000000
 -0.011230  0.011230  0.033690     24.000000
 -0.022460  0.022460  0.044920     24.000000
 -0.033690  0.033690  0.056151     24.000000
 -0.044920  0.044920  0.067381     24.000000
 -0.056151  0.056151  0.078611     24.000000
  0.078611 -0.078611 -0.056151     24.000000
  0.067381 -0.067381 -0.044920     24.000000
  0.056151 -0.056151 -0.033690     24.000000
  0.044920 -0.044920 -0.022460     24.000000
  0.033690 -0.033690 -0.011230     24.000000
  0.022460 -0.022460 -0.000000     12.000000
  0.000000  0.000000  0.044920      6.000000
 -0.011230  0.011230  0.056151     24.000000
 -0.022460  0.022460  0.067381     24.000000
 -0.033690  0.033690  0.078611     24.000000
 -0.044920  0.044920  0.089841     24.000000
  0.089841 -0.089841 -0.044920     24.000000
  0.078611 -0.078611 -0.033690     24.000000
  0.067381 -0.067381 -0.022460     24.000000
  0.056151 -0.056151 -0.011230     24.000000
  0.044920 -0.044920  0.000000     12.000000
  0.000000 -0.000000  0.067381      6.000000
 -0.011230  0.011230  0.078611     24.000000
 -0.022460  0.022460  0.089841     24.000000
 -0.033690  0.033690  0.101071     24.000000
  0.101071 -0.101071 -0.033690     24.000000
  0.089841 -0.089841 -0.022460     24.000000
  0.078611 -0.078611 -0.011230     24.000000
  0.067381 -0.067381  0.000000     12.000000
  0.000000  0.000000  0.089841      6.000000
 -0.011230  0.011230  0.101071     24.000000
 -0.022460  0.022460  0.112301     24.000000
  0.112301 -0.112301 -0.022460     24.000000
  0.101071 -0.101071 -0.011230     24.000000
  0.089841 -0.089841  0.000000     12.000000
  0.000000 -0.000000  0.112301      6.000000
 -0.011230  0.011230  0.123531     24.000000
  0.123531 -0.123531 -0.011230     24.000000
  0.112301 -0.112301 -0.000000     12.000000
  0.000000 -0.000000  0.134761      6.000000
  0.134761 -0.134761  0.000000     12.000000
  0.000000  0.022460  0.044920     24.000000
 -0.011230  0.033690  0.056151     48.000000
 -0.022460  0.044920  0.067381     48.000000
 -0.033690  0.056151  0.078611     48.000000
  0.101071 -0.078611 -0.056151     48.000000
  0.000000  0.022460  0.067381     24.000000
 -0.011230  0.033690  0.078611     48.000000
 -0.022460  0.044920  0.089841     48.000000
  0.112301 -0.089841 -0.044920     48.000000
  0.101071 -0.078611 -0.033690     48.000000
  0.089841 -0.067381 -0.022460     48.000000
  0.078611 -0.056151 -0.011230     48.000000
  0.067381 -0.044920 -0.000000     24.000000
  0.000000  0.022460  0.089841     24.000000
 -0.011230  0.033690  0.101071     48.000000
  0.123531 -0.101071 -0.033690     48.000000
  0.112301 -0.089841 -0.022460     48.000000
  0.101071 -0.078611 -0.011230     48.000000
  0.089841 -0.067381 -0.000000     24.000000
  0.000000  0.022460  0.112301     24.000000
  0.134761 -0.112301 -0.022460     48.000000
  0.123531 -0.101071 -0.011230     48.000000
  0.112301 -0.089841 -0.000000     24.000000
  0.145991 -0.123531 -0.011230     24.000000
  0.134761 -0.112301 -0.000000     24.000000
 -0.000000  0.044920  0.089841     24.000000
  0.134761 -0.089841 -0.044920     48.000000
  0.123531 -0.078611 -0.033690     48.000000
  0.145991 -0.101071 -0.033690     24.000000
  0.134761 -0.089841 -0.022460     48.000000
  0.123531 -0.078611 -0.011230     48.000000
  0.112301 -0.067381 -0.000000     24.000000
  0.145991 -0.101071 -0.011230     24.000000
  0.134761 -0.089841  0.000000     24.000000
  0.145991 -0.078611 -0.011230     24.000000



--------------------------------------------------------------------------------------------------------




 Dimension of arrays:
   k-points           NKPTS =     84   k-points in BZ     NKDIM =     84   number of bands    NBANDS=     24
   number of dos      NEDOS =    301   number of ions     NIONS =      3
   non local maximal  LDIM  =      8   non local SUM 2l+1 LMDIM =     32
   total plane-waves  NPLWV =  64000
   max r-space proj   IRMAX =      1   max aug-charges    IRDMAX= 429003
   dimension x,y,z NGX =    40 NGY =   40 NGZ =   40
   dimension x,y,z NGXF=    80 NGYF=   80 NGZF=   80
   support grid    NGXF=   160 NGYF=  160 NGZF=  160
   ions per type =               1   1   1
   NGX,Y,Z   is equivalent  to a cutoff of  14.22, 14.22, 14.22 a.u.
   NGXF,Y,Z  is equivalent  to a cutoff of  28.44, 28.44, 28.44 a.u.

 SYSTEM =  unknown system
 POSCAR =  Th1 Bi1 Pt1

 Startparameter for this run:
   NWRITE =      2    write-flag & timer
   PREC   = acc       normal or accurate (medium, high low for compatibility)
   ISTART =      0    job   : 0-new  1-cont  2-samecut
   ICHARG =      2    charge: 1-file 2-atom 10-const
   ISPIN  =      1    spin polarized calculation?
   LNONCOLLINEAR =      F non collinear calculations
   LSORBIT =      F    spin-orbit coupling
   INIWAV =      1    electr: 0-lowe 1-rand  2-diag
   LASPH  =      F    aspherical Exc in radial PAW
   METAGGA=      F    non-selfconsistent MetaGGA calc.

 Electronic Relaxation 1
   ENCUT  =  700.0 eV  51.45 Ry    7.17 a.u.  10.09 10.09 10.09*2*pi/ulx,y,z
   ENINI  =  700.0     initial cutoff
   ENAUG  =  535.4 eV  augmentation charge cutoff
   NELM   =     60;   NELMIN=  5; NELMDL= -5     # of ELM steps
   EDIFF  = 0.1E-06   stopping-criterion for ELM
   LREAL  =      F    real-space projection
   NLSPLINE    = F    spline interpolate recip. space projectors
   LCOMPAT=      F    compatible to vasp.4.4
   GGA_COMPAT  = T    GGA compatible to vasp.4.4-vasp.4.6
   LMAXPAW     = -100 max onsite density
   LMAXMIX     =    2 max onsite mixed and CHGCAR
   VOSKOWN=      0    Vosko Wilk Nusair interpolation
   ROPT   =    0.00000   0.00000   0.00000
 Ionic relaxation
   EDIFFG = 0.1E-05   stopping-criterion for IOM
   NSW    =      0    number of steps for IOM
   NBLOCK =      1;   KBLOCK =      1    inner block; outer block
   IBRION =     -1    ionic relax: 0-MD 1-quasi-New 2-CG
   NFREE  =      0    steps in history (QN), initial steepest desc. (CG)
   ISIF   =      3    stress and relaxation
   IWAVPR =     10    prediction:  0-non 1-charg 2-wave 3-comb
   ISYM   =      2    0-nonsym 1-usesym 2-fastsym
   LCORR  =      T    Harris-Foulkes like correction to forces

   POTIM  = 0.5000    time-step for ionic-motion
   TEIN   =    0.0    initial temperature
   TEBEG  =    0.0;   TEEND  =   0.0 temperature during run
   SMASS  =  -3.00    Nose mass-parameter (am)
   estimated Nose-frequenzy (Omega)   =  0.10E-29 period in steps = 0.13E+47 mass=  -0.500E-27a.u.
   SCALEE = 1.0000    scale energy and forces
   NPACO  =    256;   APACO  = 16.0  distance and # of slots for P.C.
   PSTRESS=    0.0 pullay stress

  Mass of Ions in am
   POMASS = 232.04208.98195.08
  Ionic Valenz
   ZVAL   =  12.00 15.00 10.00
  Atomic Wigner-Seitz radii
   RWIGS  =  -1.00 -1.00 -1.00
  virtual crystal weights
   VCA    =   1.00  1.00  1.00
   NELECT =      37.0000    total number of electrons
   NUPDOWN=      -1.0000    fix difference up-down

 DOS related values:
   EMIN   =  10.00;   EMAX   =-10.00  energy-range for DOS
   EFERMI =   0.00
   ISMEAR =     0;   SIGMA  =   0.01  broadening in eV -4-tet -1-fermi 0-gaus

 Electronic relaxation 2 (details)
   IALGO  =     38    algorithm
   LDIAG  =      T    sub-space diagonalisation (order eigenvalues)
   LSUBROT=      F    optimize rotation matrix (better conditioning)
   TURBO    =      0    0=normal 1=particle mesh
   IRESTART =      0    0=no restart 2=restart with 2 vectors
   NREBOOT  =      0    no. of reboots
   NMIN     =      0    reboot dimension
   EREF     =   0.00    reference energy to select bands
   IMIX   =      4    mixing-type and parameters
     AMIX     =   0.40;   BMIX     =  1.00
     AMIX_MAG =   1.60;   BMIX_MAG =  1.00
     AMIN     =   0.10
     WC   =   100.;   INIMIX=   1;  MIXPRE=   1;  MAXMIX= -45

 Intra band minimization:
   WEIMIN = 0.0000     energy-eigenvalue tresh-hold
   EBREAK =  0.10E-08  absolut break condition
   DEPER  =   0.30     relativ break condition

   TIME   =   0.40     timestep for ELM

  volume/ion in A,a.u.               =      24.10       162.66
  Fermi-wavevector in a.u.,A,eV,Ry     =   1.309409  2.474424 23.327883  1.714551
  Thomas-Fermi vector in A             =   2.440009

 Write flags
   LWAVE        =      F    write WAVECAR
   LDOWNSAMPLE  =      F    k-point downsampling of WAVECAR
   LCHARG       =      F    write CHGCAR
   LVTOT        =      F    write LOCPOT, total local potential
   LVHAR        =      F    write LOCPOT, Hartree potential only
   LELF         =      F    write electronic localiz. function (ELF)
   LORBIT       =      0    0 simple, 1 ext, 2 COOP (PROOUT), +10 PAW based schemes


 Dipole corrections
   LMONO  =      F    monopole corrections only (constant potential shift)
   LDIPOL =      F    correct potential (dipole corrections)
   IDIPOL =      0    1-x, 2-y, 3-z, 4-all directions
   EPSILON=  1.0000000 bulk dielectric constant

 Exchange correlation treatment:
   GGA     =    PS    GGA type
   LEXCH   =    14    internal setting for exchange type
   VOSKOWN=      0    Vosko Wilk Nusair interpolation
   LHFCALC =     F    Hartree Fock is set to
   LHFONE  =     F    Hartree Fock one center treatment
   AEXX    =    0.0000 exact exchange contribution

 Linear response parameters
   LEPSILON=     F    determine dielectric tensor
   LRPA    =     F    only Hartree local field effects (RPA)
   LNABLA  =     F    use nabla operator in PAW spheres
   LVEL    =     F    velocity operator in full k-point grid
   LINTERFAST=   F  fast interpolation
   KINTER  =     0    interpolate to denser k-point grid
   CSHIFT  =0.1000    complex shift for real part using Kramers Kronig
   OMEGAMAX=  -1.0    maximum frequency
   DEG_THRESHOLD= 0.2000000E-02 threshold for treating states as degnerate
   RTIME   =   -0.100 relaxation time in fs
  (WPLASMAI=    0.000 imaginary part of plasma frequency in eV, 0.658/RTIME)
   DFIELD  = 0.0000000 0.0000000 0.0000000 field for delta impulse in time

 Orbital magnetization related:
   ORBITALMAG=     F  switch on orbital magnetization
   LCHIMAG   =     F  perturbation theory with respect to B field
   DQ        =  0.001000  dq finite difference perturbation B field
   LLRAUG    =     F  two centre corrections for induced B field



--------------------------------------------------------------------------------------------------------


 Static calculation
 charge density and potential will be updated during run
 non-spin polarized calculation
 Variant of blocked Davidson
 Davidson routine will perform the subspace rotation
 perform sub-space diagonalisation
    after iterative eigenvector-optimisation
 modified Broyden-mixing scheme, WC =      100.0
 initial mixing is a Kerker type mixing with AMIX =  0.4000 and BMIX =      1.0000
 Hartree-type preconditioning will be used
 using additional bands            5
 reciprocal scheme for non local part
 use partial core corrections
 calculate Harris-corrections to forces
   (improved forces if not selfconsistent)
 use gradient corrections
 use of overlap-Matrix (Vanderbilt PP)
 Gauss-broadening in eV      SIGMA  =   0.01


--------------------------------------------------------------------------------------------------------


  energy-cutoff  :      700.00
  volume of cell :       72.31
      direct lattice vectors                 reciprocal lattice vectors
     0.000000000  3.306665008  3.306665008    -0.151209753  0.151209753  0.151209753
     3.306665008  0.000000000  3.306665008     0.151209753 -0.151209753  0.151209753
     3.306665008  3.306665008  0.000000000     0.151209753  0.151209753 -0.151209753

  length of vectors
     4.676330501  4.676330501  4.676330501     0.261902975  0.261902975  0.261902975



 k-points in units of 2pi/SCALE and weight: KPOINTS
   0.00000000  0.00000000  0.00000000       0.000
  -0.01123011  0.01123011  0.01123011       0.004
  -0.02246022  0.02246022  0.02246022       0.004
  -0.03369033  0.03369033  0.03369033       0.004
  -0.04492043  0.04492043  0.04492043       0.004
  -0.05615054  0.05615054  0.05615054       0.004
  -0.06738065  0.06738065  0.06738065       0.004
   0.00000000 -0.00000000  0.02246022       0.003
  -0.01123011  0.01123011  0.03369033       0.011
  -0.02246022  0.02246022  0.04492043       0.011
  -0.03369033  0.03369033  0.05615054       0.011
  -0.04492043  0.04492043  0.06738065       0.011
  -0.05615054  0.05615054  0.07861076       0.011
   0.07861076 -0.07861076 -0.05615054       0.011
   0.06738065 -0.06738065 -0.04492043       0.011
   0.05615054 -0.05615054 -0.03369033       0.011
   0.04492043 -0.04492043 -0.02246022       0.011
   0.03369033 -0.03369033 -0.01123011       0.011
   0.02246022 -0.02246022 -0.00000000       0.005
   0.00000000  0.00000000  0.04492043       0.003
  -0.01123011  0.01123011  0.05615054       0.011
  -0.02246022  0.02246022  0.06738065       0.011
  -0.03369033  0.03369033  0.07861076       0.011
  -0.04492043  0.04492043  0.08984087       0.011
   0.08984087 -0.08984087 -0.04492043       0.011
   0.07861076 -0.07861076 -0.03369033       0.011
   0.06738065 -0.06738065 -0.02246022       0.011
   0.05615054 -0.05615054 -0.01123011       0.011
   0.04492043 -0.04492043  0.00000000       0.005
   0.00000000 -0.00000000  0.06738065       0.003
  -0.01123011  0.01123011  0.07861076       0.011
  -0.02246022  0.02246022  0.08984087       0.011
  -0.03369033  0.03369033  0.10107098       0.011
   0.10107098 -0.10107098 -0.03369033       0.011
   0.08984087 -0.08984087 -0.02246022       0.011
   0.07861076 -0.07861076 -0.01123011       0.011
   0.06738065 -0.06738065  0.00000000       0.005
   0.00000000  0.00000000  0.08984087       0.003
  -0.01123011  0.01123011  0.10107098       0.011
  -0.02246022  0.02246022  0.11230109       0.011
   0.11230109 -0.11230109 -0.02246022       0.011
   0.10107098 -0.10107098 -0.01123011       0.011
   0.08984087 -0.08984087  0.00000000       0.005
   0.00000000 -0.00000000  0.11230109       0.003
  -0.01123011  0.01123011  0.12353119       0.011
   0.12353119 -0.12353119 -0.01123011       0.011
   0.11230109 -0.11230109 -0.00000000       0.005
   0.00000000 -0.00000000  0.13476130       0.003
   0.13476130 -0.13476130  0.00000000       0.005
   0.00000000  0.02246022  0.04492043       0.011
  -0.01123011  0.03369033  0.05615054       0.022
  -0.02246022  0.04492043  0.06738065       0.022
  -0.03369033  0.05615054  0.07861076       0.022
   0.10107098 -0.07861076 -0.05615054       0.022
   0.00000000  0.02246022  0.06738065       0.011
  -0.01123011  0.03369033  0.07861076       0.022
  -0.02246022  0.04492043  0.08984087       0.022
   0.11230109 -0.08984087 -0.04492043       0.022
   0.10107098 -0.07861076 -0.03369033       0.022
   0.08984087 -0.06738065 -0.02246022       0.022
   0.07861076 -0.05615054 -0.01123011       0.022
   0.06738065 -0.04492043 -0.00000000       0.011
   0.00000000  0.02246022  0.08984087       0.011
  -0.01123011  0.03369033  0.10107098       0.022
   0.12353119 -0.10107098 -0.03369033       0.022
   0.11230109 -0.08984087 -0.02246022       0.022
   0.10107098 -0.07861076 -0.01123011       0.022
   0.08984087 -0.06738065 -0.00000000       0.011
   0.00000000  0.02246022  0.11230109       0.011
   0.13476130 -0.11230109 -0.02246022       0.022
   0.12353119 -0.10107098 -0.01123011       0.022
   0.11230109 -0.08984087 -0.00000000       0.011
   0.14599141 -0.12353119 -0.01123011       0.011
   0.13476130 -0.11230109 -0.00000000       0.011
  -0.00000000  0.04492043  0.08984087       0.011
   0.13476130 -0.08984087 -0.04492043       0.022
   0.12353119 -0.07861076 -0.03369033       0.022
   0.14599141 -0.10107098 -0.03369033       0.011
   0.13476130 -0.08984087 -0.02246022       0.022
   0.12353119 -0.07861076 -0.01123011       0.022
   0.11230109 -0.06738065 -0.00000000       0.011
   0.14599141 -0.10107098 -0.01123011       0.011
   0.13476130 -0.08984087  0.00000000       0.011
   0.14599141 -0.07861076 -0.01123011       0.011

 k-points in reciprocal lattice and weights: KPOINTS
   0.00000000  0.00000000  0.00000000       0.000
   0.07692308  0.00000000 -0.00000000       0.004
   0.15384615 -0.00000000  0.00000000       0.004
   0.23076923 -0.00000000 -0.00000000       0.004
   0.30769231 -0.00000000  0.00000000       0.004
   0.38461538  0.00000000 -0.00000000       0.004
   0.46153846 -0.00000000  0.00000000       0.004
   0.07692308  0.07692308  0.00000000       0.003
   0.15384615  0.07692308  0.00000000       0.011
   0.23076923  0.07692308  0.00000000       0.011
   0.30769231  0.07692308 -0.00000000       0.011
   0.38461538  0.07692308  0.00000000       0.011
   0.46153846  0.07692308 -0.00000000       0.011
  -0.46153846  0.07692308 -0.00000000       0.011
  -0.38461538  0.07692308  0.00000000       0.011
  -0.30769231  0.07692308 -0.00000000       0.011
  -0.23076923  0.07692308 -0.00000000       0.011
  -0.15384615  0.07692308  0.00000000       0.011
  -0.07692308  0.07692308  0.00000000       0.005
   0.15384615  0.15384615  0.00000000       0.003
   0.23076923  0.15384615 -0.00000000       0.011
   0.30769231  0.15384615  0.00000000       0.011
   0.38461538  0.15384615 -0.00000000       0.011
   0.46153846  0.15384615 -0.00000000       0.011
  -0.46153846  0.15384615 -0.00000000       0.011
  -0.38461538  0.15384615  0.00000000       0.011
  -0.30769231  0.15384615 -0.00000000       0.011
  -0.23076923  0.15384615 -0.00000000       0.011
  -0.15384615  0.15384615 -0.00000000       0.005
   0.23076923  0.23076923  0.00000000       0.003
   0.30769231  0.23076923  0.00000000       0.011
   0.38461538  0.23076923 -0.00000000       0.011
   0.46153846  0.23076923  0.00000000       0.011
  -0.46153846  0.23076923 -0.00000000       0.011
  -0.38461538  0.23076923  0.00000000       0.011
  -0.30769231  0.23076923  0.00000000       0.011
  -0.23076923  0.23076923  0.00000000       0.005
   0.30769231  0.30769231  0.00000000       0.003
   0.38461538  0.30769231  0.00000000       0.011
   0.46153846  0.30769231  0.00000000       0.011
  -0.46153846  0.30769231  0.00000000       0.011
  -0.38461538  0.30769231  0.00000000       0.011
  -0.30769231  0.30769231 -0.00000000       0.005
   0.38461538  0.38461538  0.00000000       0.003
   0.46153846  0.38461538  0.00000000       0.011
  -0.46153846  0.38461538  0.00000000       0.011
  -0.38461538  0.38461538  0.00000000       0.005
   0.46153846  0.46153846  0.00000000       0.003
  -0.46153846  0.46153846 -0.00000000       0.005
   0.23076923  0.15384615  0.07692308       0.011
   0.30769231  0.15384615  0.07692308       0.022
   0.38461538  0.15384615  0.07692308       0.022
   0.46153846  0.15384615  0.07692308       0.022
  -0.46153846  0.15384615  0.07692308       0.022
   0.30769231  0.23076923  0.07692308       0.011
   0.38461538  0.23076923  0.07692308       0.022
   0.46153846  0.23076923  0.07692308       0.022
  -0.46153846  0.23076923  0.07692308       0.022
  -0.38461538  0.23076923  0.07692308       0.022
  -0.30769231  0.23076923  0.07692308       0.022
  -0.23076923  0.23076923  0.07692308       0.022
  -0.15384615  0.23076923  0.07692308       0.011
   0.38461538  0.30769231  0.07692308       0.011
   0.46153846  0.30769231  0.07692308       0.022
  -0.46153846  0.30769231  0.07692308       0.022
  -0.38461538  0.30769231  0.07692308       0.022
  -0.30769231  0.30769231  0.07692308       0.022
  -0.23076923  0.30769231  0.07692308       0.011
   0.46153846  0.38461538  0.07692308       0.011
  -0.46153846  0.38461538  0.07692308       0.022
  -0.38461538  0.38461538  0.07692308       0.022
  -0.30769231  0.38461538  0.07692308       0.011
  -0.46153846  0.46153846  0.07692308       0.011
  -0.38461538  0.46153846  0.07692308       0.011
   0.46153846  0.30769231  0.15384615       0.011
  -0.46153846  0.30769231  0.15384615       0.022
  -0.38461538  0.30769231  0.15384615       0.022
  -0.46153846  0.38461538  0.15384615       0.011
  -0.38461538  0.38461538  0.15384615       0.022
  -0.30769231  0.38461538  0.15384615       0.022
  -0.23076923  0.38461538  0.15384615       0.011
  -0.38461538  0.46153846  0.15384615       0.011
  -0.30769231  0.46153846  0.15384615       0.011
  -0.30769231  0.46153846  0.23076923       0.011

 position of ions in fractional coordinates (direct lattice)
   0.25000000  0.25000000  0.25000000
   0.75000000  0.75000000  0.75000000
   0.00000000  0.00000000  0.00000000

 position of ions in cartesian coordinates  (Angst):
   1.65333250  1.65333250  1.65333250
   4.95999751  4.95999751  4.95999751
   0.00000000  0.00000000  0.00000000



--------------------------------------------------------------------------------------------------------


 k-point  1 :   0.0000 0.0000 0.0000  plane waves:    3071
 k-point  2 :   0.0769 0.0000-0.0000  plane waves:    3047
 k-point  3 :   0.1538-0.0000 0.0000  plane waves:    3035
 k-point  4 :   0.2308-0.0000-0.0000  plane waves:    3023
 k-point  5 :   0.3077-0.0000 0.0000  plane waves:    3025
 k-point  6 :   0.3846 0.0000-0.0000  plane waves:    3031
 k-point  7 :   0.4615-0.0000 0.0000  plane waves:    3037
 k-point  8 :   0.0769 0.0769 0.0000  plane waves:    3051
 k-point  9 :   0.1538 0.0769 0.0000  plane waves:    3039
 k-point 10 :   0.2308 0.0769 0.0000  plane waves:    3032
 k-point 11 :   0.3077 0.0769-0.0000  plane waves:    3028
 k-point 12 :   0.3846 0.0769 0.0000  plane waves:    3029
 k-point 13 :   0.4615 0.0769-0.0000  plane waves:    3035
 k-point 14 :  -0.4615 0.0769-0.0000  plane waves:    3038
 k-point 15 :  -0.3846 0.0769 0.0000  plane waves:    3034
 k-point 16 :  -0.3077 0.0769-0.0000  plane waves:    3043
 k-point 17 :  -0.2308 0.0769-0.0000  plane waves:    3024
 k-point 18 :  -0.1538 0.0769 0.0000  plane waves:    3028
 k-point 19 :  -0.0769 0.0769 0.0000  plane waves:    3024
 k-point 20 :   0.1538 0.1538 0.0000  plane waves:    3026
 k-point 21 :   0.2308 0.1538-0.0000  plane waves:    3017
 k-point 22 :   0.3077 0.1538 0.0000  plane waves:    3018
 k-point 23 :   0.3846 0.1538-0.0000  plane waves:    3032
 k-point 24 :   0.4615 0.1538-0.0000  plane waves:    3035
 k-point 25 :  -0.4615 0.1538-0.0000  plane waves:    3043
 k-point 26 :  -0.3846 0.1538 0.0000  plane waves:    3041
 k-point 27 :  -0.3077 0.1538-0.0000  plane waves:    3046
 k-point 28 :  -0.2308 0.1538-0.0000  plane waves:    3035
 k-point 29 :  -0.1538 0.1538-0.0000  plane waves:    3022
 k-point 30 :   0.2308 0.2308 0.0000  plane waves:    3042
 k-point 31 :   0.3077 0.2308 0.0000  plane waves:    3034
 k-point 32 :   0.3846 0.2308-0.0000  plane waves:    3045
 k-point 33 :   0.4615 0.2308 0.0000  plane waves:    3038
 k-point 34 :  -0.4615 0.2308-0.0000  plane waves:    3050
 k-point 35 :  -0.3846 0.2308 0.0000  plane waves:    3046
 k-point 36 :  -0.3077 0.2308 0.0000  plane waves:    3038
 k-point 37 :  -0.2308 0.2308 0.0000  plane waves:    3050
 k-point 38 :   0.3077 0.3077 0.0000  plane waves:    3054
 k-point 39 :   0.3846 0.3077 0.0000  plane waves:    3037
 k-point 40 :   0.4615 0.3077 0.0000  plane waves:    3046
 k-point 41 :  -0.4615 0.3077 0.0000  plane waves:    3055
 k-point 42 :  -0.3846 0.3077 0.0000  plane waves:    3056
 k-point 43 :  -0.3077 0.3077-0.0000  plane waves:    3058
 k-point 44 :   0.3846 0.3846 0.0000  plane waves:    3054
 k-point 45 :   0.4615 0.3846 0.0000  plane waves:    3032
 k-point 46 :  -0.4615 0.3846 0.0000  plane waves:    3048
 k-point 47 :  -0.3846 0.3846 0.0000  plane waves:    3040
 k-point 48 :   0.4615 0.4615 0.0000  plane waves:    3022
 k-point 49 :  -0.4615 0.4615-0.0000  plane waves:    3034
 k-point 50 :   0.2308 0.1538 0.0769  plane waves:    3038
 k-point 51 :   0.3077 0.1538 0.0769  plane waves:    3028
 k-point 52 :   0.3846 0.1538 0.0769  plane waves:    3039
 k-point 53 :   0.4615 0.1538 0.0769  plane waves:    3033
 k-point 54 :  -0.4615 0.1538 0.0769  plane waves:    3038
 k-point 55 :   0.3077 0.2308 0.0769  plane waves:    3026
 k-point 56 :   0.3846 0.2308 0.0769  plane waves:    3041
 k-point 57 :   0.4615 0.2308 0.0769  plane waves:    3032
 k-point 58 :  -0.4615 0.2308 0.0769  plane waves:    3047
 k-point 59 :  -0.3846 0.2308 0.0769  plane waves:    3052
 k-point 60 :  -0.3077 0.2308 0.0769  plane waves:    3038
 k-point 61 :  -0.2308 0.2308 0.0769  plane waves:    3045
 k-point 62 :  -0.1538 0.2308 0.0769  plane waves:    3028
 k-point 63 :   0.3846 0.3077 0.0769  plane waves:    3038
 k-point 64 :   0.4615 0.3077 0.0769  plane waves:    3030
 k-point 65 :  -0.4615 0.3077 0.0769  plane waves:    3040
 k-point 66 :  -0.3846 0.3077 0.0769  plane waves:    3041
 k-point 67 :  -0.3077 0.3077 0.0769  plane waves:    3049
 k-point 68 :  -0.2308 0.3077 0.0769  plane waves:    3051
 k-point 69 :   0.4615 0.3846 0.0769  plane waves:    3030
 k-point 70 :  -0.4615 0.3846 0.0769  plane waves:    3050
 k-point 71 :  -0.3846 0.3846 0.0769  plane waves:    3045
 k-point 72 :  -0.3077 0.3846 0.0769  plane waves:    3042
 k-point 73 :  -0.4615 0.4615 0.0769  plane waves:    3035
 k-point 74 :  -0.3846 0.4615 0.0769  plane waves:    3044
 k-point 75 :   0.4615 0.3077 0.1538  plane waves:    3041
 k-point 76 :  -0.4615 0.3077 0.1538  plane waves:    3046
 k-point 77 :  -0.3846 0.3077 0.1538  plane waves:    3051
 k-point 78 :  -0.4615 0.3846 0.1538  plane waves:    3043
 k-point 79 :  -0.3846 0.3846 0.1538  plane waves:    3059
 k-point 80 :  -0.3077 0.3846 0.1538  plane waves:    3051
 k-point 81 :  -0.2308 0.3846 0.1538  plane waves:    3046
 k-point 82 :  -0.3846 0.4615 0.1538  plane waves:    3056
 k-point 83 :  -0.3077 0.4615 0.1538  plane waves:    3043
 k-point 84 :  -0.3077 0.4615 0.2308  plane waves:    3059

 maximum and minimum number of plane-waves per node :       779      736

 maximum number of plane-waves:      3071
 maximum index in each direction:
   IXMAX=   10   IYMAX=   10   IZMAX=   10
   IXMIN=  -10   IYMIN=  -10   IZMIN=  -10


 parallel 3D FFT for wavefunctions:
    minimum data exchange during FFTs selected (reduces bandwidth)
 parallel 3D FFT for charge:
    minimum data exchange during FFTs selected (reduces bandwidth)


 total amount of memory used by VASP MPI-rank0    94310. kBytes
=======================================================================

   base      :      30000. kBytes
   nonl-proj :      49840. kBytes
   fftplans  :       5206. kBytes
   grid      :       2732. kBytes
   one-center:         49. kBytes
   wavefun   :       6483. kBytes

     INWAV:  cpu time    0.0002: real time    0.0004
 Broyden mixing: mesh for mixing (old mesh)
   NGX = 21   NGY = 21   NGZ = 21
  (NGX  = 80   NGY  = 80   NGZ  = 80)
  gives a total of   9261 points

 initial charge density was supplied:
 charge density of overlapping atoms calculated
 number of electron      37.0000000 magnetization
 keeping initial charge density in first step


--------------------------------------------------------------------------------------------------------


 Maximum index for augmentation-charges        25887 (set IRDMAX)


--------------------------------------------------------------------------------------------------------


 First call to EWALD:  gamma=   0.425
 Maximum number of real-space cells 3x 3x 3
 Maximum number of reciprocal cells 3x 3x 3

    FEWALD:  cpu time    0.0065: real time    0.0074


--------------------------------------- Iteration      1(   1)  ---------------------------------------


    POTLOK:  cpu time    0.0523: real time    0.1170
    SETDIJ:  cpu time    0.0957: real time    0.0958
     EDDAV:  cpu time    1.4209: real time    1.4297
       DOS:  cpu time    0.0041: real time    0.0045
    --------------------------------------------
      LOOP:  cpu time    1.5732: real time    1.6477

 eigenvalue-minimisations  :  4032
 total energy-change (2. order) : 0.4525857E+03  (-0.2081266E+04)
 number of electron      37.0000000 magnetization
 augmentation part       37.0000000 magnetization

 Free energy of the ion-electron system (eV)
  ---------------------------------------------------
  alpha Z        PSCENC =       237.60855535
  Ewald energy   TEWEN  =     -3239.57228859
  -Hartree energ DENC   =      -709.70322445
  -exchange      EXHF   =         0.00000000
  -V(xc)+E(xc)   XCENC  =        69.50234599
  PAW double counting   =      3147.30828992    -3070.62761383
  entropy T*S    EENTRO =        -0.00018800
  eigenvalues    EBANDS =       343.39639122
  atomic energy  EATOM  =      3674.67342263
  Solvation  Ediel_sol  =         0.00000000
  ---------------------------------------------------
  free energy    TOTEN  =       452.58569025 eV

  energy without entropy =      452.58587825  energy(sigma->0) =      452.58578425


--------------------------------------------------------------------------------------------------------




--------------------------------------- Iteration      1(   2)  ---------------------------------------


     EDDAV:  cpu time    1.4520: real time    1.4788
       DOS:  cpu time    0.0030: real time    0.0032
    --------------------------------------------
      LOOP:  cpu time    1.4550: real time    1.4828

 eigenvalue-minimisations  :  4120
 total energy-change (2. order) :-0.4059856E+03  (-0.3970931E+03)
 number of electron      37.0000000 magnetization
 augmentation part       37.0000000 magnetization

 Free energy of the ion-electron system (eV)
  ---------------------------------------------------
  alpha Z        PSCENC =       237.60855535
  Ewald energy   TEWEN  =     -3239.57228859
  -Hartree energ DENC   =      -709.70322445
  -exchange      EXHF   =         0.00000000
  -V(xc)+E(xc)   XCENC  =        69.50234599
  PAW double counting   =      3147.30828992    -3070.62761383
  entropy T*S    EENTRO =        -0.00006447
  eigenvalues    EBANDS =       -62.58933131
  atomic energy  EATOM  =      3674.67342263
  Solvation  Ediel_sol  =         0.00000000
  ---------------------------------------------------
  free energy    TOTEN  =        46.60009125 eV

  energy without entropy =       46.60015572  energy(sigma->0) =       46.60012348


--------------------------------------------------------------------------------------------------------




--------------------------------------- Iteration      1(   3)  ---------------------------------------


     EDDAV:  cpu time    1.8515: real time    1.9174
       DOS:  cpu time    0.0030: real time    0.0032
    --------------------------------------------
      LOOP:  cpu time    1.8546: real time    1.9204

 eigenvalue-minimisations  :  5624
 total energy-change (2. order) :-0.6482610E+02  (-0.6392508E+02)
 number of electron      37.0000000 magnetization
 augmentation part       37.0000000 magnetization

 Free energy of the ion-electron system (eV)
  ---------------------------------------------------
  alpha Z        PSCENC =       237.60855535
  Ewald energy   TEWEN  =     -3239.57228859
  -Hartree energ DENC   =      -709.70322445
  -exchange      EXHF   =         0.00000000
  -V(xc)+E(xc)   XCENC  =        69.50234599
  PAW double counting   =      3147.30828992    -3070.62761383
  entropy T*S    EENTRO =        -0.00010579
  eigenvalues    EBANDS =      -127.41539090
  atomic energy  EATOM  =      3674.67342263
  Solvation  Ediel_sol  =         0.00000000
  ---------------------------------------------------
  free energy    TOTEN  =       -18.22600966 eV

  energy without entropy =      -18.22590387  energy(sigma->0) =      -18.22595676


--------------------------------------------------------------------------------------------------------




--------------------------------------- Iteration      1(   4)  ---------------------------------------


     EDDAV:  cpu time    2.2622: real time    2.3077
       DOS:  cpu time    0.0030: real time    0.0033
    --------------------------------------------
      LOOP:  cpu time    2.2652: real time    2.3116

 eigenvalue-minimisations  :  7368
 total energy-change (2. order) :-0.4186261E+01  (-0.4172368E+01)
 number of electron      37.0000000 magnetization
 augmentation part       37.0000000 magnetization

 Free energy of the ion-electron system (eV)
  ---------------------------------------------------
  alpha Z        PSCENC =       237.60855535
  Ewald energy   TEWEN  =     -3239.57228859
  -Hartree energ DENC   =      -709.70322445
  -exchange      EXHF   =         0.00000000
  -V(xc)+E(xc)   XCENC  =        69.50234599
  PAW double counting   =      3147.30828992    -3070.62761383
  entropy T*S    EENTRO =        -0.00017150
  eigenvalues    EBANDS =      -131.60158624
  atomic energy  EATOM  =      3674.67342263
  Solvation  Ediel_sol  =         0.00000000
  ---------------------------------------------------
  free energy    TOTEN  =       -22.41227071 eV

  energy without entropy =      -22.41209921  energy(sigma->0) =      -22.41218496


--------------------------------------------------------------------------------------------------------




--------------------------------------- Iteration      1(   5)  ---------------------------------------


     EDDAV:  cpu time    1.7951: real time    1.8175
       DOS:  cpu time    0.0030: real time    0.0032
    CHARGE:  cpu time    0.3123: real time    0.3131
    MIXING:  cpu time    0.0087: real time    0.0090
    --------------------------------------------
      LOOP:  cpu time    2.1191: real time    2.1427

 eigenvalue-minimisations  :  5512
 total energy-change (2. order) :-0.1054147E+00  (-0.1053938E+00)
 number of electron      37.0000000 magnetization
 augmentation part        5.9507486 magnetization

 Broyden mixing:
  rms(total) = 0.39419E+01    rms(broyden)= 0.39419E+01
  rms(prec ) = 0.42003E+01
  weight for this iteration     100.00

 Free energy of the ion-electron system (eV)
  ---------------------------------------------------
  alpha Z        PSCENC =       237.60855535
  Ewald energy   TEWEN  =     -3239.57228859
  -Hartree energ DENC   =      -709.70322445
  -exchange      EXHF   =         0.00000000
  -V(xc)+E(xc)   XCENC  =        69.50234599
  PAW double counting   =      3147.30828992    -3070.62761383
  entropy T*S    EENTRO =        -0.00017291
  eigenvalues    EBANDS =      -131.70699954
  atomic energy  EATOM  =      3674.67342263
  Solvation  Ediel_sol  =         0.00000000
  ---------------------------------------------------
  free energy    TOTEN  =       -22.51768542 eV

  energy without entropy =      -22.51751251  energy(sigma->0) =      -22.51759897


--------------------------------------------------------------------------------------------------------




--------------------------------------- Iteration      1(   6)  ---------------------------------------


    POTLOK:  cpu time    0.0334: real time    0.0648
    SETDIJ:  cpu time    0.0831: real time    0.0838
     EDDAV:  cpu time    1.6899: real time    1.6906
       DOS:  cpu time    0.0032: real time    0.0034
    CHARGE:  cpu time    0.2799: real time    0.2800
    MIXING:  cpu time    0.0040: real time    0.0042
    --------------------------------------------
      LOOP:  cpu time    2.0935: real time    2.1264

 eigenvalue-minimisations  :  5120
 total energy-change (2. order) : 0.8067882E+00  (-0.1492622E+00)
 number of electron      37.0000000 magnetization
 augmentation part        6.0297350 magnetization

 Broyden mixing:
  rms(total) = 0.23730E+01    rms(broyden)= 0.23730E+01
  rms(prec ) = 0.24656E+01
  weight for this iteration     100.00

 eigenvalues of (default mixing * dielectric matrix)
  average eigenvalue GAMMA=   2.4668
  2.4668

 Free energy of the ion-electron system (eV)
  ---------------------------------------------------
  alpha Z        PSCENC =       237.60855535
  Ewald energy   TEWEN  =     -3239.57228859
  -Hartree energ DENC   =      -693.79910211
  -exchange      EXHF   =         0.00000000
  -V(xc)+E(xc)   XCENC  =        69.04339972
  PAW double counting   =      3564.19553021    -3492.56539122
  entropy T*S    EENTRO =        -0.00012272
  eigenvalues    EBANDS =      -141.29490051
  atomic energy  EATOM  =      3674.67342263
  Solvation  Ediel_sol  =         0.00000000
  ---------------------------------------------------
  free energy    TOTEN  =       -21.71089723 eV

  energy without entropy =      -21.71077451  energy(sigma->0) =      -21.71083587


--------------------------------------------------------------------------------------------------------




--------------------------------------- Iteration      1(   7)  ---------------------------------------


    POTLOK:  cpu time    0.0522: real time    0.0723
    SETDIJ:  cpu time    0.0831: real time    0.0832
     EDDAV:  cpu time    1.9315: real time    1.9318
       DOS:  cpu time    0.0031: real time    0.0035
    CHARGE:  cpu time    0.2595: real time    0.2596
    MIXING:  cpu time    0.0046: real time    0.0047
    --------------------------------------------
      LOOP:  cpu time    2.3339: real time    2.3552

 eigenvalue-minimisations  :  6032
 total energy-change (2. order) : 0.1442867E+00  (-0.1854238E+00)
 number of electron      37.0000000 magnetization
 augmentation part        5.9700227 magnetization

 Broyden mixing:
  rms(total) = 0.59153E+00    rms(broyden)= 0.59153E+00
  rms(prec ) = 0.68609E+00
  weight for this iteration     100.00

 eigenvalues of (default mixing * dielectric matrix)
  average eigenvalue GAMMA=   2.1017
  1.1340  3.0694

 Free energy of the ion-electron system (eV)
  ---------------------------------------------------
  alpha Z        PSCENC =       237.60855535
  Ewald energy   TEWEN  =     -3239.57228859
  -Hartree energ DENC   =      -681.20560435
  -exchange      EXHF   =         0.00000000
  -V(xc)+E(xc)   XCENC  =        68.83343528
  PAW double counting   =      4144.36449748    -4078.53915551
  entropy T*S    EENTRO =        -0.00027075
  eigenvalues    EBANDS =      -147.72920204
  atomic energy  EATOM  =      3674.67342263
  Solvation  Ediel_sol  =         0.00000000
  ---------------------------------------------------
  free energy    TOTEN  =       -21.56661048 eV

  energy without entropy =      -21.56633973  energy(sigma->0) =      -21.56647511


--------------------------------------------------------------------------------------------------------




--------------------------------------- Iteration      1(   8)  ---------------------------------------


    POTLOK:  cpu time    0.0526: real time    0.0807
    SETDIJ:  cpu time    0.0774: real time    0.0775
     EDDAV:  cpu time    1.7705: real time    1.7707
       DOS:  cpu time    0.0030: real time    0.0034
    CHARGE:  cpu time    0.2604: real time    0.2606
    MIXING:  cpu time    0.0037: real time    0.0045
    --------------------------------------------
      LOOP:  cpu time    2.1675: real time    2.1976

 eigenvalue-minimisations  :  5464
 total energy-change (2. order) : 0.3411822E-01  (-0.3224865E-01)
 number of electron      37.0000000 magnetization
 augmentation part        5.9388030 magnetization

 Broyden mixing:
  rms(total) = 0.32340E+00    rms(broyden)= 0.32340E+00
  rms(prec ) = 0.36610E+00
  weight for this iteration     100.00

 eigenvalues of (default mixing * dielectric matrix)
  average eigenvalue GAMMA=   1.9187
  3.4671  1.5585  0.7305

 Free energy of the ion-electron system (eV)
  ---------------------------------------------------
  alpha Z        PSCENC =       237.60855535
  Ewald energy   TEWEN  =     -3239.57228859
  -Hartree energ DENC   =      -680.86792825
  -exchange      EXHF   =         0.00000000
  -V(xc)+E(xc)   XCENC  =        68.83243769
  PAW double counting   =      4202.21873049    -4136.67814973
  entropy T*S    EENTRO =        -0.00011059
  eigenvalues    EBANDS =      -147.74716128
  atomic energy  EATOM  =      3674.67342263
  Solvation  Ediel_sol  =         0.00000000
  ---------------------------------------------------
  free energy    TOTEN  =       -21.53249227 eV

  energy without entropy =      -21.53238168  energy(sigma->0) =      -21.53243697


--------------------------------------------------------------------------------------------------------




--------------------------------------- Iteration      1(   9)  ---------------------------------------


    POTLOK:  cpu time    0.0518: real time    0.0962
    SETDIJ:  cpu time    0.0850: real time    0.0852
     EDDAV:  cpu time    1.9112: real time    1.9115
       DOS:  cpu time    0.0031: real time    0.0051
    CHARGE:  cpu time    0.2599: real time    0.2601
    MIXING:  cpu time    0.0039: real time    0.0045
    --------------------------------------------
      LOOP:  cpu time    2.3148: real time    2.3636

 eigenvalue-minimisations  :  5960
 total energy-change (2. order) : 0.6032674E-02  (-0.1184347E-01)
 number of electron      37.0000000 magnetization
 augmentation part        5.9362716 magnetization

 Broyden mixing:
  rms(total) = 0.28794E+00    rms(broyden)= 0.28794E+00
  rms(prec ) = 0.29700E+00
  weight for this iteration     100.00

 eigenvalues of (default mixing * dielectric matrix)
  average eigenvalue GAMMA=   1.4484
  2.4075  1.3344  1.3344  0.7174

 Free energy of the ion-electron system (eV)
  ---------------------------------------------------
  alpha Z        PSCENC =       237.60855535
  Ewald energy   TEWEN  =     -3239.57228859
  -Hartree energ DENC   =      -683.08400771
  -exchange      EXHF   =         0.00000000
  -V(xc)+E(xc)   XCENC  =        68.86013992
  PAW double counting   =      4263.92136148    -4198.24684312
  entropy T*S    EENTRO =        -0.00015104
  eigenvalues    EBANDS =      -145.68664852
  atomic energy  EATOM  =      3674.67342263
  Solvation  Ediel_sol  =         0.00000000
  ---------------------------------------------------
  free energy    TOTEN  =       -21.52645959 eV

  energy without entropy =      -21.52630855  energy(sigma->0) =      -21.52638407


--------------------------------------------------------------------------------------------------------




--------------------------------------- Iteration      1(  10)  ---------------------------------------


    POTLOK:  cpu time    0.0332: real time    0.0865
    SETDIJ:  cpu time    0.0802: real time    0.0807
     EDDAV:  cpu time    1.7926: real time    1.7931
       DOS:  cpu time    0.0031: real time    0.0036
    CHARGE:  cpu time    0.2597: real time    0.2602
    MIXING:  cpu time    0.0042: real time    0.0048
    --------------------------------------------
      LOOP:  cpu time    2.1730: real time    2.2287

 eigenvalue-minimisations  :  5608
 total energy-change (2. order) : 0.3680882E-02  (-0.2122534E-02)
 number of electron      37.0000000 magnetization
 augmentation part        5.9392842 magnetization

 Broyden mixing:
  rms(total) = 0.68205E-01    rms(broyden)= 0.68205E-01
  rms(prec ) = 0.70178E-01
  weight for this iteration     100.00

 eigenvalues of (default mixing * dielectric matrix)
  average eigenvalue GAMMA=   1.4539
  2.2612  1.8972  1.5596  0.8029  0.7486

 Free energy of the ion-electron system (eV)
  ---------------------------------------------------
  alpha Z        PSCENC =       237.60855535
  Ewald energy   TEWEN  =     -3239.57228859
  -Hartree energ DENC   =      -683.23665775
  -exchange      EXHF   =         0.00000000
  -V(xc)+E(xc)   XCENC  =        68.84961644
  PAW double counting   =      4197.24243363    -4131.14492739
  entropy T*S    EENTRO =        -0.00015097
  eigenvalues    EBANDS =      -145.94278207
  atomic energy  EATOM  =      3674.67342263
  Solvation  Ediel_sol  =         0.00000000
  ---------------------------------------------------
  free energy    TOTEN  =       -21.52277871 eV

  energy without entropy =      -21.52262774  energy(sigma->0) =      -21.52270322


--------------------------------------------------------------------------------------------------------




--------------------------------------- Iteration      1(  11)  ---------------------------------------


    POTLOK:  cpu time    0.0505: real time    0.0985
    SETDIJ:  cpu time    0.0777: real time    0.0788
     EDDAV:  cpu time    1.7962: real time    1.7969
       DOS:  cpu time    0.0027: real time    0.0033
    CHARGE:  cpu time    0.2601: real time    0.2605
    MIXING:  cpu time    0.0042: real time    0.0045
    --------------------------------------------
      LOOP:  cpu time    2.1915: real time    2.2424

 eigenvalue-minimisations  :  5592
 total energy-change (2. order) :-0.7875931E-04  (-0.1021399E-03)
 number of electron      37.0000000 magnetization
 augmentation part        5.9399247 magnetization

 Broyden mixing:
  rms(total) = 0.42353E-01    rms(broyden)= 0.42353E-01
  rms(prec ) = 0.44157E-01
  weight for this iteration     100.00

 eigenvalues of (default mixing * dielectric matrix)
  average eigenvalue GAMMA=   1.4228
  2.6184  2.0701  1.2828  0.6967  0.9344  0.9344

 Free energy of the ion-electron system (eV)
  ---------------------------------------------------
  alpha Z        PSCENC =       237.60855535
  Ewald energy   TEWEN  =     -3239.57228859
  -Hartree energ DENC   =      -683.30975237
  -exchange      EXHF   =         0.00000000
  -V(xc)+E(xc)   XCENC  =        68.84243727
  PAW double counting   =      4206.74856337    -4140.60518279
  entropy T*S    EENTRO =        -0.00015232
  eigenvalues    EBANDS =      -145.90846002
  atomic energy  EATOM  =      3674.67342263
  Solvation  Ediel_sol  =         0.00000000
  ---------------------------------------------------
  free energy    TOTEN  =       -21.52285747 eV

  energy without entropy =      -21.52270515  energy(sigma->0) =      -21.52278131


--------------------------------------------------------------------------------------------------------




--------------------------------------- Iteration      1(  12)  ---------------------------------------


    POTLOK:  cpu time    0.0456: real time    0.0764
    SETDIJ:  cpu time    0.0818: real time    0.0821
     EDDAV:  cpu time    1.8564: real time    1.8570
       DOS:  cpu time    0.0030: real time    0.0033
    CHARGE:  cpu time    0.2623: real time    0.2629
    MIXING:  cpu time    0.0042: real time    0.0044
    --------------------------------------------
      LOOP:  cpu time    2.2536: real time    2.2864

 eigenvalue-minimisations  :  5816
 total energy-change (2. order) : 0.4953058E-04  (-0.2768241E-04)
 number of electron      37.0000000 magnetization
 augmentation part        5.9407327 magnetization

 Broyden mixing:
  rms(total) = 0.82746E-02    rms(broyden)= 0.82746E-02
  rms(prec ) = 0.88111E-02
  weight for this iteration     100.00

 eigenvalues of (default mixing * dielectric matrix)
  average eigenvalue GAMMA=   1.4495
  2.6127  2.2232  1.3998  0.7047  1.1815  1.0122  1.0122

 Free energy of the ion-electron system (eV)
  ---------------------------------------------------
  alpha Z        PSCENC =       237.60855535
  Ewald energy   TEWEN  =     -3239.57228859
  -Hartree energ DENC   =      -683.31030788
  -exchange      EXHF   =         0.00000000
  -V(xc)+E(xc)   XCENC  =        68.84012275
  PAW double counting   =      4212.07563507    -4145.91216367
  entropy T*S    EENTRO =        -0.00015345
  eigenvalues    EBANDS =      -145.92563015
  atomic energy  EATOM  =      3674.67342263
  Solvation  Ediel_sol  =         0.00000000
  ---------------------------------------------------
  free energy    TOTEN  =       -21.52280794 eV

  energy without entropy =      -21.52265449  energy(sigma->0) =      -21.52273121


--------------------------------------------------------------------------------------------------------




--------------------------------------- Iteration      1(  13)  ---------------------------------------


    POTLOK:  cpu time    0.0691: real time    0.1881
    SETDIJ:  cpu time    0.0837: real time    0.0838
     EDDAV:  cpu time    2.0094: real time    2.0098
       DOS:  cpu time    0.0030: real time    0.0038
    CHARGE:  cpu time    0.2594: real time    0.2595
    MIXING:  cpu time    0.0051: real time    0.0053
    --------------------------------------------
      LOOP:  cpu time    2.4297: real time    2.5494

 eigenvalue-minimisations  :  6376
 total energy-change (2. order) :-0.2226107E-05  (-0.5243992E-05)
 number of electron      37.0000000 magnetization
 augmentation part        5.9416326 magnetization

 Broyden mixing:
  rms(total) = 0.35172E-02    rms(broyden)= 0.35172E-02
  rms(prec ) = 0.37378E-02
  weight for this iteration     100.00

 eigenvalues of (default mixing * dielectric matrix)
  average eigenvalue GAMMA=   1.4040
  2.6309  2.0203  1.5168  1.5168  0.7119  0.9206  0.9575  0.9575

 Free energy of the ion-electron system (eV)
  ---------------------------------------------------
  alpha Z        PSCENC =       237.60855535
  Ewald energy   TEWEN  =     -3239.57228859
  -Hartree energ DENC   =      -683.30279122
  -exchange      EXHF   =         0.00000000
  -V(xc)+E(xc)   XCENC  =        68.83781151
  PAW double counting   =      4213.91984262    -4147.72811229
  entropy T*S    EENTRO =        -0.00015378
  eigenvalues    EBANDS =      -145.95909641
  atomic energy  EATOM  =      3674.67342263
  Solvation  Ediel_sol  =         0.00000000
  ---------------------------------------------------
  free energy    TOTEN  =       -21.52281016 eV

  energy without entropy =      -21.52265639  energy(sigma->0) =      -21.52273328


--------------------------------------------------------------------------------------------------------




--------------------------------------- Iteration      1(  14)  ---------------------------------------


    POTLOK:  cpu time    0.0949: real time    0.1621
    SETDIJ:  cpu time    0.0801: real time    0.0805
     EDDAV:  cpu time    1.7634: real time    1.7636
       DOS:  cpu time    0.0030: real time    0.0054
    CHARGE:  cpu time    0.2599: real time    0.2601
    MIXING:  cpu time    0.0046: real time    0.0064
    --------------------------------------------
      LOOP:  cpu time    2.2058: real time    2.2787

 eigenvalue-minimisations  :  5464
 total energy-change (2. order) : 0.5477559E-06  (-0.2813905E-06)
 number of electron      37.0000000 magnetization
 augmentation part        5.9417253 magnetization

 Broyden mixing:
  rms(total) = 0.21246E-02    rms(broyden)= 0.21246E-02
  rms(prec ) = 0.22254E-02
  weight for this iteration     100.00

 eigenvalues of (default mixing * dielectric matrix)
  average eigenvalue GAMMA=   1.4730
  2.6103  2.1692  1.7426  1.7426  0.7091  1.1272  1.0584  1.0487  1.0487

 Free energy of the ion-electron system (eV)
  ---------------------------------------------------
  alpha Z        PSCENC =       237.60855535
  Ewald energy   TEWEN  =     -3239.57228859
  -Hartree energ DENC   =      -683.30467423
  -exchange      EXHF   =         0.00000000
  -V(xc)+E(xc)   XCENC  =        68.83815672
  PAW double counting   =      4213.72628719    -4147.53495424
  entropy T*S    EENTRO =        -0.00015364
  eigenvalues    EBANDS =      -145.95716080
  atomic energy  EATOM  =      3674.67342263
  Solvation  Ediel_sol  =         0.00000000
  ---------------------------------------------------
  free energy    TOTEN  =       -21.52280962 eV

  energy without entropy =      -21.52265598  energy(sigma->0) =      -21.52273280


--------------------------------------------------------------------------------------------------------




--------------------------------------- Iteration      1(  15)  ---------------------------------------


    POTLOK:  cpu time    0.0708: real time    0.1389
    SETDIJ:  cpu time    0.0815: real time    0.0816
     EDDAV:  cpu time    2.1114: real time    2.1130
       DOS:  cpu time    0.0031: real time    0.0034
    CHARGE:  cpu time    0.2592: real time    0.2596
    MIXING:  cpu time    0.0050: real time    0.0053
    --------------------------------------------
      LOOP:  cpu time    2.5309: real time    2.6079

 eigenvalue-minimisations  :  6800
 total energy-change (2. order) : 0.3406117E-06  (-0.1353654E-06)
 number of electron      37.0000000 magnetization
 augmentation part        5.9416221 magnetization

 Broyden mixing:
  rms(total) = 0.68327E-04    rms(broyden)= 0.67781E-04
  rms(prec ) = 0.91539E-04
  weight for this iteration     100.00

 eigenvalues of (default mixing * dielectric matrix)
  average eigenvalue GAMMA=   1.4657
  2.5687  2.4253  2.2295  1.5336  1.0787  1.0787  0.7090  0.9885  0.9885  1.0563

 Free energy of the ion-electron system (eV)
  ---------------------------------------------------
  alpha Z        PSCENC =       237.60855535
  Ewald energy   TEWEN  =     -3239.57228859
  -Hartree energ DENC   =      -683.30522693
  -exchange      EXHF   =         0.00000000
  -V(xc)+E(xc)   XCENC  =        68.83841255
  PAW double counting   =      4213.54805656    -4147.35624517
  entropy T*S    EENTRO =        -0.00015348
  eigenvalues    EBANDS =      -145.95734219
  atomic energy  EATOM  =      3674.67342263
  Solvation  Ediel_sol  =         0.00000000
  ---------------------------------------------------
  free energy    TOTEN  =       -21.52280928 eV

  energy without entropy =      -21.52265579  energy(sigma->0) =      -21.52273254


--------------------------------------------------------------------------------------------------------




--------------------------------------- Iteration      1(  16)  ---------------------------------------


    POTLOK:  cpu time    0.0514: real time    0.0869
    SETDIJ:  cpu time    0.0797: real time    0.0804
     EDDAV:  cpu time    1.2830: real time    1.2833
       DOS:  cpu time    0.0030: real time    0.0036
    --------------------------------------------
      LOOP:  cpu time    1.4171: real time    1.4483

 eigenvalue-minimisations  :  3344
 total energy-change (2. order) : 0.1277613E-07  (-0.4142666E-08)
 number of electron      37.0000000 magnetization
 augmentation part        5.9416221 magnetization

 Free energy of the ion-electron system (eV)
  ---------------------------------------------------
  alpha Z        PSCENC =       237.60855535
  Ewald energy   TEWEN  =     -3239.57228859
  -Hartree energ DENC   =      -683.30628962
  -exchange      EXHF   =         0.00000000
  -V(xc)+E(xc)   XCENC  =        68.83844000
  PAW double counting   =      4213.51929843    -4147.32698858
  entropy T*S    EENTRO =        -0.00015350
  eigenvalues    EBANDS =      -145.95680539
  atomic energy  EATOM  =      3674.67342263
  Solvation  Ediel_sol  =         0.00000000
  ---------------------------------------------------
  free energy    TOTEN  =       -21.52280926 eV

  energy without entropy =      -21.52265577  energy(sigma->0) =      -21.52273252


--------------------------------------------------------------------------------------------------------




 average (electrostatic) potential at core
  the test charge radii are     1.1985  1.0856  1.2059
  (the norm of the test charge is              1.0000)
       1 -55.4225       2-101.1738       3 -64.7957



 E-fermi :   9.8242     XC(G=0): -11.5629     alpha+bet :-15.5583


 k-point     1 :       0.0000    0.0000    0.0000
  band No.  band energies     occupation
      1     -29.9484      2.00000
      2     -13.3644      2.00000
      3     -13.3644      2.00000
      4     -13.3228      2.00000
      5     -13.3228      2.00000
      6     -13.3228      2.00000
      7      -8.1110      2.00000
      8      -8.1110      2.00000
      9      -8.1110      2.00000
     10      -3.0259      2.00000
     11       5.0758      2.00000
     12       5.0758      2.00000
     13       5.0758      2.00000
     14       5.1711      2.00000
     15       5.1711      2.00000
     16       8.3569      2.00000
     17       8.5468      2.00000
     18       8.5468      2.00000
     19       8.5468      2.00000
     20      10.0162      0.00000
     21      10.0162      0.00000
     22      10.0162      0.00000
     23      10.9545      0.00000
     24      12.1090      0.00000

 k-point     2 :       0.0769    0.0000   -0.0000
  band No.  band energies     occupation
      1     -29.9478      2.00000
      2     -13.3656      2.00000
      3     -13.3656      2.00000
      4     -13.3231      2.00000
      5     -13.3226      2.00000
      6     -13.3226      2.00000
      7      -8.1401      2.00000
      8      -8.1069      2.00000
      9      -8.1069      2.00000
     10      -2.9405      2.00000
     11       4.8715      2.00000
     12       4.8715      2.00000
     13       4.9425      2.00000
     14       5.3639      2.00000
     15       5.3639      2.00000
     16       7.6766      2.00000
     17       8.4602      2.00000
     18       8.4602      2.00000
     19       9.0432      2.00000
     20      10.1231      0.00000
     21      10.1231      0.00000
     22      10.1563      0.00000
     23      11.2314      0.00000
     24      12.1144      0.00000

 k-point     3 :       0.1538   -0.0000    0.0000
  band No.  band energies     occupation
      1     -29.9461      2.00000
      2     -13.3690      2.00000
      3     -13.3690      2.00000
      4     -13.3240      2.00000
      5     -13.3220      2.00000
      6     -13.3220      2.00000
      7      -8.2161      2.00000
      8      -8.0956      2.00000
      9      -8.0956      2.00000
     10      -2.7065      2.00000
     11       4.5959      2.00000
     12       4.6569      2.00000
     13       4.6569      2.00000
     14       5.5306      2.00000
     15       5.5306      2.00000
     16       6.9747      2.00000
     17       8.2867      2.00000
     18       8.2867      2.00000
     19       9.1842      2.00000
     20      10.3762      0.00000
     21      10.3762      0.00000
     22      10.7771      0.00000
     23      11.7462      0.00000
     24      12.1210      0.00000

 k-point     4 :       0.2308   -0.0000   -0.0000
  band No.  band energies     occupation
      1     -29.9437      2.00000
      2     -13.3739      2.00000
      3     -13.3739      2.00000
      4     -13.3253      2.00000
      5     -13.3210      2.00000
      6     -13.3210      2.00000
      7      -8.3129      2.00000
      8      -8.0797      2.00000
      9      -8.0797      2.00000
     10      -2.3820      2.00000
     11       4.1548      2.00000
     12       4.4976      2.00000
     13       4.4976      2.00000
     14       5.5809      2.00000
     15       5.5809      2.00000
     16       6.4165      2.00000
     17       8.1514      2.00000
     18       8.1514      2.00000
     19       9.2191      2.00000
     20      10.6838      0.00000
     21      10.6838      0.00000
     22      11.5162      0.00000
     23      12.1055      0.00000
     24      12.1060      0.00000

 k-point     5 :       0.3077   -0.0000    0.0000
  band No.  band energies     occupation
      1     -29.9411      2.00000
      2     -13.3790      2.00000
      3     -13.3790      2.00000
      4     -13.3270      2.00000
      5     -13.3200      2.00000
      6     -13.3200      2.00000
      7      -8.4046      2.00000
      8      -8.0629      2.00000
      9      -8.0629      2.00000
     10      -2.0434      2.00000
     11       3.7374      2.00000
[...]
  212              fftbas_plan_mpi                       0.061989                     12   6
  213                dfftw_execute                         0.025962                   36   7
  214                map_backward                          0.004244                   12   7
  215                  map_gather                            0.000887                  6   8
  216                  m_alltoallv_z                         0.001962                  6   8
  217                  map_scatter                           0.001110                  6   8
  218                map_forward                           0.028552                   12   7
  219                  map_gather                            0.016098                  6   8
  220                  m_alltoallv_z                         0.005898                  6   8
  221                  map_scatter                           0.006242                  6   8
  222            M_sumb_d                              0.001367                        6   5
  223          M_sumb_d                              0.000028                          1   4
  224        setdij_                               1.344591                           20   3
  225          fft3d_mpi                             0.220652                         40   4
  226            fftbas_plan_mpi                       0.202877                       40   5
  227              dfftw_execute                         0.085680                    120   6
  228              map_backward                          0.013174                     40   6
  229                map_gather                            0.002700                   20   7
  230                m_alltoallv_z                         0.005853                   20   7
  231                map_scatter                           0.003640                   20   7
  232              map_forward                           0.093652                     40   6
  233                map_gather                            0.052602                   20   7
  234                m_alltoallv_z                         0.019112                   20   7
  235                map_scatter                           0.020943                   20   7
  236          M_sumb_d                              0.007241                         20   4
  237        set_dd_magatom                        0.000004                            1   3
  238        set_dd_paw                            0.011730                            1   3
  239          set_rsgf_all                          0.000004                          1   4
  240          M_sumb_d                              0.011569                          8   4
  241        strkin                                0.001121                            1   3
  242          M_sumb_d                              0.000501                          1   4
  243        strelo                                0.002642                            1   3
  244          M_sumb_d                              0.000333                          2   4
  245        strenl                                1.071596                            1   3
  246          spher                                 0.793344                         19   4
  247          phase                                 0.012604                        189   4
  248          proj1                                 0.240401                       1134   4
  249            crexp_mul_wave                        0.032409                     3402   5
  250            M_sumb_d                              0.069012                     1134   5
  251          M_sumb_d                              0.002933                          1   4
  252        M_sumb_d                              0.000274                            6   3
  253        fft3d_mpi                             0.015533                           11   3
  254          fftbas_plan_mpi                       0.014508                         11   4
  255            dfftw_execute                         0.004987                       33   5
  256            map_forward                           0.003101                       10   5
  257              map_gather                            0.000505                      5   6
  258              m_alltoallv_z                         0.001742                      5   6
  259              map_scatter                           0.000623                      5   6
  260            map_backward                          0.003872                       12   5
  261              map_gather                            0.000818                      6   6
  262              m_alltoallv_z                         0.001564                      6   6
  263              map_scatter                           0.001195                      6   6
  264        ggaall_grid                           0.001509                            1   3
  265        forhar                                0.006228                            2   3
  266          M_sumb_d                              0.000111                          2   4
  267        strehar                               0.002771                            1   3
  268          M_sumb_d                              0.000229                          1   4
  269        chggra                                0.005706                            1   3
  270          fft3d_mpi                             0.004006                          3   4
  271            fftbas_plan_mpi                       0.003735                        3   5
  272              dfftw_execute                         0.001338                      9   6
  273              map_backward                          0.000592                      2   6
  274                map_gather                            0.000115                    1   7
  275                m_alltoallv_z                         0.000250                    1   7
  276                map_scatter                           0.000173                    1   7
  277              map_forward                           0.001081                      4   6
  278                map_gather                            0.000222                    2   7
  279                m_alltoallv_z                         0.000514                    2   7
  280                map_scatter                           0.000251                    2   7
  281          M_sumb_d                              0.000139                          3   4
  282        brmix                                 0.005453                            1   3
  283          M_sumb_d                              0.000275                          6   4
  284          brpre                                 0.000054                          1   4
  285          setg0                                 0.001471                          1   4
  286          broyd                                 0.002530                          1   4
  287            M_sumb_d                              0.000817                       18   5
  288            brget                                 0.000311                       64   5
  289            brsav                                 0.000073                       16   5
  290          M_bcast_z                             0.000180                          1   4
  291          M_bcast_d                             0.000050                          1   4
  292        M_bcast_d                             0.000046                            2   3
  293      potlok                                0.026992                              1   2
  294        fft3d_mpi                             0.018529                           13   3
  295          fftbas_plan_mpi                       0.017352                         13   4
  296            dfftw_execute                         0.005980                       39   5
  297            map_forward                           0.003943                       14   5
  298              map_gather                            0.000788                      8   6
  299              m_alltoallv_z                         0.001916                      8   6
  300              map_scatter                           0.000853                      8   6
  301            map_backward                          0.004408                       12   5
  302              map_gather                            0.000918                      6   6
  303              m_alltoallv_z                         0.001895                      6   6
  304              map_scatter                           0.001268                      6   6
  305        ggaall_grid                           0.001570                            1   3
  306        M_sumb_d                              0.000279                            6   3
  307        M_bcast_d                             0.000103                            1   3
  308      potlok_metagga                        0.000004                              1   2
  309      set_dd_magatom                        0.000003                              1   2
  310      set_dd_paw                            0.000542                              1   2
  311        set_rsgf_all                          0.000004                            1   3
  312        M_sumb_d                              0.000279                            8   3
  313      densta                                0.002336                              1   2
  314        M_sumb_d                              0.000835                           41   3
  315      lprj_proall                           0.000008                              1   2

 Flat profile
 ============

             routine name                   CPU           calls
 ---------------------------------------------------------------
 total_time                             13.326247           1
 dfftw_execute                           5.007874       49896
 eddav                                   5.006914          16
 fftbas_plan_mpi                         3.377740       16634
 M_sumb_d                                2.760267       46324
 setdij_                                 2.336143          40
 elmin                                   2.003673           1
 set_charge                              1.946775          12
 m_alltoallv_z                           1.846394       16657
 pdssyex_zheevx                          1.496380         336
 M_alltoall_d                            1.181681       55440
 proj1                                   0.931504        6786
 orth1                                   0.924778       11334
 spher                                   0.914333          20
 gemm                                    0.828010       22626
 vhamil                                  0.760870        7542
 map_forward                             0.660579       17882
 fftwav_mpi                              0.652397        8802
 map_gather                              0.628089       16657
 map_scatter                             0.587418       16657
 vnlac0                                  0.505559        7542
 M_bcast_z                               0.487207        6322
 redis_pw                                0.462620       21324
 redis_proj                              0.413195       26871
 hamiltmu                                0.412327        3771
 w1_copy                                 0.318961       22626
 map_backward                            0.269817       15382
 fft3d_mpi                               0.266393       16632
 work_mul_crexp                          0.258569       22626
 fftext_mpi                              0.244686        7542
 crpa_reader                             0.240662           1
 crexp_mul_wave                          0.202806       20358
 eccp                                    0.184047        2016
 kinhamil                                0.151962        7542
 overl                                   0.149873       13089
 M_bcast_d                               0.122953        3803
 overl1                                  0.095271        7542
 potlok                                  0.089332          13
 pw_charge                               0.078173        1260
 apply_precond                           0.075200        5526
 setup_precond                           0.066222        2016
 w1_projall                              0.061132        2763
 lincom                                  0.057484         357
 force_and_stress                        0.057047           1
 fornl                                   0.046847           1
 phase                                   0.037910         568
 truncate_high_frequency_w1              0.032583        9558
 soft_charge                             0.032368          12
 densta                                  0.025703          17
 strenl                                  0.022314           1
 ggaall_grid                             0.021601          14
 setg0                                   0.014761          13
 brmix                                   0.014502          12
 broyd                                   0.008619          12
 forhar                                  0.006117           2
 depsum                                  0.005273          12
 forloc                                  0.003124           1
 set_dd_paw                              0.002617          14
 strehar                                 0.002542           1
 strelo                                  0.002309           1
 orthch                                  0.002158           1
 brget                                   0.002021         432
 choleski                                0.001902          21
 chggra                                  0.001561           1
 proj                                    0.001560          21
 brgrid                                  0.001115           1
 brpre                                   0.000804          12
 brsav                                   0.000686         128
 strkin                                  0.000620           1
 fordep                                  0.000133           1
 vectorpot                               0.000076          13
 set_rsgf_all                            0.000064          14
 set_dd_magatom                          0.000054          14
 potlok_metagga                          0.000050          13
 set_kineden                             0.000043          11
 rotate_active_occupied_orbital          0.000015           1
 lprj_proall                             0.000008           1
 redis_pw_over_bands                     0.000003           1
 ---------------------------------------------------------------
  summed up times    52.7416257858276

 Accumulative profile
 ====================

             routine name                   CPU           calls
 ---------------------------------------------------------------
 total_time                             52.741626           1
 elmin                                  34.959929           1
 eddav                                  28.623292          16
 fft3d_mpi                              12.596961       16632
 fftbas_plan_mpi                        12.377911       16634
 hamiltmu                                8.904224        3771
 fftwav_mpi                              7.110950        8802
 kinhamil                                5.562461        7542
 fftext_mpi                              5.410499        7542
 dfftw_execute                           5.007874       49896
 force_and_stress                        3.273083           1
 set_charge                              3.194646          12
 setdij_                                 2.833760          40
 M_sumb_d                                2.760267       46324
 map_forward                             2.355389       17882
 vnlac0                                  2.073295        7542
 m_alltoallv_z                           1.846394       16657
 map_backward                            1.636908       15382
 proj1                                   1.599684        6786
 pdssyex_zheevx                          1.496380         336
 w1_projall                              1.393803        2763
 M_alltoall_d                            1.181681       55440
 redis_pw                                1.117420       21324
 soft_charge                             1.086966          12
 strenl                                  1.071596           1
 redis_proj                              0.940076       26871
 orth1                                   0.924778       11334
 spher                                   0.914333          20
 gemm                                    0.828010       22626
 vhamil                                  0.760870        7542
 map_gather                              0.628089       16657
 map_scatter                             0.587418       16657
 M_bcast_z                               0.487207        6322
 fordep                                  0.415369           1
 potlok                                  0.352143          13
 w1_copy                                 0.318961       22626
 eccp                                    0.291563        2016
 work_mul_crexp                          0.258569       22626
 crpa_reader                             0.240662           1
 crexp_mul_wave                          0.202806       20358
 overl                                   0.149873       13089
 set_dd_paw                              0.138946          14
 M_bcast_d                               0.122953        3803
 setup_precond                           0.113650        2016
 overl1                                  0.095271        7542
 pw_charge                               0.078173        1260
 apply_precond                           0.075200        5526
 fornl                                   0.062430           1
 lincom                                  0.057484         357
 brmix                                   0.055771          12
 densta                                  0.039559          17
 phase                                   0.037910         568
 truncate_high_frequency_w1              0.032583        9558
 orthch                                  0.032359           1
 proj                                    0.028173          21
 ggaall_grid                             0.021601          14
 broyd                                   0.016783          12
 setg0                                   0.014761          13
 depsum                                  0.009116          12
 forhar                                  0.006228           2
 chggra                                  0.005706           1
 forloc                                  0.003190           1
 strehar                                 0.002771           1
 strelo                                  0.002642           1
 brget                                   0.002021         432
 choleski                                0.001902          21
 strkin                                  0.001121           1
 brgrid                                  0.001115           1
 brpre                                   0.000804          12
 brsav                                   0.000686         128
 vectorpot                               0.000076          13
 set_rsgf_all                            0.000064          14
 set_dd_magatom                          0.000054          14
 potlok_metagga                          0.000050          13
 set_kineden                             0.000043          11
 rotate_active_occupied_orbital          0.000015           1
 lprj_proall                             0.000008           1
 redis_pw_over_bands                     0.000003           1
 ---------------------------------------------------------------

Profiling took   1.317626  1.589348  0.005868  0.004459 seconds
Profiling took   1.292284 seconds
