<?xml version="1.0" encoding="ISO-8859-1"?>
<modeling>
 <generator>
  <i name="program" type="string">vasp </i>
  <i name="version" type="string">6.0.8  </i>
  <i name="subversion" type="string">29Jun18 (build Jun 13 2019 12:54:44) complex                          parallel </i>
  <i name="platform" type="string">IFC18_CrayMPICH </i>
  <i name="date" type="string">2021 12 05 </i>
  <i name="time" type="string">14:21:49 </i>
 </generator>
 <incar>
  <i type="int" name="KPAR">     4</i>
  <i type="int" name="NPAR">     4</i>
  <i type="int" name="ISTART">     0</i>
  <i type="string" name="PREC"> ACC</i>
  <i type="string" name="ALGO"> Normal</i>
  <i type="logical" name="ADDGRID"> T  </i>
  <i type="int" name="ISPIN">     1</i>
  <i type="int" name="NELMIN">     5</i>
  <i type="int" name="IBRION">    -1</i>
  <i name="EDIFF">      0.00000010</i>
  <i type="int" name="NSW">     0</i>
  <i type="int" name="ISIF">     3</i>
  <i name="ENCUT">    700.00000000</i>
  <i type="logical" name="LREAL"> F  </i>
  <i type="int" name="ISMEAR">     0</i>
  <i name="SIGMA">      0.01000000</i>
  <i type="logical" name="LWAVE"> F  </i>
  <i type="logical" name="LCHARG"> F  </i>
  <i type="logical" name="LVTOT"> F  </i>
  <i type="string" name="ALGO"> Normal</i>
  <i type="string" name="GGA"> PS</i>
  <i name="EDIFF">      0.00000010</i>
  <i type="int" name="ISPIN">     1</i>
 </incar>
 <structure name="primitive_cell" >
  <crystal>
   <varray name="basis" >
    <v>       0.00000000       3.30666501       3.30666501 </v>
    <v>       3.30666501       0.00000000       3.30666501 </v>
    <v>       3.30666501       3.30666501       0.00000000 </v>
   </varray>
   <i name="volume">     72.31037179 </i>
   <varray name="rec_basis" >
    <v>      -0.15120975       0.15120975       0.15120975 </v>
    <v>       0.15120975      -0.15120975       0.15120975 </v>
    <v>       0.15120975       0.15120975      -0.15120975 </v>
   </varray>
  </crystal>
  <varray name="positions" >
   <v>       0.25000000       0.25000000       0.25000000 </v>
   <v>       0.75000000       0.75000000       0.75000000 </v>
   <v>       0.00000000       0.00000000       0.00000000 </v>
  </varray>
 </structure>
 <varray name="primitive_index" >
  <v type="int" >        1 </v>
  <v type="int" >        2 </v>
  <v type="int" >        3 </v>
 </varray>
 <kpoints>
  <generation param="Gamma">
   <v type="int" name="divisions">      13       13       13 </v>
   <v name="usershift">      0.00000000       0.00000000       0.00000000 </v>
   <v name="genvec1">      0.07692308       0.00000000      -0.00000000 </v>
   <v name="genvec2">      0.00000000       0.07692308       0.00000000 </v>
   <v name="genvec3">     -0.00000000      -0.00000000       0.07692308 </v>
   <v name="shift">      0.00000000       0.00000000       0.00000000 </v>
  </generation>
  <varray name="kpointlist" >
   <v>       0.00000000       0.00000000       0.00000000 </v>
   <v>       0.07692308       0.00000000      -0.00000000 </v>
   <v>       0.15384615      -0.00000000       0.00000000 </v>
   <v>       0.23076923      -0.00000000      -0.00000000 </v>
   <v>       0.30769231      -0.00000000       0.00000000 </v>
   <v>       0.38461538       0.00000000      -0.00000000 </v>
   <v>       0.46153846      -0.00000000       0.00000000 </v>
   <v>       0.07692308       0.07692308       0.00000000 </v>
   <v>       0.15384615       0.07692308       0.00000000 </v>
   <v>       0.23076923       0.07692308       0.00000000 </v>
   <v>       0.30769231       0.07692308      -0.00000000 </v>
   <v>       0.38461538       0.07692308       0.00000000 </v>
   <v>       0.46153846       0.07692308      -0.00000000 </v>
   <v>      -0.46153846       0.07692308      -0.00000000 </v>
   <v>      -0.38461538       0.07692308       0.00000000 </v>
   <v>      -0.30769231       0.07692308      -0.00000000 </v>
   <v>      -0.23076923       0.07692308      -0.00000000 </v>
   <v>      -0.15384615       0.07692308       0.00000000 </v>
   <v>      -0.07692308       0.07692308       0.00000000 </v>
   <v>       0.15384615       0.15384615       0.00000000 </v>
   <v>       0.23076923       0.15384615      -0.00000000 </v>
   <v>       0.30769231       0.15384615       0.00000000 </v>
   <v>       0.38461538       0.15384615      -0.00000000 </v>
   <v>       0.46153846       0.15384615      -0.00000000 </v>
   <v>      -0.46153846       0.15384615      -0.00000000 </v>
   <v>      -0.38461538       0.15384615       0.00000000 </v>
   <v>      -0.30769231       0.15384615      -0.00000000 </v>
   <v>      -0.23076923       0.15384615      -0.00000000 </v>
   <v>      -0.15384615       0.15384615      -0.00000000 </v>
   <v>       0.23076923       0.23076923       0.00000000 </v>
   <v>       0.30769231       0.23076923       0.00000000 </v>
   <v>       0.38461538       0.23076923      -0.00000000 </v>
   <v>       0.46153846       0.23076923       0.00000000 </v>
   <v>      -0.46153846       0.23076923      -0.00000000 </v>
   <v>      -0.38461538       0.23076923       0.00000000 </v>
   <v>      -0.30769231       0.23076923       0.00000000 </v>
   <v>      -0.23076923       0.23076923       0.00000000 </v>
   <v>       0.30769231       0.30769231       0.00000000 </v>
   <v>       0.38461538       0.30769231       0.00000000 </v>
   <v>       0.46153846       0.30769231       0.00000000 </v>
   <v>      -0.46153846       0.30769231       0.00000000 </v>
   <v>      -0.38461538       0.30769231       0.00000000 </v>
   <v>      -0.30769231       0.30769231      -0.00000000 </v>
   <v>       0.38461538       0.38461538       0.00000000 </v>
   <v>       0.46153846       0.38461538       0.00000000 </v>
   <v>      -0.46153846       0.38461538       0.00000000 </v>
   <v>      -0.38461538       0.38461538       0.00000000 </v>
   <v>       0.46153846       0.46153846       0.00000000 </v>
   <v>      -0.46153846       0.46153846      -0.00000000 </v>
   <v>       0.23076923       0.15384615       0.07692308 </v>
   <v>       0.30769231       0.15384615       0.07692308 </v>
   <v>       0.38461538       0.15384615       0.07692308 </v>
   <v>       0.46153846       0.15384615       0.07692308 </v>
   <v>      -0.46153846       0.15384615       0.07692308 </v>
   <v>       0.30769231       0.23076923       0.07692308 </v>
   <v>       0.38461538       0.23076923       0.07692308 </v>
   <v>       0.46153846       0.23076923       0.07692308 </v>
   <v>      -0.46153846       0.23076923       0.07692308 </v>
   <v>      -0.38461538       0.23076923       0.07692308 </v>
   <v>      -0.30769231       0.23076923       0.07692308 </v>
   <v>      -0.23076923       0.23076923       0.07692308 </v>
   <v>      -0.15384615       0.23076923       0.07692308 </v>
   <v>       0.38461538       0.30769231       0.07692308 </v>
   <v>       0.46153846       0.30769231       0.07692308 </v>
   <v>      -0.46153846       0.30769231       0.07692308 </v>
   <v>      -0.38461538       0.30769231       0.07692308 </v>
   <v>      -0.30769231       0.30769231       0.07692308 </v>
   <v>      -0.23076923       0.30769231       0.07692308 </v>
   <v>       0.46153846       0.38461538       0.07692308 </v>
   <v>      -0.46153846       0.38461538       0.07692308 </v>
   <v>      -0.38461538       0.38461538       0.07692308 </v>
   <v>      -0.30769231       0.38461538       0.07692308 </v>
   <v>      -0.46153846       0.46153846       0.07692308 </v>
   <v>      -0.38461538       0.46153846       0.07692308 </v>
   <v>       0.46153846       0.30769231       0.15384615 </v>
   <v>      -0.46153846       0.30769231       0.15384615 </v>
   <v>      -0.38461538       0.30769231       0.15384615 </v>
   <v>      -0.46153846       0.38461538       0.15384615 </v>
   <v>      -0.38461538       0.38461538       0.15384615 </v>
   <v>      -0.30769231       0.38461538       0.15384615 </v>
   <v>      -0.23076923       0.38461538       0.15384615 </v>
   <v>      -0.38461538       0.46153846       0.15384615 </v>
   <v>      -0.30769231       0.46153846       0.15384615 </v>
   <v>      -0.30769231       0.46153846       0.23076923 </v>
  </varray>
  <varray name="weights" >
   <v>       0.00045517 </v>
   <v>       0.00364133 </v>
   <v>       0.00364133 </v>
   <v>       0.00364133 </v>
   <v>       0.00364133 </v>
   <v>       0.00364133 </v>
   <v>       0.00364133 </v>
   <v>       0.00273100 </v>
   <v>       0.01092399 </v>
   <v>       0.01092399 </v>
   <v>       0.01092399 </v>
   <v>       0.01092399 </v>
   <v>       0.01092399 </v>
   <v>       0.01092399 </v>
   <v>       0.01092399 </v>
   <v>       0.01092399 </v>
   <v>       0.01092399 </v>
   <v>       0.01092399 </v>
   <v>       0.00546199 </v>
   <v>       0.00273100 </v>
   <v>       0.01092399 </v>
   <v>       0.01092399 </v>
   <v>       0.01092399 </v>
   <v>       0.01092399 </v>
   <v>       0.01092399 </v>
   <v>       0.01092399 </v>
   <v>       0.01092399 </v>
   <v>       0.01092399 </v>
   <v>       0.00546199 </v>
   <v>       0.00273100 </v>
   <v>       0.01092399 </v>
   <v>       0.01092399 </v>
   <v>       0.01092399 </v>
   <v>       0.01092399 </v>
   <v>       0.01092399 </v>
   <v>       0.01092399 </v>
   <v>       0.00546199 </v>
   <v>       0.00273100 </v>
   <v>       0.01092399 </v>
   <v>       0.01092399 </v>
   <v>       0.01092399 </v>
   <v>       0.01092399 </v>
   <v>       0.00546199 </v>
   <v>       0.00273100 </v>
   <v>       0.01092399 </v>
   <v>       0.01092399 </v>
   <v>       0.00546199 </v>
   <v>       0.00273100 </v>
   <v>       0.00546199 </v>
   <v>       0.01092399 </v>
   <v>       0.02184797 </v>
   <v>       0.02184797 </v>
   <v>       0.02184797 </v>
   <v>       0.02184797 </v>
   <v>       0.01092399 </v>
   <v>       0.02184797 </v>
   <v>       0.02184797 </v>
   <v>       0.02184797 </v>
   <v>       0.02184797 </v>
   <v>       0.02184797 </v>
   <v>       0.02184797 </v>
   <v>       0.01092399 </v>
   <v>       0.01092399 </v>
   <v>       0.02184797 </v>
   <v>       0.02184797 </v>
   <v>       0.02184797 </v>
   <v>       0.02184797 </v>
   <v>       0.01092399 </v>
   <v>       0.01092399 </v>
   <v>       0.02184797 </v>
   <v>       0.02184797 </v>
   <v>       0.01092399 </v>
   <v>       0.01092399 </v>
   <v>       0.01092399 </v>
   <v>       0.01092399 </v>
   <v>       0.02184797 </v>
   <v>       0.02184797 </v>
   <v>       0.01092399 </v>
   <v>       0.02184797 </v>
   <v>       0.02184797 </v>
   <v>       0.01092399 </v>
   <v>       0.01092399 </v>
   <v>       0.01092399 </v>
   <v>       0.01092399 </v>
  </varray>
 </kpoints>
 <parameters>
  <separator name="general" >
   <i type="string" name="SYSTEM">unknown system</i>
   <i type="logical" name="LCOMPAT"> F  </i>
  </separator>
  <separator name="electronic" >
   <i type="string" name="PREC">acc</i>
   <i name="ENMAX">    700.00000000</i>
   <i name="ENAUG">    535.43100000</i>
   <i name="EDIFF">      0.00000010</i>
   <i type="int" name="IALGO">    38</i>
   <i type="int" name="IWAVPR">    10</i>
   <i type="int" name="NBANDS">    24</i>
   <i type="int" name="NBANDSLOW">    -1</i>
   <i type="int" name="NBANDSHIGH">    -1</i>
   <i name="NELECT">     37.00000000</i>
   <i type="int" name="TURBO">     0</i>
   <i type="int" name="IRESTART">     0</i>
   <i type="int" name="NREBOOT">     0</i>
   <i type="int" name="NMIN">     0</i>
   <i name="EREF">      0.00000000</i>
   <separator name="electronic smearing" >
    <i type="int" name="ISMEAR">     0</i>
    <i name="SIGMA">      0.01000000</i>
    <i name="KSPACING">      0.50000000</i>
    <i type="logical" name="KGAMMA"> T  </i>
    <i type="logical" name="KBLOWUP"> T  </i>
   </separator>
   <separator name="electronic projectors" >
    <i type="logical" name="LREAL"> F  </i>
    <v name="ROPT">      0.00000000      0.00000000      0.00000000</v>
    <i type="int" name="LMAXPAW">  -100</i>
    <i type="int" name="LMAXMIX">     2</i>
    <i type="logical" name="NLSPLINE"> F  </i>
   </separator>
   <separator name="electronic startup" >
    <i type="int" name="ISTART">     0</i>
    <i type="int" name="ICHARG">     2</i>
    <i type="int" name="INIWAV">     1</i>
   </separator>
   <separator name="electronic spin" >
    <i type="int" name="ISPIN">     1</i>
    <i type="logical" name="LNONCOLLINEAR"> F  </i>
    <v name="MAGMOM">      1.00000000      1.00000000      1.00000000</v>
    <i name="NUPDOWN">     -1.00000000</i>
    <i type="logical" name="LSORBIT"> F  </i>
    <v name="SAXIS">      0.00000000      0.00000000      1.00000000</v>
    <i type="logical" name="LSPIRAL"> F  </i>
    <v name="QSPIRAL">      0.00000000      0.00000000      0.00000000</v>
    <i type="logical" name="LZEROZ"> F  </i>
   </separator>
   <separator name="electronic exchange-correlation" >
    <i type="logical" name="LASPH"> F  </i>
    <i type="logical" name="LMETAGGA"> F  </i>
   </separator>
   <separator name="electronic convergence" >
    <i type="int" name="NELM">    60</i>
    <i type="int" name="NELMDL">    -5</i>
    <i type="int" name="NELMIN">     5</i>
    <i name="ENINI">    700.00000000</i>
    <separator name="electronic convergence detail" >
     <i type="logical" name="LDIAG"> T  </i>
     <i type="logical" name="LSUBROT"> F  </i>
     <i name="WEIMIN">      0.00000000</i>
     <i name="EBREAK">      0.00000000</i>
     <i name="DEPER">      0.30000000</i>
     <i type="int" name="NRMM">     4</i>
     <i name="TIME">      0.40000000</i>
    </separator>
   </separator>
   <separator name="electronic mixer" >
    <i name="AMIX">      0.40000000</i>
    <i name="BMIX">      1.00000000</i>
    <i name="AMIN">      0.10000000</i>
    <i name="AMIX_MAG">      1.60000000</i>
    <i name="BMIX_MAG">      1.00000000</i>
    <separator name="electronic mixer details" >
     <i type="int" name="IMIX">     4</i>
     <i type="logical" name="MIXFIRST"> F  </i>
     <i type="int" name="MAXMIX">   -45</i>
     <i name="WC">    100.00000000</i>
     <i type="int" name="INIMIX">     1</i>
     <i type="int" name="MIXPRE">     1</i>
     <i type="int" name="MREMOVE">     5</i>
    </separator>
   </separator>
   <separator name="electronic dipolcorrection" >
    <i type="logical" name="LDIPOL"> F  </i>
    <i type="logical" name="LMONO"> F  </i>
    <i type="int" name="IDIPOL">     0</i>
    <i name="EPSILON">      1.00000000</i>
    <v name="DIPOL">   -100.00000000   -100.00000000   -100.00000000</v>
    <i name="EFIELD">      0.00000000</i>
   </separator>
  </separator>
  <separator name="grids" >
   <i type="int" name="NGX">    40</i>
   <i type="int" name="NGY">    40</i>
   <i type="int" name="NGZ">    40</i>
   <i type="int" name="NGXF">    80</i>
   <i type="int" name="NGYF">    80</i>
   <i type="int" name="NGZF">    80</i>
   <i type="logical" name="ADDGRID"> T  </i>
  </separator>
  <separator name="ionic" >
   <i type="int" name="NSW">     0</i>
   <i type="int" name="IBRION">    -1</i>
   <i type="int" name="MDALGO">     0</i>
   <i type="int" name="ISIF">     3</i>
   <i name="PSTRESS">      0.00000000</i>
   <i name="EDIFFG">      0.00000100</i>
   <i type="int" name="NFREE">     0</i>
   <i name="POTIM">      0.50000000</i>
   <i name="SMASS">     -3.00000000</i>
   <i name="SCALEE">      1.00000000</i>
  </separator>
  <separator name="ionic md" >
   <i name="TEBEG">      0.00010000</i>
   <i name="TEEND">      0.00010000</i>
   <i type="int" name="NBLOCK">     1</i>
   <i type="int" name="KBLOCK">     1</i>
   <i type="int" name="NPACO">   256</i>
   <i name="APACO">     16.00000000</i>
  </separator>
  <separator name="symmetry" >
   <i type="int" name="ISYM">     2</i>
   <i name="SYMPREC">      0.00001000</i>
  </separator>
  <separator name="dos" >
   <i type="int" name="LORBIT">     0</i>
   <v name="RWIGS">     -1.00000000     -1.00000000     -1.00000000</v>
   <i type="int" name="NEDOS">   301</i>
   <i name="EMIN">     10.00000000</i>
   <i name="EMAX">    -10.00000000</i>
   <i name="EFERMI">      0.00000000</i>
  </separator>
  <separator name="writing" >
   <i type="int" name="NWRITE">     2</i>
   <i type="logical" name="LWAVE"> F  </i>
   <i type="logical" name="LDOWNSAMPLE"> F  </i>
   <i type="logical" name="LCHARG"> F  </i>
   <i type="logical" name="LPARD"> F  </i>
   <i type="logical" name="LVTOT"> F  </i>
   <i type="logical" name="LVHAR"> F  </i>
   <i type="logical" name="LELF"> F  </i>
   <i type="logical" name="LOPTICS"> F  </i>
   <v name="STM">      0.00000000      0.00000000      0.00000000      0.00000000      0.00000000      0.00000000      0.00000000</v>
  </separator>
  <separator name="performance" >
   <i type="int" name="NPAR">     4</i>
   <i type="int" name="NSIM">     4</i>
   <i type="int" name="NBLK">    -1</i>
   <i type="logical" name="LPLANE"> T  </i>
   <i type="logical" name="LSCALAPACK"> T  </i>
   <i type="logical" name="LSCAAWARE"> F  </i>
   <i type="logical" name="LSCALU"> F  </i>
   <i type="logical" name="LASYNC"> F  </i>
   <i type="logical" name="LORBITALREAL"> F  </i>
  </separator>
  <separator name="miscellaneous" >
   <i type="int" name="IDIOT">     3</i>
   <i type="int" name="PHON_NSTRUCT">    -1</i>
   <i type="logical" name="LMUSIC"> F  </i>
   <v name="POMASS">    232.03900000    208.98000000    195.08000000</v>
   <v name="DARWINR">      0.00000000      0.00000000      0.00000000</v>
   <v name="DARWINV">      1.00000000      1.00000000      1.00000000</v>
   <i type="logical" name="LCORR"> T  </i>
  </separator>
  <i type="logical" name="GGA_COMPAT"> T  </i>
  <i type="logical" name="LBERRY"> F  </i>
  <i type="int" name="ICORELEVEL">     0</i>
  <i type="logical" name="LDAU"> F  </i>
  <i type="int" name="I_CONSTRAINED_M">     0</i>
  <separator name="electronic exchange-correlation" >
   <i type="string" name="GGA">PS</i>
   <i type="int" name="VOSKOWN">     0</i>
   <i type="logical" name="LHFCALC"> F  </i>
   <i type="string" name="PRECFOCK"></i>
   <i type="logical" name="LSYMGRAD"> F  </i>
   <i type="logical" name="LHFONE"> F  </i>
   <i type="logical" name="LRHFCALC"> F  </i>
   <i type="logical" name="LTHOMAS"> F  </i>
   <i type="logical" name="LMODELHF"> F  </i>
   <i type="logical" name="LFOCKACE"> F  </i>
   <i name="ENCUT4O">     -1.00000000</i>
   <i type="int" name="EXXOEP">     0</i>
   <i type="int" name="FOURORBIT">     0</i>
   <i name="AEXX">      0.00000000</i>
   <i name="HFALPHA">      0.00000000</i>
   <i name="MCALPHA">      0.00000000</i>
   <i name="ALDAX">      1.00000000</i>
   <i name="AGGAX">      1.00000000</i>
   <i name="ALDAC">      1.00000000</i>
   <i name="AGGAC">      1.00000000</i>
   <i type="int" name="NKREDX">     1</i>
   <i type="int" name="NKREDY">     1</i>
   <i type="int" name="NKREDZ">     1</i>
   <i type="logical" name="SHIFTRED"> F  </i>
   <i type="logical" name="ODDONLY"> F  </i>
   <i type="logical" name="EVENONLY"> F  </i>
   <i type="int" name="LMAXFOCK">     0</i>
   <i type="int" name="NMAXFOCKAE">     0</i>
   <i type="logical" name="LFOCKAEDFT"> F  </i>
   <i name="HFSCREEN">      0.00000000</i>
   <i name="HFSCREENC">      0.00000000</i>
   <i type="int" name="NBANDSGWLOW">     0</i>
  </separator>
  <separator name="vdW DFT" >
   <i type="logical" name="LUSE_VDW"> F  </i>
   <i name="Zab_VDW">     -0.84910000</i>
   <i name="PARAM1">      0.12340000</i>
   <i name="PARAM2">      1.00000000</i>
   <i name="PARAM3">      0.00000000</i>
  </separator>
  <separator name="model GW" >
   <i type="int" name="MODEL_GW">     0</i>
   <i name="MODEL_EPS0">     14.46207436</i>
   <i name="MODEL_ALPHA">      1.00000000</i>
  </separator>
  <separator name="linear response parameters" >
   <i type="logical" name="LEPSILON"> F  </i>
   <i type="logical" name="LRPA"> F  </i>
   <i type="logical" name="LNABLA"> F  </i>
   <i type="logical" name="LVEL"> F  </i>
   <i type="int" name="KINTER">     0</i>
   <i name="CSHIFT">      0.10000000</i>
   <i name="OMEGAMAX">     -1.00000000</i>
   <i name="DEG_THRESHOLD">      0.00200000</i>
   <i name="RTIME">     -0.10000000</i>
   <i name="WPLASMAI">      0.00000000</i>
   <v name="DFIELD">      0.00000000      0.00000000      0.00000000</v>
   <v name="WPLASMA">      0.00000000      0.00000000      0.00000000      0.00000000      0.00000000      0.00000000      0.00000000      0.00000000      0.00000000</v>
  </separator>
  <separator name="orbital magnetization" >
   <i type="logical" name="NUCIND"> F  </i>
   <v name="MAGPOS">      0.00000000      0.00000000      0.00000000</v>
   <i type="logical" name="LNICSALL"> T  </i>
   <i type="logical" name="ORBITALMAG"> F  </i>
   <i type="logical" name="LMAGBLOCH"> F  </i>
   <i type="logical" name="LCHIMAG"> F  </i>
   <i type="logical" name="LGAUGE"> T  </i>
   <i type="int" name="MAGATOM">     0</i>
   <v name="MAGDIPOL">      0.00000000      0.00000000      0.00000000</v>
   <v name="AVECCONST">      0.00000000      0.00000000      0.00000000</v>
  </separator>
  <separator name="response functions" >
   <i type="logical" name="LFINITE_TEMPERATURE"> F  </i>
   <i type="logical" name="LADDER"> F  </i>
   <i type="logical" name="LRPAFORCE"> F  </i>
   <i type="logical" name="LFXC"> F  </i>
   <i type="logical" name="LHARTREE"> T  </i>
   <i type="int" name="IBSE">     0</i>
   <v type="int" name="KPOINT">    -1     0     0     0</v>
   <i type="logical" name="LTCTC"> F  </i>
   <i type="logical" name="LTCTE"> F  </i>
   <i type="logical" name="LTETE"> F  </i>
   <i type="logical" name="LTRIPLET"> F  </i>
   <i type="logical" name="LFXCEPS"> F  </i>
   <i type="logical" name="LFXHEG"> F  </i>
   <i type="int" name="NATURALO">     2</i>
   <i type="logical" name="L2ORDER"> F  </i>
   <i type="logical" name="LDMP1"> F  </i>
   <i type="logical" name="LMP2LT"> F  </i>
   <i type="logical" name="LSMP2LT"> F  </i>
   <i type="logical" name="LUSEW"> F  </i>
   <i name="ENCUTGW">     -2.00000000</i>
   <i name="ENCUTGWSOFT">     -2.00000000</i>
   <i name="ENCUTLF">     -1.00000000</i>
   <i type="int" name="LMAXMP2">    -1</i>
   <i name="SCISSOR">      0.00000000</i>
   <i type="int" name="NOMEGA">     0</i>
   <i type="int" name="NOMEGAR">     0</i>
   <i type="int" name="NBANDSGW">    -1</i>
   <i type="int" name="NBANDSO">    -1</i>
   <i type="int" name="NBANDSV">    -1</i>
   <i type="int" name="NELM">     1</i>
   <i type="int" name="NELMHF">     1</i>
   <i type="int" name="DIM">     3</i>
   <i type="int" name="IESPILON">     4</i>
   <i type="int" name="ANTIRES">     0</i>
   <i name="OMEGAMAX">    -30.00000000</i>
   <i name="OMEGAMIN">    -30.00000000</i>
   <i name="OMEGATL">   -200.00000000</i>
   <i type="int" name="OMEGAGRID">   145</i>
   <i name="CSHIFT">     -0.10000000</i>
   <i type="logical" name="LSELFENERGY"> F  </i>
   <i type="logical" name="LSPECTRAL"> F  </i>
   <i type="logical" name="LSPECTRALGW"> F  </i>
   <i type="logical" name="LSINGLES"> F  </i>
   <i type="logical" name="LFERMIGW"> F  </i>
   <i type="logical" name="ODDONLYGW"> F  </i>
   <i type="logical" name="EVENONLYGW"> F  </i>
   <i type="int" name="NKREDLFX">     1</i>
   <i type="int" name="NKREDLFY">     1</i>
   <i type="int" name="NKREDLFZ">     1</i>
   <i type="int" name="MAXMEM">  2800</i>
   <i type="int" name="TELESCOPE">     0</i>
   <i type="int" name="NTAUPAR">     1</i>
   <i type="int" name="NOMEGAPAR">    -1</i>
   <i name="LAMBDA">      1.00000000</i>
  </separator>
  <separator name="External order field" >
   <i name="OFIELD_KAPPA">      0.00000000</i>
   <v name="OFIELD_K">      0.00000000      0.00000000      0.00000000</v>
   <i name="OFIELD_Q6_NEAR">      0.00000000</i>
   <i name="OFIELD_Q6_FAR">      0.00000000</i>
   <i name="OFIELD_A">      0.00000000</i>
  </separator>
 </parameters>
 <atominfo>
  <atoms>       3 </atoms>
  <types>       3 </types>
  <array name="atoms" >
   <dimension dim="1">ion</dimension>
   <field type="string">element</field>
   <field type="int">atomtype</field>
   <set>
    <rc><c>Th</c><c>   1</c></rc>
    <rc><c>Bi</c><c>   2</c></rc>
    <rc><c>Pt</c><c>   3</c></rc>
   </set>
  </array>
  <array name="atomtypes" >
   <dimension dim="1">type</dimension>
   <field type="int">atomspertype</field>
   <field type="string">element</field>
   <field>mass</field>
   <field>valence</field>
   <field type="string">pseudopotential</field>
   <set>
    <rc><c>   1</c><c>Th</c><c>    232.03900000</c><c>     12.00000000</c><c>  PAW_PBE Th 07Sep2000                  </c></rc>
    <rc><c>   1</c><c>Bi</c><c>    208.98000000</c><c>     15.00000000</c><c>  PAW_PBE Bi_d 06Sep2000                </c></rc>
    <rc><c>   1</c><c>Pt</c><c>    195.08000000</c><c>     10.00000000</c><c>  PAW_PBE Pt 04Feb2005                  </c></rc>
   </set>
  </array>
 </atominfo>
 <structure name="initialpos" >
  <crystal>
   <varray name="basis" >
    <v>       0.00000000       3.30666501       3.30666501 </v>
    <v>       3.30666501       0.00000000       3.30666501 </v>
    <v>       3.30666501       3.30666501       0.00000000 </v>
   </varray>
   <i name="volume">     72.31037179 </i>
   <varray name="rec_basis" >
    <v>      -0.15120975       0.15120975       0.15120975 </v>
    <v>       0.15120975      -0.15120975       0.15120975 </v>
    <v>       0.15120975       0.15120975      -0.15120975 </v>
   </varray>
  </crystal>
  <varray name="positions" >
   <v>       0.25000000       0.25000000       0.25000000 </v>
   <v>       0.75000000       0.75000000       0.75000000 </v>
   <v>       0.00000000       0.00000000       0.00000000 </v>
  </varray>
 </structure>
 <calculation>
  <scstep>
   <time name="dav">    1.42    1.43</time>
   <time name="total">    1.57    1.65</time>
   <energy>
    <i name="alphaZ">    237.60855535 </i>
    <i name="ewald">  -3239.57228859 </i>
    <i name="hartreedc">   -709.70322445 </i>
    <i name="XCdc">     69.50234599 </i>
    <i name="pawpsdc">   3147.30828992 </i>
    <i name="pawaedc">  -3070.62761383 </i>
    <i name="eentropy">     -0.00018800 </i>
    <i name="bandstr">    343.39639122 </i>
    <i name="atom">   3674.67342263 </i>
    <i name="e_fr_energy">    452.58569025 </i>
    <i name="e_wo_entrp">    452.58587825 </i>
    <i name="e_0_energy">    452.58578425 </i>
   </energy>
  </scstep>
  <scstep>
   <time name="dav">    1.45    1.48</time>
   <time name="total">    1.46    1.48</time>
   <energy>
    <i name="e_fr_energy">     46.60009125 </i>
    <i name="e_wo_entrp">     46.60015572 </i>
    <i name="e_0_energy">     46.60012348 </i>
   </energy>
  </scstep>
  <scstep>
   <time name="dav">    1.85    1.92</time>
   <time name="total">    1.85    1.92</time>
   <energy>
    <i name="e_fr_energy">    -18.22600966 </i>
    <i name="e_wo_entrp">    -18.22590387 </i>
    <i name="e_0_energy">    -18.22595676 </i>
   </energy>
  </scstep>
  <scstep>
   <time name="dav">    2.26    2.31</time>
   <time name="total">    2.27    2.31</time>
   <energy>
    <i name="e_fr_energy">    -22.41227071 </i>
    <i name="e_wo_entrp">    -22.41209921 </i>
    <i name="e_0_energy">    -22.41218496 </i>
   </energy>
  </scstep>
  <scstep>
   <time name="dav">    1.80    1.82</time>
   <time name="total">    2.12    2.14</time>
   <energy>
    <i name="e_fr_energy">    -22.51768542 </i>
    <i name="e_wo_entrp">    -22.51751251 </i>
    <i name="e_0_energy">    -22.51759897 </i>
   </energy>
  </scstep>
  <scstep>
   <time name="dav">    1.69    1.69</time>
   <time name="total">    2.09    2.13</time>
   <energy>
    <i name="e_fr_energy">    -21.71089723 </i>
    <i name="e_wo_entrp">    -21.71077451 </i>
    <i name="e_0_energy">    -21.71083587 </i>
   </energy>
  </scstep>
  <scstep>
   <time name="dav">    1.93    1.93</time>
   <time name="total">    2.33    2.36</time>
   <energy>
    <i name="e_fr_energy">    -21.56661048 </i>
    <i name="e_wo_entrp">    -21.56633973 </i>
    <i name="e_0_energy">    -21.56647511 </i>
   </energy>
  </scstep>
  <scstep>
   <time name="dav">    1.77    1.77</time>
   <time name="total">    2.17    2.20</time>
   <energy>
    <i name="e_fr_energy">    -21.53249227 </i>
    <i name="e_wo_entrp">    -21.53238168 </i>
    <i name="e_0_energy">    -21.53243697 </i>
   </energy>
  </scstep>
  <scstep>
   <time name="dav">    1.91    1.91</time>
   <time name="total">    2.31    2.36</time>
   <energy>
    <i name="e_fr_energy">    -21.52645959 </i>
    <i name="e_wo_entrp">    -21.52630855 </i>
    <i name="e_0_energy">    -21.52638407 </i>
   </energy>
  </scstep>
  <scstep>
   <time name="dav">    1.79    1.79</time>
   <time name="total">    2.17    2.23</time>
   <energy>
    <i name="e_fr_energy">    -21.52277871 </i>
    <i name="e_wo_entrp">    -21.52262774 </i>
    <i name="e_0_energy">    -21.52270322 </i>
   </energy>
  </scstep>
  <scstep>
   <time name="dav">    1.80    1.80</time>
   <time name="total">    2.19    2.24</time>
   <energy>
    <i name="e_fr_energy">    -21.52285747 </i>
    <i name="e_wo_entrp">    -21.52270515 </i>
    <i name="e_0_energy">    -21.52278131 </i>
   </energy>
  </scstep>
  <scstep>
   <time name="dav">    1.86    1.86</time>
   <time name="total">    2.25    2.29</time>
   <energy>
    <i name="e_fr_energy">    -21.52280794 </i>
    <i name="e_wo_entrp">    -21.52265449 </i>
    <i name="e_0_energy">    -21.52273121 </i>
   </energy>
  </scstep>
  <scstep>
   <time name="dav">    2.01    2.01</time>
   <time name="total">    2.43    2.55</time>
   <energy>
    <i name="e_fr_energy">    -21.52281016 </i>
    <i name="e_wo_entrp">    -21.52265639 </i>
    <i name="e_0_energy">    -21.52273328 </i>
   </energy>
  </scstep>
  <scstep>
   <time name="dav">    1.76    1.76</time>
   <time name="total">    2.21    2.28</time>
   <energy>
    <i name="e_fr_energy">    -21.52280962 </i>
    <i name="e_wo_entrp">    -21.52265598 </i>
    <i name="e_0_energy">    -21.52273280 </i>
   </energy>
  </scstep>
  <scstep>
   <time name="dav">    2.11    2.11</time>
   <time name="total">    2.53    2.61</time>
   <energy>
    <i name="e_fr_energy">    -21.52280928 </i>
    <i name="e_wo_entrp">    -21.52265579 </i>
    <i name="e_0_energy">    -21.52273254 </i>
   </energy>
  </scstep>
  <scstep>
   <time name="dav">    1.28    1.28</time>
   <time name="total">    1.42    1.45</time>
   <energy>
    <i name="alphaZ">    237.60855535 </i>
    <i name="ewald">  -3239.57228859 </i>
    <i name="hartreedc">   -683.30628962 </i>
    <i name="XCdc">     68.83844000 </i>
    <i name="pawpsdc">   4213.51929843 </i>
    <i name="pawaedc">  -4147.32698858 </i>
    <i name="eentropy">     -0.00015350 </i>
    <i name="bandstr">   -145.95680539 </i>
    <i name="atom">   3674.67342263 </i>
    <i name="e_fr_energy">    -21.52280926 </i>
    <i name="e_wo_entrp">    -21.52265577 </i>
    <i name="e_0_energy">    -21.52273252 </i>
   </energy>
  </scstep>
  <structure>
   <crystal>
    <varray name="basis" >
     <v>       0.00000000       3.30666501       3.30666501 </v>
     <v>       3.30666501       0.00000000       3.30666501 </v>
     <v>       3.30666501       3.30666501       0.00000000 </v>
    </varray>
    <i name="volume">     72.31037179 </i>
    <varray name="rec_basis" >
     <v>      -0.15120975       0.15120975       0.15120975 </v>
     <v>       0.15120975      -0.15120975       0.15120975 </v>
     <v>       0.15120975       0.15120975      -0.15120975 </v>
    </varray>
   </crystal>
   <varray name="positions" >
    <v>       0.25000000       0.25000000       0.25000000 </v>
    <v>       0.75000000       0.75000000       0.75000000 </v>
    <v>       0.00000000       0.00000000       0.00000000 </v>
   </varray>
  </structure>
  <varray name="forces" >
   <v>       0.00000000       0.00000000       0.00000000 </v>
   <v>       0.00000000       0.00000000       0.00000000 </v>
   <v>      -0.00000000      -0.00000000      -0.00000000 </v>
  </varray>
  <varray name="stress" >
   <v>     143.39238924      -0.00000000       0.00000000 </v>
   <v>       0.00000000     143.39238924      -0.00000000 </v>
   <v>      -0.00000000       0.00000000     143.39238924 </v>
  </varray>
  <energy>
   <i name="e_fr_energy">    -21.52280926 </i>
   <i name="e_wo_entrp">    -21.52273252 </i>
   <i name="e_0_energy">     -0.00015350 </i>
  </energy>
  <time name="totalsc">   36.88   38.42</time>
  <eigenvalues>
   <array>
    <dimension dim="1">band</dimension>
    <dimension dim="2">kpoint</dimension>
    <dimension dim="3">spin</dimension>
    <field>eigene</field>
    <field>occ</field>
    <set>
     <set comment="spin 1">
      <set comment="kpoint 1">
       <r>  -29.9484    1.0000 </r>
       <r>  -13.3644    1.0000 </r>
       <r>  -13.3644    1.0000 </r>
       <r>  -13.3228    1.0000 </r>
       <r>  -13.3228    1.0000 </r>
       <r>  -13.3228    1.0000 </r>
       <r>   -8.1110    1.0000 </r>
       <r>   -8.1110    1.0000 </r>
       <r>   -8.1110    1.0000 </r>
       <r>   -3.0259    1.0000 </r>
       <r>    5.0758    1.0000 </r>
       <r>    5.0758    1.0000 </r>
       <r>    5.0758    1.0000 </r>
       <r>    5.1711    1.0000 </r>
       <r>    5.1711    1.0000 </r>
       <r>    8.3569    1.0000 </r>
       <r>    8.5468    1.0000 </r>
       <r>    8.5468    1.0000 </r>
       <r>    8.5468    1.0000 </r>
       <r>   10.0162    0.0000 </r>
       <r>   10.0162    0.0000 </r>
       <r>   10.0162    0.0000 </r>
       <r>   10.9545    0.0000 </r>
       <r>   12.1090    0.0000 </r>
      </set>
      <set comment="kpoint 2">
       <r>  -29.9478    1.0000 </r>
       <r>  -13.3656    1.0000 </r>
       <r>  -13.3656    1.0000 </r>
       <r>  -13.3231    1.0000 </r>
       <r>  -13.3226    1.0000 </r>
       <r>  -13.3226    1.0000 </r>
       <r>   -8.1401    1.0000 </r>
       <r>   -8.1069    1.0000 </r>
       <r>   -8.1069    1.0000 </r>
       <r>   -2.9405    1.0000 </r>
       <r>    4.8715    1.0000 </r>
       <r>    4.8715    1.0000 </r>
       <r>    4.9425    1.0000 </r>
       <r>    5.3639    1.0000 </r>
       <r>    5.3639    1.0000 </r>
       <r>    7.6766    1.0000 </r>
       <r>    8.4602    1.0000 </r>
       <r>    8.4602    1.0000 </r>
       <r>    9.0432    1.0000 </r>
       <r>   10.1231    0.0000 </r>
       <r>   10.1231    0.0000 </r>
       <r>   10.1563    0.0000 </r>
       <r>   11.2314    0.0000 </r>
       <r>   12.1144    0.0000 </r>
      </set>
      <set comment="kpoint 3">
       <r>  -29.9461    1.0000 </r>
       <r>  -13.3690    1.0000 </r>
       <r>  -13.3690    1.0000 </r>
       <r>  -13.3240    1.0000 </r>
       <r>  -13.3220    1.0000 </r>
       <r>  -13.3220    1.0000 </r>
       <r>   -8.2161    1.0000 </r>
       <r>   -8.0956    1.0000 </r>
       <r>   -8.0956    1.0000 </r>
       <r>   -2.7065    1.0000 </r>
       <r>    4.5959    1.0000 </r>
       <r>    4.6569    1.0000 </r>
       <r>    4.6569    1.0000 </r>
       <r>    5.5306    1.0000 </r>
       <r>    5.5306    1.0000 </r>
       <r>    6.9747    1.0000 </r>
       <r>    8.2867    1.0000 </r>
       <r>    8.2867    1.0000 </r>
       <r>    9.1842    1.0000 </r>
       <r>   10.3762    0.0000 </r>
       <r>   10.3762    0.0000 </r>
       <r>   10.7771    0.0000 </r>
       <r>   11.7462    0.0000 </r>
       <r>   12.1210    0.0000 </r>
      </set>
      <set comment="kpoint 4">
       <r>  -29.9437    1.0000 </r>
       <r>  -13.3739    1.0000 </r>
       <r>  -13.3739    1.0000 </r>
       <r>  -13.3253    1.0000 </r>
       <r>  -13.3210    1.0000 </r>
       <r>  -13.3210    1.0000 </r>
       <r>   -8.3129    1.0000 </r>
       <r>   -8.0797    1.0000 </r>
       <r>   -8.0797    1.0000 </r>
       <r>   -2.3820    1.0000 </r>
       <r>    4.1548    1.0000 </r>
       <r>    4.4976    1.0000 </r>
       <r>    4.4976    1.0000 </r>
       <r>    5.5809    1.0000 </r>
       <r>    5.5809    1.0000 </r>
       <r>    6.4165    1.0000 </r>
       <r>    8.1514    1.0000 </r>
       <r>    8.1514    1.0000 </r>
       <r>    9.2191    1.0000 </r>
       <r>   10.6838    0.0000 </r>
       <r>   10.6838    0.0000 </r>
       <r>   11.5162    0.0000 </r>
       <r>   12.1055    0.0000 </r>
       <r>   12.1060    0.0000 </r>
      </set>
      <set comment="kpoint 5">
       <r>  -29.9411    1.0000 </r>
       <r>  -13.3790    1.0000 </r>
       <r>  -13.3790    1.0000 </r>
       <r>  -13.3270    1.0000 </r>
       <r>  -13.3200    1.0000 </r>
       <r>  -13.3200    1.0000 </r>
       <r>   -8.4046    1.0000 </r>
       <r>   -8.0629    1.0000 </r>
       <r>   -8.0629    1.0000 </r>
       <r>   -2.0434    1.0000 </r>
       <r>    3.7374    1.0000 </r>
       <r>    4.4057    1.0000 </r>
       <r>    4.4057    1.0000 </r>
       <r>    5.5100    1.0000 </r>
       <r>    5.5100    1.0000 </r>
       <r>    6.0230    1.0000 </r>
       <r>    8.1005    1.0000 </r>
       <r>    8.1005    1.0000 </r>
       <r>    9.3160    1.0000 </r>
       <r>   10.9887    0.0000 </r>
       <r>   10.9887    0.0000 </r>
       <r>   12.0080    0.0000 </r>
       <r>   12.0731    0.0000 </r>
       <r>   12.0732    0.0000 </r>
      </set>
      <set comment="kpoint 6">
       <r>  -29.9390    1.0000 </r>
       <r>  -13.3832    1.0000 </r>
       <r>  -13.3832    1.0000 </r>
       <r>  -13.3286    1.0000 </r>
       <r>  -13.3191    1.0000 </r>
       <r>  -13.3191    1.0000 </r>
       <r>   -8.4731    1.0000 </r>
       <r>   -8.0490    1.0000 </r>
       <r>   -8.0490    1.0000 </r>
       <r>   -1.7674    1.0000 </r>
       <r>    3.4268    1.0000 </r>
       <r>    4.3746    1.0000 </r>
       <r>    4.3746    1.0000 </r>
       <r>    5.3787    1.0000 </r>
       <r>    5.3787    1.0000 </r>
       <r>    5.7830    1.0000 </r>
       <r>    8.1063    1.0000 </r>
       <r>    8.1063    1.0000 </r>
       <r>    9.4860    1.0000 </r>
       <r>   11.2372    0.0000 </r>
       <r>   11.2372    0.0000 </r>
       <r>   12.0408    0.0000 </r>
       <r>   12.0408    0.0000 </r>
       <r>   12.1297    0.0000 </r>
      </set>
      <set comment="kpoint 7">
       <r>  -29.9378    1.0000 </r>
       <r>  -13.3856    1.0000 </r>
       <r>  -13.3856    1.0000 </r>
       <r>  -13.3295    1.0000 </r>
       <r>  -13.3186    1.0000 </r>
       <r>  -13.3186    1.0000 </r>
       <r>   -8.5092    1.0000 </r>
       <r>   -8.0412    1.0000 </r>
       <r>   -8.0412    1.0000 </r>
       <r>   -1.6139    1.0000 </r>
       <r>    3.2648    1.0000 </r>
       <r>    4.3768    1.0000 </r>
       <r>    4.3768    1.0000 </r>
       <r>    5.2774    1.0000 </r>
       <r>    5.2774    1.0000 </r>
       <r>    5.6729    1.0000 </r>
       <r>    8.1227    1.0000 </r>
       <r>    8.1227    1.0000 </r>
       <r>    9.6555    1.0000 </r>
       <r>   11.3770    0.0000 </r>
       <r>   11.3770    0.0000 </r>
       <r>   11.9323    0.0000 </r>
       <r>   12.0186    0.0000 </r>
       <r>   12.0186    0.0000 </r>
      </set>
      <set comment="kpoint 8">
       <r>  -29.9476    1.0000 </r>
       <r>  -13.3679    1.0000 </r>
       <r>  -13.3640    1.0000 </r>
       <r>  -13.3234    1.0000 </r>
       <r>  -13.3224    1.0000 </r>
       <r>  -13.3224    1.0000 </r>
       <r>   -8.1341    1.0000 </r>
       <r>   -8.1134    1.0000 </r>
       <r>   -8.1134    1.0000 </r>
       <r>   -2.9144    1.0000 </r>
       <r>    4.5870    1.0000 </r>
       <r>    5.0876    1.0000 </r>
       <r>    5.0876    1.0000 </r>
       <r>    5.1884    1.0000 </r>
       <r>    5.4163    1.0000 </r>
       <r>    7.6662    1.0000 </r>
       <r>    8.3275    1.0000 </r>
       <r>    8.3275    1.0000 </r>
       <r>    9.3147    1.0000 </r>
       <r>    9.8197    0.7367 </r>
       <r>   10.3080    0.0000 </r>
       <r>   10.3080    0.0000 </r>
       <r>   11.2813    0.0000 </r>
       <r>   12.0778    0.0000 </r>
      </set>
      <set comment="kpoint 9">
       <r>  -29.9463    1.0000 </r>
       <r>  -13.3717    1.0000 </r>
       <r>  -13.3648    1.0000 </r>
       <r>  -13.3241    1.0000 </r>
       <r>  -13.3220    1.0000 </r>
       <r>  -13.3219    1.0000 </r>
       <r>   -8.1903    1.0000 </r>
       <r>   -8.1115    1.0000 </r>
       <r>   -8.1017    1.0000 </r>
       <r>   -2.7370    1.0000 </r>
       <r>    4.2808    1.0000 </r>
       <r>    4.9236    1.0000 </r>
       <r>    4.9345    1.0000 </r>
       <r>    5.3540    1.0000 </r>
       <r>    5.5458    1.0000 </r>
       <r>    7.1817    1.0000 </r>
       <r>    8.1539    1.0000 </r>
       <r>    8.1567    1.0000 </r>
       <r>    9.5660    1.0000 </r>
       <r>    9.8756    0.0000 </r>
       <r>   10.5759    0.0000 </r>
       <r>   10.7325    0.0000 </r>
       <r>   11.6562    0.0000 </r>
       <r>   12.0489    0.0000 </r>
      </set>
      <set comment="kpoint 10">
       <r>  -29.9441    1.0000 </r>
       <r>  -13.3762    1.0000 </r>
       <r>  -13.3680    1.0000 </r>
       <r>  -13.3251    1.0000 </r>
       <r>  -13.3213    1.0000 </r>
       <r>  -13.3209    1.0000 </r>
       <r>   -8.2790    1.0000 </r>
       <r>   -8.1016    1.0000 </r>
       <r>   -8.0837    1.0000 </r>
       <r>   -2.4553    1.0000 </r>
       <r>    3.9929    1.0000 </r>
       <r>    4.6452    1.0000 </r>
       <r>    4.7566    1.0000 </r>
       <r>    5.4473    1.0000 </r>
       <r>    5.6482    1.0000 </r>
       <r>    6.6437    1.0000 </r>
       <r>    7.9967    1.0000 </r>
       <r>    8.0417    1.0000 </r>
       <r>    9.5203    1.0000 </r>
       <r>   10.2856    0.0000 </r>
       <r>   10.8512    0.0000 </r>
       <r>   11.3464    0.0000 </r>
       <r>   12.0259    0.0000 </r>
       <r>   12.0631    0.0000 </r>
      </set>
      <set comment="kpoint 11">
       <r>  -29.9416    1.0000 </r>
       <r>  -13.3805    1.0000 </r>
       <r>  -13.3728    1.0000 </r>
       <r>  -13.3265    1.0000 </r>
       <r>  -13.3205    1.0000 </r>
       <r>  -13.3198    1.0000 </r>
       <r>   -8.3703    1.0000 </r>
       <r>   -8.0862    1.0000 </r>
       <r>   -8.0677    1.0000 </r>
       <r>   -2.1393    1.0000 </r>
       <r>    3.7243    1.0000 </r>
       <r>    4.4116    1.0000 </r>
       <r>    4.6346    1.0000 </r>
       <r>    5.4154    1.0000 </r>
       <r>    5.6441    1.0000 </r>
       <r>    6.2025    1.0000 </r>
       <r>    7.9205    1.0000 </r>
       <r>    8.0206    1.0000 </r>
       <r>    9.4850    1.0000 </r>
       <r>   10.7306    0.0000 </r>
       <r>   11.1043    0.0000 </r>
       <r>   11.8491    0.0000 </r>
       <r>   12.0108    0.0000 </r>
       <r>   12.1236    0.0000 </r>
      </set>
      <set comment="kpoint 12">
       <r>  -29.9394    1.0000 </r>
       <r>  -13.3834    1.0000 </r>
       <r>  -13.3781    1.0000 </r>
       <r>  -13.3279    1.0000 </r>
       <r>  -13.3198    1.0000 </r>
       <r>  -13.3189    1.0000 </r>
       <r>   -8.4443    1.0000 </r>
       <r>   -8.0686    1.0000 </r>
       <r>   -8.0572    1.0000 </r>
       <r>   -1.8631    1.0000 </r>
       <r>    3.4984    1.0000 </r>
       <r>    4.3069    1.0000 </r>
       <r>    4.5457    1.0000 </r>
       <r>    5.3231    1.0000 </r>
       <r>    5.5457    1.0000 </r>
       <r>    5.8956    1.0000 </r>
       <r>    7.9218    1.0000 </r>
       <r>    8.0507    1.0000 </r>
       <r>    9.5484    1.0000 </r>
       <r>   11.0860    0.0000 </r>
       <r>   11.3075    0.0000 </r>
       <r>   11.9762    0.0000 </r>
       <r>   12.0008    0.0000 </r>
       <r>   12.1856    0.0000 </r>
      </set>
      <set comment="kpoint 13">
       <r>  -29.9379    1.0000 </r>
       <r>  -13.3845    1.0000 </r>
       <r>  -13.3826    1.0000 </r>
       <r>  -13.3289    1.0000 </r>
       <r>  -13.3191    1.0000 </r>
       <r>  -13.3184    1.0000 </r>
       <r>   -8.4894    1.0000 </r>
       <r>   -8.0544    1.0000 </r>
       <r>   -8.0530    1.0000 </r>
       <r>   -1.6848    1.0000 </r>
       <r>    3.3563    1.0000 </r>
       <r>    4.3179    1.0000 </r>
       <r>    4.4567    1.0000 </r>
       <r>    5.2734    1.0000 </r>
       <r>    5.4094    1.0000 </r>
       <r>    5.7277    1.0000 </r>
       <r>    7.9510    1.0000 </r>
       <r>    8.0790    1.0000 </r>
       <r>    9.6855    1.0000 </r>
       <r>   11.2644    0.0000 </r>
       <r>   11.4238    0.0000 </r>
       <r>   11.9347    0.0000 </r>
       <r>   11.9912    0.0000 </r>
       <r>   12.1359    0.0000 </r>
      </set>
      <set comment="kpoint 14">
       <r>  -29.9375    1.0000 </r>
       <r>  -13.3853    1.0000 </r>
       <r>  -13.3834    1.0000 </r>
       <r>  -13.3292    1.0000 </r>
       <r>  -13.3189    1.0000 </r>
       <r>  -13.3184    1.0000 </r>
       <r>   -8.5008    1.0000 </r>
       <r>   -8.0599    1.0000 </r>
       <r>   -8.0428    1.0000 </r>
       <r>   -1.6364    1.0000 </r>
       <r>    3.3186    1.0000 </r>
       <r>    4.3527    1.0000 </r>
       <r>    4.4001    1.0000 </r>
       <r>    5.3033    1.0000 </r>
       <r>    5.3265    1.0000 </r>
       <r>    5.6895    1.0000 </r>
       <r>    7.9594    1.0000 </r>
       <r>    8.0833    1.0000 </r>
       <r>    9.7568    1.0000 </r>
       <r>   11.2918    0.0000 </r>
       <r>   11.4167    0.0000 </r>
       <r>   11.9336    0.0000 </r>
       <r>   11.9903    0.0000 </r>
       <r>   12.0782    0.0000 </r>
      </set>
      <set comment="kpoint 15">
       <r>  -29.9383    1.0000 </r>
       <r>  -13.3856    1.0000 </r>
       <r>  -13.3803    1.0000 </r>
       <r>  -13.3286    1.0000 </r>
       <r>  -13.3191    1.0000 </r>
       <r>  -13.3189    1.0000 </r>
       <r>   -8.4775    1.0000 </r>
       <r>   -8.0720    1.0000 </r>
       <r>   -8.0403    1.0000 </r>
       <r>   -1.7258    1.0000 </r>
       <r>    3.3933    1.0000 </r>
       <r>    4.2658    1.0000 </r>
       <r>    4.5073    1.0000 </r>
       <r>    5.2814    1.0000 </r>
       <r>    5.4605    1.0000 </r>
       <r>    5.7726    1.0000 </r>
       <r>    7.9202    1.0000 </r>
       <r>    8.0733    1.0000 </r>
       <r>    9.6656    1.0000 </r>
       <r>   11.2667    0.0000 </r>
       <r>   11.3304    0.0000 </r>
       <r>   11.9545    0.0000 </r>
       <r>   12.0066    0.0000 </r>
       <r>   12.1684    0.0000 </r>
      </set>
      <set comment="kpoint 16">
       <r>  -29.9400    1.0000 </r>
       <r>  -13.3835    1.0000 </r>
       <r>  -13.3760    1.0000 </r>
       <r>  -13.3273    1.0000 </r>
       <r>  -13.3197    1.0000 </r>
       <r>  -13.3197    1.0000 </r>
       <r>   -8.4221    1.0000 </r>
       <r>   -8.0879    1.0000 </r>
       <r>   -8.0461    1.0000 </r>
       <r>   -1.9396    1.0000 </r>
       <r>    3.5873    1.0000 </r>
       <r>    4.2353    1.0000 </r>
       <r>    4.6214    1.0000 </r>
       <r>    5.3416    1.0000 </r>
       <r>    5.6107    1.0000 </r>
       <r>    5.9830    1.0000 </r>
       <r>    7.8397    1.0000 </r>
       <r>    8.0825    1.0000 </r>
       <r>    9.5531    1.0000 </r>
       <r>   10.9958    0.0000 </r>
       <r>   11.2188    0.0000 </r>
       <r>   11.9507    0.0000 </r>
       <r>   12.0319    0.0000 </r>
       <r>   12.1713    0.0000 </r>
      </set>
      <set comment="kpoint 17">
       <r>  -29.9424    1.0000 </r>
       <r>  -13.3795    1.0000 </r>
       <r>  -13.3714    1.0000 </r>
       <r>  -13.3258    1.0000 </r>
       <r>  -13.3208    1.0000 </r>
       <r>  -13.3205    1.0000 </r>
       <r>   -8.3417    1.0000 </r>
       <r>   -8.1037    1.0000 </r>
       <r>   -8.0591    1.0000 </r>
       <r>   -2.2372    1.0000 </r>
       <r>    3.8889    1.0000 </r>
       <r>    4.2833    1.0000 </r>
       <r>    4.7642    1.0000 </r>
       <r>    5.4062    1.0000 </r>
       <r>    5.7032    1.0000 </r>
       <r>    6.3321    1.0000 </r>
       <r>    7.7706    1.0000 </r>
       <r>    8.1528    1.0000 </r>
       <r>    9.5154    1.0000 </r>
       <r>   10.6639    0.0000 </r>
       <r>   10.9297    0.0000 </r>
       <r>   11.7279    0.0000 </r>
       <r>   12.0571    0.0000 </r>
       <r>   12.0994    0.0000 </r>
      </set>
      <set comment="kpoint 18">
       <r>  -29.9449    1.0000 </r>
       <r>  -13.3744    1.0000 </r>
       <r>  -13.3676    1.0000 </r>
       <r>  -13.3245    1.0000 </r>
       <r>  -13.3217    1.0000 </r>
       <r>  -13.3214    1.0000 </r>
       <r>   -8.2513    1.0000 </r>
       <r>   -8.1149    1.0000 </r>
       <r>   -8.0761    1.0000 </r>
       <r>   -2.5519    1.0000 </r>
       <r>    4.2512    1.0000 </r>
       <r>    4.4146    1.0000 </r>
       <r>    4.9521    1.0000 </r>
       <r>    5.3809    1.0000 </r>
       <r>    5.6860    1.0000 </r>
       <r>    6.8056    1.0000 </r>
       <r>    7.8092    1.0000 </r>
       <r>    8.2957    1.0000 </r>
       <r>    9.5366    1.0000 </r>
       <r>   10.3465    0.0000 </r>
       <r>   10.4798    0.0000 </r>
       <r>   11.2328    0.0000 </r>
       <r>   11.9462    0.0000 </r>
       <r>   12.1050    0.0000 </r>
      </set>
      <set comment="kpoint 19">
       <r>  -29.9468    1.0000 </r>
       <r>  -13.3694    1.0000 </r>
       <r>  -13.3655    1.0000 </r>
       <r>  -13.3236    1.0000 </r>
       <r>  -13.3223    1.0000 </r>
       <r>  -13.3221    1.0000 </r>
       <r>   -8.1758    1.0000 </r>
       <r>   -8.1163    1.0000 </r>
       <r>   -8.0934    1.0000 </r>
       <r>   -2.8081    1.0000 </r>
       <r>    4.6092    1.0000 </r>
       <r>    4.6193    1.0000 </r>
       <r>    5.0979    1.0000 </r>
       <r>    5.2843    1.0000 </r>
       <r>    5.5592    1.0000 </r>
       <r>    7.3075    1.0000 </r>
       <r>    8.0689    1.0000 </r>
       <r>    8.4411    1.0000 </r>
       <r>    9.4134    1.0000 </r>
       <r>   10.0986    0.0000 </r>
       <r>   10.1336    0.0000 </r>
       <r>   10.6891    0.0000 </r>
       <r>   11.5324    0.0000 </r>
       <r>   12.1063    0.0000 </r>
      </set>
      <set comment="kpoint 20">
       <r>  -29.9454    1.0000 </r>
       <r>  -13.3749    1.0000 </r>
       <r>  -13.3627    1.0000 </r>
       <r>  -13.3250    1.0000 </r>
       <r>  -13.3213    1.0000 </r>
       <r>  -13.3213    1.0000 </r>
       <r>   -8.1924    1.0000 </r>
       <r>   -8.1202    1.0000 </r>
       <r>   -8.1202    1.0000 </r>
       <r>   -2.6372    1.0000 </r>
       <r>    3.9548    1.0000 </r>
       <r>    5.1028    1.0000 </r>
       <r>    5.1028    1.0000 </r>
       <r>    5.2373    1.0000 </r>
       <r>    5.4602    1.0000 </r>
       <r>    7.1607    1.0000 </r>
       <r>    7.9970    1.0000 </r>
       <r>    7.9970    1.0000 </r>
       <r>    9.4462    1.0000 </r>
       <r>   10.1417    0.0000 </r>
       <r>   10.8311    0.0000 </r>
       <r>   10.8311    0.0000 </r>
       <r>   11.7854    0.0000 </r>
       <r>   11.9813    0.0000 </r>
      </set>
      <set comment="kpoint 21">
       <r>  -29.9436    1.0000 </r>
       <r>  -13.3779    1.0000 </r>
       <r>  -13.3634    1.0000 </r>
       <r>  -13.3260    1.0000 </r>
       <r>  -13.3206    1.0000 </r>
       <r>  -13.3204    1.0000 </r>
       <r>   -8.2532    1.0000 </r>
       <r>   -8.1198    1.0000 </r>
       <r>   -8.1107    1.0000 </r>
       <r>   -2.4390    1.0000 </r>
       <r>    3.7058    1.0000 </r>
       <r>    4.9224    1.0000 </r>
       <r>    4.9937    1.0000 </r>
       <r>    5.3323    1.0000 </r>
       <r>    5.5277    1.0000 </r>
       <r>    6.8811    1.0000 </r>
       <r>    7.8095    1.0000 </r>
       <r>    7.9073    1.0000 </r>
       <r>    9.5661    1.0000 </r>
       <r>   10.2795    0.0000 </r>
       <r>   11.0666    0.0000 </r>
       <r>   11.2449    0.0000 </r>
       <r>   11.9269    0.0000 </r>
       <r>   12.0406    0.0000 </r>
      </set>
      <set comment="kpoint 22">
       <r>  -29.9414    1.0000 </r>
       <r>  -13.3801    1.0000 </r>
       <r>  -13.3665    1.0000 </r>
       <r>  -13.3270    1.0000 </r>
       <r>  -13.3202    1.0000 </r>
       <r>  -13.3193    1.0000 </r>
       <r>   -8.3325    1.0000 </r>
       <r>   -8.1105    1.0000 </r>
       <r>   -8.0964    1.0000 </r>
       <r>   -2.1999    1.0000 </r>
       <r>    3.5607    1.0000 </r>
       <r>    4.6327    1.0000 </r>
       <r>    4.8645    1.0000 </r>
       <r>    5.3489    1.0000 </r>
       <r>    5.6106    1.0000 </r>
       <r>    6.5074    1.0000 </r>
       <r>    7.6439    1.0000 </r>
       <r>    7.9111    1.0000 </r>
       <r>    9.6795    1.0000 </r>
       <r>   10.5696    0.0000 </r>
       <r>   11.2639    0.0000 </r>
       <r>   11.6919    0.0000 </r>
       <r>   11.9042    0.0000 </r>
       <r>   12.1565    0.0000 </r>
      </set>
      <set comment="kpoint 23">
       <r>  -29.9392    1.0000 </r>
       <r>  -13.3809    1.0000 </r>
       <r>  -13.3715    1.0000 </r>
       <r>  -13.3277    1.0000 </r>
       <r>  -13.3199    1.0000 </r>
       <r>  -13.3184    1.0000 </r>
       <r>   -8.4020    1.0000 </r>
       <r>   -8.0945    1.0000 </r>
       <r>   -8.0898    1.0000 </r>
       <r>   -1.9803    1.0000 </r>
       <r>    3.5173    1.0000 </r>
       <r>    4.4124    1.0000 </r>
       <r>    4.7318    1.0000 </r>
       <r>    5.3116    1.0000 </r>
       <r>    5.6140    1.0000 </r>
       <r>    6.1519    1.0000 </r>
       <r>    7.5866    1.0000 </r>
       <r>    7.9602    1.0000 </r>
       <r>    9.6842    1.0000 </r>
       <r>   10.9809    0.0000 </r>
       <r>   11.4200    0.0000 </r>
       <r>   11.8952    0.0000 </r>
       <r>   11.9151    0.0000 </r>
       <r>   12.2080    0.0000 </r>
      </set>
      <set comment="kpoint 24">
       <r>  -29.9376    1.0000 </r>
       <r>  -13.3802    1.0000 </r>
       <r>  -13.3770    1.0000 </r>
       <r>  -13.3282    1.0000 </r>
       <r>  -13.3198    1.0000 </r>
       <r>  -13.3178    1.0000 </r>
       <r>   -8.4482    1.0000 </r>
       <r>   -8.0933    1.0000 </r>
       <r>   -8.0753    1.0000 </r>
       <r>   -1.8233    1.0000 </r>
       <r>    3.5303    1.0000 </r>
       <r>    4.3223    1.0000 </r>
       <r>    4.5683    1.0000 </r>
       <r>    5.3183    1.0000 </r>
       <r>    5.5430    1.0000 </r>
       <r>    5.8990    1.0000 </r>
       <r>    7.5926    1.0000 </r>
       <r>    7.9929    1.0000 </r>
       <r>    9.7544    1.0000 </r>
       <r>   11.1694    0.0000 </r>
       <r>   11.5183    0.0000 </r>
       <r>   11.9109    0.0000 </r>
       <r>   11.9343    0.0000 </r>
       <r>   12.2217    0.0000 </r>
      </set>
      <set comment="kpoint 25">
       <r>  -29.9369    1.0000 </r>
       <r>  -13.3818    1.0000 </r>
       <r>  -13.3783    1.0000 </r>
       <r>  -13.3282    1.0000 </r>
       <r>  -13.3199    1.0000 </r>
       <r>  -13.3178    1.0000 </r>
       <r>   -8.4658    1.0000 </r>
       <r>   -8.1054    1.0000 </r>
       <r>   -8.0573    1.0000 </r>
       <r>   -1.7479    1.0000 </r>
       <r>    3.5355    1.0000 </r>
       <r>    4.3701    1.0000 </r>
       <r>    4.3887    1.0000 </r>
       <r>    5.4060    1.0000 </r>
       <r>    5.4313    1.0000 </r>
       <r>    5.8028    1.0000 </r>
       <r>    7.5938    1.0000 </r>
       <r>    7.9893    1.0000 </r>
       <r>    9.8772    0.0000 </r>
       <r>   11.1024    0.0000 </r>
       <r>   11.5244    0.0000 </r>
       <r>   11.9449    0.0000 </r>
       <r>   11.9768    0.0000 </r>
       <r>   12.1687    0.0000 </r>
      </set>
      <set comment="kpoint 26">
       <r>  -29.9373    1.0000 </r>
       <r>  -13.3849    1.0000 </r>
       <r>  -13.3755    1.0000 </r>
       <r>  -13.3276    1.0000 </r>
       <r>  -13.3200    1.0000 </r>
       <r>  -13.3183    1.0000 </r>
       <r>   -8.4543    1.0000 </r>
       <r>   -8.1220    1.0000 </r>
       <r>   -8.0445    1.0000 </r>
       <r>   -1.7617    1.0000 </r>
       <r>    3.5222    1.0000 </r>
       <r>    4.2372    1.0000 </r>
       <r>    4.5125    1.0000 </r>
       <r>    5.3362    1.0000 </r>
       <r>    5.5489    1.0000 </r>
       <r>    5.8684    1.0000 </r>
       <r>    7.5374    1.0000 </r>
       <r>    7.9699    1.0000 </r>
       <r>    9.9189    0.0000 </r>
       <r>   11.1486    0.0000 </r>
       <r>   11.3968    0.0000 </r>
       <r>   11.9593    0.0000 </r>
       <r>   11.9919    0.0000 </r>
       <r>   12.1851    0.0000 </r>
      </set>
      <set comment="kpoint 27">
       <r>  -29.9386    1.0000 </r>
       <r>  -13.3855    1.0000 </r>
       <r>  -13.3723    1.0000 </r>
       <r>  -13.3268    1.0000 </r>
       <r>  -13.3202    1.0000 </r>
       <r>  -13.3191    1.0000 </r>
       <r>   -8.4169    1.0000 </r>
       <r>   -8.1372    1.0000 </r>
       <r>   -8.0399    1.0000 </r>
       <r>   -1.8710    1.0000 </r>
       <r>    3.5442    1.0000 </r>
       <r>    4.1500    1.0000 </r>
       <r>    4.7014    1.0000 </r>
       <r>    5.2928    1.0000 </r>
       <r>    5.6956    1.0000 </r>
       <r>    6.0704    1.0000 </r>
       <r>    7.4133    1.0000 </r>
       <r>    7.9758    1.0000 </r>
       <r>    9.8995    0.0000 </r>
       <r>   11.1411    0.0000 </r>
       <r>   11.2252    0.0000 </r>
       <r>   11.9514    0.0000 </r>
       <r>   11.9830    0.0000 </r>
       <r>   12.2322    0.0000 </r>
      </set>
      <set comment="kpoint 28">
       <r>  -29.9407    1.0000 </r>
       <r>  -13.3836    1.0000 </r>
       <r>  -13.3696    1.0000 </r>
       <r>  -13.3259    1.0000 </r>
       <r>  -13.3205    1.0000 </r>
       <r>  -13.3201    1.0000 </r>
       <r>   -8.3611    1.0000 </r>
       <r>   -8.1445    1.0000 </r>
       <r>   -8.0447    1.0000 </r>
       <r>   -2.0688    1.0000 </r>
       <r>    3.6672    1.0000 </r>
       <r>    4.1478    1.0000 </r>
       <r>    4.9055    1.0000 </r>
       <r>    5.2790    1.0000 </r>
       <r>    5.7865    1.0000 </r>
       <r>    6.3751    1.0000 </r>
       <r>    7.2835    1.0000 </r>
       <r>    8.0469    1.0000 </r>
       <r>    9.9053    0.0000 </r>
       <r>   10.8202    0.0000 </r>
       <r>   11.0646    0.0000 </r>
       <r>   11.8685    0.0000 </r>
       <r>   12.0108    0.0000 </r>
       <r>   12.2072    0.0000 </r>
      </set>
      <set comment="kpoint 29">
       <r>  -29.9429    1.0000 </r>
       <r>  -13.3796    1.0000 </r>
       <r>  -13.3678    1.0000 </r>
       <r>  -13.3252    1.0000 </r>
       <r>  -13.3210    1.0000 </r>
       <r>  -13.3208    1.0000 </r>
       <r>   -8.3006    1.0000 </r>
       <r>   -8.1372    1.0000 </r>
       <r>   -8.0577    1.0000 </r>
       <r>   -2.3172    1.0000 </r>
       <r>    3.9142    1.0000 </r>
       <r>    4.2379    1.0000 </r>
       <r>    5.0758    1.0000 </r>
       <r>    5.2500    1.0000 </r>
       <r>    5.7821    1.0000 </r>
       <r>    6.6648    1.0000 </r>
       <r>    7.3514    1.0000 </r>
       <r>    8.1804    1.0000 </r>
       <r>    9.8669    0.0000 </r>
       <r>   10.5216    0.0000 </r>
       <r>   10.6966    0.0000 </r>
       <r>   11.6398    0.0000 </r>
       <r>   12.0421    0.0000 </r>
       <r>   12.0965    0.0000 </r>
      </set>
      <set comment="kpoint 30">
       <r>  -29.9423    1.0000 </r>
       <r>  -13.3785    1.0000 </r>
       <r>  -13.3610    1.0000 </r>
       <r>  -13.3273    1.0000 </r>
       <r>  -13.3196    1.0000 </r>
       <r>  -13.3196    1.0000 </r>
       <r>   -8.2631    1.0000 </r>
       <r>   -8.1301    1.0000 </r>
       <r>   -8.1301    1.0000 </r>
       <r>   -2.3487    1.0000 </r>
       <r>    3.5206    1.0000 </r>
       <r>    5.0777    1.0000 </r>
       <r>    5.0777    1.0000 </r>
       <r>    5.3088    1.0000 </r>
       <r>    5.3152    1.0000 </r>
       <r>    6.8765    1.0000 </r>
       <r>    7.8361    1.0000 </r>
       <r>    7.8361    1.0000 </r>
       <r>    9.3149    1.0000 </r>
       <r>   10.6362    0.0000 </r>
       <r>   11.2563    0.0000 </r>
       <r>   11.2563    0.0000 </r>
       <r>   11.8304    0.0000 </r>
       <r>   12.1269    0.0000 </r>
      </set>
      <set comment="kpoint 31">
       <r>  -29.9405    1.0000 </r>
       <r>  -13.3779    1.0000 </r>
       <r>  -13.3616    1.0000 </r>
       <r>  -13.3284    1.0000 </r>
       <r>  -13.3188    1.0000 </r>
       <r>  -13.3185    1.0000 </r>
       <r>   -8.3125    1.0000 </r>
       <r>   -8.1304    1.0000 </r>
       <r>   -8.1280    1.0000 </r>
       <r>   -2.2212    1.0000 </r>
       <r>    3.4777    1.0000 </r>
       <r>    4.8487    1.0000 </r>
       <r>    4.9987    1.0000 </r>
       <r>    5.3452    1.0000 </r>
       <r>    5.3841    1.0000 </r>
       <r>    6.7002    1.0000 </r>
       <r>    7.6869    1.0000 </r>
       <r>    7.8576    1.0000 </r>
       <r>    9.4747    1.0000 </r>
       <r>   10.7572    0.0000 </r>
       <r>   11.4035    0.0000 </r>
       <r>   11.5425    0.0000 </r>
       <r>   11.7749    0.0000 </r>
       <r>   12.1910    0.0000 </r>
      </set>
      <set comment="kpoint 32">
       <r>  -29.9386    1.0000 </r>
       <r>  -13.3761    1.0000 </r>
       <r>  -13.3649    1.0000 </r>
       <r>  -13.3289    1.0000 </r>
       <r>  -13.3187    1.0000 </r>
       <r>  -13.3176    1.0000 </r>
       <r>   -8.3659    1.0000 </r>
       <r>   -8.1279    1.0000 </r>
       <r>   -8.1205    1.0000 </r>
       <r>   -2.0943    1.0000 </r>
       <r>    3.5732    1.0000 </r>
       <r>    4.5777    1.0000 </r>
       <r>    4.8632    1.0000 </r>
       <r>    5.3557    1.0000 </r>
       <r>    5.4904    1.0000 </r>
       <r>    6.4337    1.0000 </r>
       <r>    7.4724    1.0000 </r>
       <r>    7.9186    1.0000 </r>
       <r>    9.6616    1.0000 </r>
       <r>   10.9803    0.0000 </r>
       <r>   11.5182    0.0000 </r>
       <r>   11.7942    0.0000 </r>
       <r>   11.8026    0.0000 </r>
       <r>   12.2241    0.0000 </r>
      </set>
      <set comment="kpoint 33">
       <r>  -29.9371    1.0000 </r>
       <r>  -13.3737    1.0000 </r>
       <r>  -13.3701    1.0000 </r>
       <r>  -13.3288    1.0000 </r>
       <r>  -13.3192    1.0000 </r>
       <r>  -13.3170    1.0000 </r>
       <r>   -8.4023    1.0000 </r>
       <r>   -8.1400    1.0000 </r>
       <r>   -8.1028    1.0000 </r>
       <r>   -1.9899    1.0000 </r>
       <r>    3.7468    1.0000 </r>
       <r>    4.4039    1.0000 </r>
       <r>    4.6787    1.0000 </r>
       <r>    5.3951    1.0000 </r>
       <r>    5.5328    1.0000 </r>
       <r>    6.1589    1.0000 </r>
       <r>    7.3321    1.0000 </r>
       <r>    7.9450    1.0000 </r>
       <r>    9.7527    1.0000 </r>
       <r>   11.1536    0.0000 </r>
       <r>   11.6026    0.0000 </r>
       <r>   11.8609    0.0000 </r>
       <r>   11.8718    0.0000 </r>
       <r>   12.2405    0.0000 </r>
      </set>
      <set comment="kpoint 34">
       <r>  -29.9362    1.0000 </r>
       <r>  -13.3759    1.0000 </r>
       <r>  -13.3713    1.0000 </r>
       <r>  -13.3279    1.0000 </r>
       <r>  -13.3201    1.0000 </r>
       <r>  -13.3169    1.0000 </r>
       <r>   -8.4155    1.0000 </r>
       <r>   -8.1626    1.0000 </r>
       <r>   -8.0813    1.0000 </r>
       <r>   -1.9133    1.0000 </r>
       <r>    3.8694    1.0000 </r>
       <r>    4.3586    1.0000 </r>
       <r>    4.4721    1.0000 </r>
       <r>    5.4887    1.0000 </r>
       <r>    5.4920    1.0000 </r>
       <r>    6.0066    1.0000 </r>
       <r>    7.2420    1.0000 </r>
       <r>    7.9177    1.0000 </r>
       <r>    9.8877    0.0000 </r>
       <r>   11.0490    0.0000 </r>
       <r>   11.6363    0.0000 </r>
       <r>   11.9089    0.0000 </r>
       <r>   11.9413    0.0000 </r>
       <r>   12.2129    0.0000 </r>
      </set>
      <set comment="kpoint 35">
       <r>  -29.9363    1.0000 </r>
       <r>  -13.3811    1.0000 </r>
       <r>  -13.3695    1.0000 </r>
       <r>  -13.3265    1.0000 </r>
       <r>  -13.3212    1.0000 </r>
       <r>  -13.3174    1.0000 </r>
       <r>   -8.4083    1.0000 </r>
       <r>   -8.1865    1.0000 </r>
       <r>   -8.0606    1.0000 </r>
       <r>   -1.8676    1.0000 </r>
       <r>    3.8281    1.0000 </r>
       <r>    4.2861    1.0000 </r>
       <r>    4.4390    1.0000 </r>
       <r>    5.4094    1.0000 </r>
       <r>    5.6169    1.0000 </r>
       <r>    6.0517    1.0000 </r>
       <r>    7.1490    1.0000 </r>
       <r>    7.8714    1.0000 </r>
       <r>   10.0597    0.0000 </r>
       <r>   10.9519    0.0000 </r>
       <r>   11.5682    0.0000 </r>
       <r>   11.9248    0.0000 </r>
       <r>   11.9955    0.0000 </r>
       <r>   12.1934    0.0000 </r>
      </set>
      <set comment="kpoint 36">
       <r>  -29.9372    1.0000 </r>
       <r>  -13.3845    1.0000 </r>
       <r>  -13.3686    1.0000 </r>
       <r>  -13.3254    1.0000 </r>
       <r>  -13.3217    1.0000 </r>
       <r>  -13.3182    1.0000 </r>
       <r>   -8.3907    1.0000 </r>
       <r>   -8.1974    1.0000 </r>
       <r>   -8.0456    1.0000 </r>
       <r>   -1.8675    1.0000 </r>
       <r>    3.6893    1.0000 </r>
       <r>    4.1558    1.0000 </r>
       <r>    4.5941    1.0000 </r>
       <r>    5.3459    1.0000 </r>
       <r>    5.7374    1.0000 </r>
       <r>    6.2393    1.0000 </r>
       <r>    7.0277    1.0000 </r>
       <r>    7.8598    1.0000 </r>
       <r>   10.1504    0.0000 </r>
       <r>   11.0124    0.0000 </r>
       <r>   11.3660    0.0000 </r>
       <r>   11.9443    0.0000 </r>
       <r>   12.0225    0.0000 </r>
       <r>   12.2009    0.0000 </r>
      </set>
      <set comment="kpoint 37">
       <r>  -29.9388    1.0000 </r>
       <r>  -13.3855    1.0000 </r>
       <r>  -13.3686    1.0000 </r>
       <r>  -13.3256    1.0000 </r>
       <r>  -13.3210    1.0000 </r>
       <r>  -13.3192    1.0000 </r>
       <r>   -8.3747    1.0000 </r>
       <r>   -8.1822    1.0000 </r>
       <r>   -8.0398    1.0000 </r>
       <r>   -1.9339    1.0000 </r>
       <r>    3.6027    1.0000 </r>
       <r>    4.1054    1.0000 </r>
       <r>    4.7818    1.0000 </r>
       <r>    5.2990    1.0000 </r>
       <r>    5.8021    1.0000 </r>
       <r>    6.4115    1.0000 </r>
       <r>    6.9907    1.0000 </r>
       <r>    7.9226    1.0000 </r>
       <r>   10.1169    0.0000 </r>
       <r>   11.0710    0.0000 </r>
       <r>   11.0861    0.0000 </r>
       <r>   11.9738    0.0000 </r>
       <r>   11.9820    0.0000 </r>
       <r>   12.2554    0.0000 </r>
      </set>
      <set comment="kpoint 38">
       <r>  -29.9392    1.0000 </r>
       <r>  -13.3742    1.0000 </r>
       <r>  -13.3592    1.0000 </r>
       <r>  -13.3298    1.0000 </r>
       <r>  -13.3175    1.0000 </r>
       <r>  -13.3175    1.0000 </r>
       <r>   -8.3273    1.0000 </r>
       <r>   -8.1412    1.0000 </r>
       <r>   -8.1412    1.0000 </r>
       <r>   -2.2139    1.0000 </r>
       <r>    3.5402    1.0000 </r>
       <r>    4.9959    1.0000 </r>
       <r>    4.9959    1.0000 </r>
       <r>    5.0940    1.0000 </r>
       <r>    5.3884    1.0000 </r>
       <r>    6.6392    1.0000 </r>
       <r>    7.8981    1.0000 </r>
       <r>    7.8981    1.0000 </r>
       <r>    9.3122    1.0000 </r>
       <r>   10.9837    0.0000 </r>
       <r>   11.5088    0.0000 </r>
       <r>   11.5088    0.0000 </r>
       <r>   11.6588    0.0000 </r>
       <r>   12.2144    0.0000 </r>
      </set>
      <set comment="kpoint 39">
       <r>  -29.9377    1.0000 </r>
       <r>  -13.3700    1.0000 </r>
       <r>  -13.3599    1.0000 </r>
       <r>  -13.3306    1.0000 </r>
       <r>  -13.3170    1.0000 </r>
       <r>  -13.3166    1.0000 </r>
       <r>   -8.3584    1.0000 </r>
       <r>   -8.1475    1.0000 </r>
       <r>   -8.1408    1.0000 </r>
       <r>   -2.1883    1.0000 </r>
       <r>    3.7413    1.0000 </r>
       <r>    4.7363    1.0000 </r>
       <r>    4.9117    1.0000 </r>
       <r>    5.2120    1.0000 </r>
       <r>    5.4190    1.0000 </r>
       <r>    6.4575    1.0000 </r>
       <r>    7.7867    1.0000 </r>
       <r>    7.9780    1.0000 </r>
       <r>    9.4812    1.0000 </r>
       <r>   11.1135    0.0000 </r>
       <r>   11.5837    0.0000 </r>
       <r>   11.6403    0.0000 </r>
       <r>   11.6817    0.0000 </r>
       <r>   12.2396    0.0000 </r>
      </set>
      <set comment="kpoint 40">
       <r>  -29.9364    1.0000 </r>
       <r>  -13.3663    1.0000 </r>
       <r>  -13.3635    1.0000 </r>
       <r>  -13.3306    1.0000 </r>
       <r>  -13.3173    1.0000 </r>
       <r>  -13.3160    1.0000 </r>
       <r>   -8.3783    1.0000 </r>
       <r>   -8.1667    1.0000 </r>
       <r>   -8.1292    1.0000 </r>
       <r>   -2.1468    1.0000 </r>
       <r>    4.0160    1.0000 </r>
       <r>    4.5194    1.0000 </r>
       <r>    4.7662    1.0000 </r>
       <r>    5.3569    1.0000 </r>
       <r>    5.4618    1.0000 </r>
       <r>    6.2261    1.0000 </r>
       <r>    7.4950    1.0000 </r>
       <r>    8.0015    1.0000 </r>
       <r>    9.6544    1.0000 </r>
       <r>   11.2370    0.0000 </r>
       <r>   11.6416    0.0000 </r>
       <r>   11.7476    0.0000 </r>
       <r>   11.8062    0.0000 </r>
       <r>   12.2346    0.0000 </r>
      </set>
      <set comment="kpoint 41">
       <r>  -29.9356    1.0000 </r>
       <r>  -13.3690    1.0000 </r>
       <r>  -13.3640    1.0000 </r>
       <r>  -13.3294    1.0000 </r>
       <r>  -13.3186    1.0000 </r>
       <r>  -13.3159    1.0000 </r>
       <r>   -8.3760    1.0000 </r>
       <r>   -8.2026    1.0000 </r>
       <r>   -8.1090    1.0000 </r>
       <r>   -2.0859    1.0000 </r>
       <r>    4.2196    1.0000 </r>
       <r>    4.4236    1.0000 </r>
       <r>    4.5818    1.0000 </r>
       <r>    5.4423    1.0000 </r>
       <r>    5.5396    1.0000 </r>
       <r>    6.0598    1.0000 </r>
       <r>    7.2004    1.0000 </r>
       <r>    7.9418    1.0000 </r>
       <r>    9.7840    1.0000 </r>
       <r>   11.1585    0.0000 </r>
       <r>   11.6882    0.0000 </r>
       <r>   11.8577    0.0000 </r>
       <r>   11.8746    0.0000 </r>
       <r>   12.2197    0.0000 </r>
      </set>
      <set comment="kpoint 42">
       <r>  -29.9355    1.0000 </r>
       <r>  -13.3753    1.0000 </r>
       <r>  -13.3637    1.0000 </r>
       <r>  -13.3272    1.0000 </r>
       <r>  -13.3206    1.0000 </r>
       <r>  -13.3164    1.0000 </r>
       <r>   -8.3568    1.0000 </r>
       <r>   -8.2433    1.0000 </r>
       <r>   -8.0848    1.0000 </r>
       <r>   -2.0064    1.0000 </r>
       <r>    4.2080    1.0000 </r>
       <r>    4.3959    1.0000 </r>
       <r>    4.4083    1.0000 </r>
       <r>    5.4285    1.0000 </r>
       <r>    5.6368    1.0000 </r>
       <r>    6.1178    1.0000 </r>
       <r>    6.9651    1.0000 </r>
       <r>    7.8541    1.0000 </r>
       <r>    9.9719    0.0000 </r>
       <r>   10.9959    0.0000 </r>
       <r>   11.6897    0.0000 </r>
       <r>   11.8973    0.0000 </r>
       <r>   11.9201    0.0000 </r>
       <r>   12.2085    0.0000 </r>
      </set>
      <set comment="kpoint 43">
       <r>  -29.9361    1.0000 </r>
       <r>  -13.3808    1.0000 </r>
       <r>  -13.3655    1.0000 </r>
       <r>  -13.3250    1.0000 </r>
       <r>  -13.3225    1.0000 </r>
       <r>  -13.3172    1.0000 </r>
       <r>   -8.3576    1.0000 </r>
       <r>   -8.2465    1.0000 </r>
       <r>   -8.0619    1.0000 </r>
       <r>   -1.9234    1.0000 </r>
       <r>    3.9694    1.0000 </r>
       <r>    4.2444    1.0000 </r>
       <r>    4.4675    1.0000 </r>
       <r>    5.3915    1.0000 </r>
       <r>    5.7151    1.0000 </r>
       <r>    6.2839    1.0000 </r>
       <r>    6.8482    1.0000 </r>
       <r>    7.8125    1.0000 </r>
       <r>   10.1647    0.0000 </r>
       <r>   10.9108    0.0000 </r>
       <r>   11.5804    0.0000 </r>
       <r>   11.9213    0.0000 </r>
       <r>   11.9627    0.0000 </r>
       <r>   12.1930    0.0000 </r>
      </set>
      <set comment="kpoint 44">
       <r>  -29.9367    1.0000 </r>
       <r>  -13.3641    1.0000 </r>
       <r>  -13.3577    1.0000 </r>
       <r>  -13.3319    1.0000 </r>
       <r>  -13.3157    1.0000 </r>
       <r>  -13.3157    1.0000 </r>
       <r>   -8.3746    1.0000 </r>
       <r>   -8.1508    1.0000 </r>
       <r>   -8.1508    1.0000 </r>
       <r>   -2.2488    1.0000 </r>
       <r>    4.0209    1.0000 </r>
       <r>    4.8960    1.0000 </r>
       <r>    4.8960    1.0000 </r>
       <r>    4.9013    1.0000 </r>
       <r>    5.4574    1.0000 </r>
       <r>    6.2893    1.0000 </r>
       <r>    8.0959    1.0000 </r>
       <r>    8.0959    1.0000 </r>
       <r>    9.3996    1.0000 </r>
       <r>   11.2592    0.0000 </r>
       <r>   11.5105    0.0000 </r>
       <r>   11.6415    0.0000 </r>
       <r>   11.6415    0.0000 </r>
       <r>   12.1313    0.0000 </r>
      </set>
      <set comment="kpoint 45">
       <r>  -29.9358    1.0000 </r>
       <r>  -13.3598    1.0000 </r>
       <r>  -13.3587    1.0000 </r>
       <r>  -13.3323    1.0000 </r>
       <r>  -13.3155    1.0000 </r>
       <r>  -13.3152    1.0000 </r>
       <r>   -8.3866    1.0000 </r>
       <r>   -8.1627    1.0000 </r>
       <r>   -8.1484    1.0000 </r>
       <r>   -2.2640    1.0000 </r>
       <r>    4.3432    1.0000 </r>
       <r>    4.6541    1.0000 </r>
       <r>    4.8212    1.0000 </r>
       <r>    5.0820    1.0000 </r>
       <r>    5.4897    1.0000 </r>
       <r>    6.0485    1.0000 </r>
       <r>    7.9740    1.0000 </r>
       <r>    8.1491    1.0000 </r>
       <r>    9.5276    1.0000 </r>
       <r>   11.3770    0.0000 </r>
       <r>   11.5374    0.0000 </r>
       <r>   11.6923    0.0000 </r>
       <r>   11.7330    0.0000 </r>
       <r>   12.0818    0.0000 </r>
      </set>
      <set comment="kpoint 46">
       <r>  -29.9352    1.0000 </r>
       <r>  -13.3626    1.0000 </r>
       <r>  -13.3581    1.0000 </r>
       <r>  -13.3315    1.0000 </r>
       <r>  -13.3165    1.0000 </r>
       <r>  -13.3151    1.0000 </r>
       <r>   -8.3778    1.0000 </r>
       <r>   -8.1954    1.0000 </r>
       <r>   -8.1342    1.0000 </r>
       <r>   -2.2262    1.0000 </r>
       <r>    4.4159    1.0000 </r>
       <r>    4.6675    1.0000 </r>
       <r>    4.6944    1.0000 </r>
       <r>    5.2798    1.0000 </r>
       <r>    5.5422    1.0000 </r>
       <r>    5.8492    1.0000 </r>
       <r>    7.5877    1.0000 </r>
       <r>    8.0740    1.0000 </r>
       <r>    9.6488    1.0000 </r>
       <r>   11.3410    0.0000 </r>
       <r>   11.6590    0.0000 </r>
       <r>   11.7844    0.0000 </r>
       <r>   11.7894    0.0000 </r>
       <r>   12.1640    0.0000 </r>
      </set>
      <set comment="kpoint 47">
       <r>  -29.9351    1.0000 </r>
       <r>  -13.3686    1.0000 </r>
       <r>  -13.3595    1.0000 </r>
       <r>  -13.3295    1.0000 </r>
       <r>  -13.3185    1.0000 </r>
       <r>  -13.3156    1.0000 </r>
       <r>   -8.3518    1.0000 </r>
       <r>   -8.2401    1.0000 </r>
       <r>   -8.1113    1.0000 </r>
       <r>   -2.1359    1.0000 </r>
       <r>    4.3423    1.0000 </r>
       <r>    4.5420    1.0000 </r>
       <r>    4.6160    1.0000 </r>
       <r>    5.3959    1.0000 </r>
       <r>    5.6030    1.0000 </r>
       <r>    5.9209    1.0000 </r>
       <r>    7.1784    1.0000 </r>
       <r>    7.9401    1.0000 </r>
       <r>    9.7908    1.0000 </r>
       <r>   11.1716    0.0000 </r>
       <r>   11.7077    0.0000 </r>
       <r>   11.8222    0.0000 </r>
       <r>   11.9053    0.0000 </r>
       <r>   12.1936    0.0000 </r>
      </set>
      <set comment="kpoint 48">
       <r>  -29.9353    1.0000 </r>
       <r>  -13.3568    1.0000 </r>
       <r>  -13.3558    1.0000 </r>
       <r>  -13.3331    1.0000 </r>
       <r>  -13.3146    1.0000 </r>
       <r>  -13.3146    1.0000 </r>
       <r>   -8.3996    1.0000 </r>
       <r>   -8.1563    1.0000 </r>
       <r>   -8.1563    1.0000 </r>
       <r>   -2.3213    1.0000 </r>
       <r>    4.6769    1.0000 </r>
       <r>    4.8033    1.0000 </r>
       <r>    4.8310    1.0000 </r>
       <r>    4.8310    1.0000 </r>
       <r>    5.4977    1.0000 </r>
       <r>    5.8012    1.0000 </r>
       <r>    8.2666    1.0000 </r>
       <r>    8.2666    1.0000 </r>
       <r>    9.4926    1.0000 </r>
       <r>   11.4247    0.0000 </r>
       <r>   11.4945    0.0000 </r>
       <r>   11.7031    0.0000 </r>
       <r>   11.7031    0.0000 </r>
       <r>   11.8130    0.0000 </r>
      </set>
      <set comment="kpoint 49">
       <r>  -29.9351    1.0000 </r>
       <r>  -13.3582    1.0000 </r>
       <r>  -13.3551    1.0000 </r>
       <r>  -13.3328    1.0000 </r>
       <r>  -13.3150    1.0000 </r>
       <r>  -13.3146    1.0000 </r>
       <r>   -8.3960    1.0000 </r>
       <r>   -8.1685    1.0000 </r>
       <r>   -8.1512    1.0000 </r>
       <r>   -2.3086    1.0000 </r>
       <r>    4.5764    1.0000 </r>
       <r>    4.7854    1.0000 </r>
       <r>    4.8527    1.0000 </r>
       <r>    5.0460    1.0000 </r>
       <r>    5.5170    1.0000 </r>
       <r>    5.6770    1.0000 </r>
       <r>    8.0674    1.0000 </r>
       <r>    8.2289    1.0000 </r>
       <r>    9.5505    1.0000 </r>
       <r>   11.5019    0.0000 </r>
       <r>   11.5084    0.0000 </r>
       <r>   11.7256    0.0000 </r>
       <r>   11.7352    0.0000 </r>
       <r>   11.9379    0.0000 </r>
      </set>
      <set comment="kpoint 50">
       <r>  -29.9447    1.0000 </r>
       <r>  -13.3758    1.0000 </r>
       <r>  -13.3651    1.0000 </r>
       <r>  -13.3249    1.0000 </r>
       <r>  -13.3214    1.0000 </r>
       <r>  -13.3212    1.0000 </r>
       <r>   -8.2376    1.0000 </r>
       <r>   -8.1246    1.0000 </r>
       <r>   -8.0875    1.0000 </r>
       <r>   -2.5445    1.0000 </r>
       <r>    3.9788    1.0000 </r>
       <r>    4.6793    1.0000 </r>
       <r>    5.1063    1.0000 </r>
       <r>    5.2754    1.0000 </r>
       <r>    5.6425    1.0000 </r>
       <r>    6.9386    1.0000 </r>
       <r>    7.7110    1.0000 </r>
       <r>    8.1680    1.0000 </r>
       <r>    9.8153    0.8951 </r>
       <r>    9.9656    0.0000 </r>
       <r>   10.7272    0.0000 </r>
       <r>   11.2099    0.0000 </r>
       <r>   11.9268    0.0000 </r>
       <r>   12.0093    0.0000 </r>
      </set>
      <set comment="kpoint 51">
       <r>  -29.9425    1.0000 </r>
       <r>  -13.3798    1.0000 </r>
       <r>  -13.3674    1.0000 </r>
       <r>  -13.3258    1.0000 </r>
       <r>  -13.3207    1.0000 </r>
       <r>  -13.3203    1.0000 </r>
       <r>   -8.3110    1.0000 </r>
       <r>   -8.1267    1.0000 </r>
       <r>   -8.0698    1.0000 </r>
       <r>   -2.2843    1.0000 </r>
       <r>    3.7382    1.0000 </r>
       <r>    4.4486    1.0000 </r>
       <r>    4.9681    1.0000 </r>
       <r>    5.3192    1.0000 </r>
       <r>    5.7104    1.0000 </r>
       <r>    6.5830    1.0000 </r>
       <r>    7.5180    1.0000 </r>
       <r>    8.0796    1.0000 </r>
       <r>    9.7786    1.0000 </r>
       <r>   10.4162    0.0000 </r>
       <r>   11.0088    0.0000 </r>
       <r>   11.6322    0.0000 </r>
       <r>   11.9830    0.0000 </r>
       <r>   12.1319    0.0000 </r>
      </set>
      <set comment="kpoint 52">
       <r>  -29.9402    1.0000 </r>
       <r>  -13.3828    1.0000 </r>
       <r>  -13.3712    1.0000 </r>
       <r>  -13.3268    1.0000 </r>
       <r>  -13.3202    1.0000 </r>
       <r>  -13.3193    1.0000 </r>
       <r>   -8.3857    1.0000 </r>
       <r>   -8.1178    1.0000 </r>
       <r>   -8.0571    1.0000 </r>
       <r>   -2.0251    1.0000 </r>
       <r>    3.5764    1.0000 </r>
       <r>    4.2930    1.0000 </r>
       <r>    4.7932    1.0000 </r>
       <r>    5.3097    1.0000 </r>
       <r>    5.6885    1.0000 </r>
       <r>    6.2072    1.0000 </r>
       <r>    7.5422    1.0000 </r>
       <r>    8.0192    1.0000 </r>
       <r>    9.7337    1.0000 </r>
       <r>   10.8492    0.0000 </r>
       <r>   11.2679    0.0000 </r>
       <r>   11.8720    0.0000 </r>
       <r>   11.9871    0.0000 </r>
       <r>   12.1861    0.0000 </r>
      </set>
      <set comment="kpoint 53">
       <r>  -29.9383    1.0000 </r>
       <r>  -13.3840    1.0000 </r>
[...]
       <r>   10.2567    0.0000 </r>
       <r>   10.7034    0.0000 </r>
       <r>   11.6503    0.0000 </r>
       <r>   11.8201    0.0000 </r>
       <r>   11.9751    0.0000 </r>
       <r>   12.1596    0.0000 </r>
      </set>
      <set comment="kpoint 81">
       <r>  -29.9357    1.0000 </r>
       <r>  -13.3775    1.0000 </r>
       <r>  -13.3619    1.0000 </r>
       <r>  -13.3261    1.0000 </r>
       <r>  -13.3226    1.0000 </r>
       <r>  -13.3158    1.0000 </r>
       <r>   -8.3494    1.0000 </r>
       <r>   -8.2330    1.0000 </r>
       <r>   -8.0986    1.0000 </r>
       <r>   -2.0055    1.0000 </r>
       <r>    4.1060    1.0000 </r>
       <r>    4.2658    1.0000 </r>
       <r>    4.6750    1.0000 </r>
       <r>    5.4091    1.0000 </r>
       <r>    5.6531    1.0000 </r>
       <r>    6.2410    1.0000 </r>
       <r>    6.6064    1.0000 </r>
       <r>    8.0986    1.0000 </r>
       <r>   10.2953    0.0000 </r>
       <r>   10.6834    0.0000 </r>
       <r>   11.6343    0.0000 </r>
       <r>   11.8213    0.0000 </r>
       <r>   11.9888    0.0000 </r>
       <r>   12.1555    0.0000 </r>
      </set>
      <set comment="kpoint 82">
       <r>  -29.9351    1.0000 </r>
       <r>  -13.3689    1.0000 </r>
       <r>  -13.3561    1.0000 </r>
       <r>  -13.3299    1.0000 </r>
       <r>  -13.3192    1.0000 </r>
       <r>  -13.3146    1.0000 </r>
       <r>   -8.3563    1.0000 </r>
       <r>   -8.2009    1.0000 </r>
       <r>   -8.1496    1.0000 </r>
       <r>   -2.1710    1.0000 </r>
       <r>    4.2469    1.0000 </r>
       <r>    4.6689    1.0000 </r>
       <r>    4.8103    1.0000 </r>
       <r>    5.3089    1.0000 </r>
       <r>    5.6275    1.0000 </r>
       <r>    5.8854    1.0000 </r>
       <r>    6.9033    1.0000 </r>
       <r>    8.3274    1.0000 </r>
       <r>    9.9193    0.0000 </r>
       <r>   11.1053    0.0000 </r>
       <r>   11.5501    0.0000 </r>
       <r>   11.7132    0.0000 </r>
       <r>   11.8775    0.0000 </r>
       <r>   12.1806    0.0000 </r>
      </set>
      <set comment="kpoint 83">
       <r>  -29.9349    1.0000 </r>
       <r>  -13.3725    1.0000 </r>
       <r>  -13.3561    1.0000 </r>
       <r>  -13.3281    1.0000 </r>
       <r>  -13.3213    1.0000 </r>
       <r>  -13.3146    1.0000 </r>
       <r>   -8.3322    1.0000 </r>
       <r>   -8.2327    1.0000 </r>
       <r>   -8.1420    1.0000 </r>
       <r>   -2.1252    1.0000 </r>
       <r>    4.1847    1.0000 </r>
       <r>    4.6961    1.0000 </r>
       <r>    4.7666    1.0000 </r>
       <r>    5.3600    1.0000 </r>
       <r>    5.6860    1.0000 </r>
       <r>    5.9379    1.0000 </r>
       <r>    6.5689    1.0000 </r>
       <r>    8.3089    1.0000 </r>
       <r>   10.1072    0.0000 </r>
       <r>   10.9149    0.0000 </r>
       <r>   11.5951    0.0000 </r>
       <r>   11.7288    0.0000 </r>
       <r>   11.9346    0.0000 </r>
       <r>   12.2004    0.0000 </r>
      </set>
      <set comment="kpoint 84">
       <r>  -29.9350    1.0000 </r>
       <r>  -13.3745    1.0000 </r>
       <r>  -13.3562    1.0000 </r>
       <r>  -13.3265    1.0000 </r>
       <r>  -13.3231    1.0000 </r>
       <r>  -13.3145    1.0000 </r>
       <r>   -8.3212    1.0000 </r>
       <r>   -8.2390    1.0000 </r>
       <r>   -8.1447    1.0000 </r>
       <r>   -2.0990    1.0000 </r>
       <r>    4.1466    1.0000 </r>
       <r>    4.6537    1.0000 </r>
       <r>    4.7854    1.0000 </r>
       <r>    5.3674    1.0000 </r>
       <r>    5.7225    1.0000 </r>
       <r>    6.0710    1.0000 </r>
       <r>    6.3112    1.0000 </r>
       <r>    8.3354    1.0000 </r>
       <r>   10.3698    0.0000 </r>
       <r>   10.6565    0.0000 </r>
       <r>   11.5758    0.0000 </r>
       <r>   11.7237    0.0000 </r>
       <r>   11.9808    0.0000 </r>
       <r>   12.1498    0.0000 </r>
      </set>
     </set>
    </set>
   </array>
  </eigenvalues>
  <separator name="orbital magnetization" >
   <v name="MAGDIPOLOUT">      0.00000000      0.00000000      0.00000000</v>
  </separator>
  <dos>
   <i name="efermi">      9.82419870 </i>
   <total>
    <array>
     <dimension dim="1">gridpoints</dimension>
     <dimension dim="2">spin</dimension>
     <field>energy</field>
     <field>total</field>
     <field>integrated</field>
     <set>
      <set comment="spin 1">
       <r>   -32.0586     0.0000     0.0000 </r>
       <r>   -31.9039     0.0000     0.0000 </r>
       <r>   -31.7491     0.0000     0.0000 </r>
       <r>   -31.5944     0.0000     0.0000 </r>
       <r>   -31.4396     0.0000     0.0000 </r>
       <r>   -31.2849     0.0000     0.0000 </r>
       <r>   -31.1301     0.0000     0.0000 </r>
       <r>   -30.9754     0.0000     0.0000 </r>
       <r>   -30.8206     0.0000     0.0000 </r>
       <r>   -30.6659     0.0000     0.0000 </r>
       <r>   -30.5111     0.0000     0.0000 </r>
       <r>   -30.3564     0.0000     0.0000 </r>
       <r>   -30.2016     0.0000     0.0000 </r>
       <r>   -30.0469     0.0000     0.0000 </r>
       <r>   -29.8921    12.9243     2.0000 </r>
       <r>   -29.7374     0.0000     2.0000 </r>
       <r>   -29.5826     0.0000     2.0000 </r>
       <r>   -29.4279     0.0000     2.0000 </r>
       <r>   -29.2732     0.0000     2.0000 </r>
       <r>   -29.1184     0.0000     2.0000 </r>
       <r>   -28.9637     0.0000     2.0000 </r>
       <r>   -28.8089     0.0000     2.0000 </r>
       <r>   -28.6542     0.0000     2.0000 </r>
       <r>   -28.4994     0.0000     2.0000 </r>
       <r>   -28.3447     0.0000     2.0000 </r>
       <r>   -28.1899     0.0000     2.0000 </r>
       <r>   -28.0352     0.0000     2.0000 </r>
       <r>   -27.8804     0.0000     2.0000 </r>
       <r>   -27.7257     0.0000     2.0000 </r>
       <r>   -27.5709     0.0000     2.0000 </r>
       <r>   -27.4162     0.0000     2.0000 </r>
       <r>   -27.2614     0.0000     2.0000 </r>
       <r>   -27.1067     0.0000     2.0000 </r>
       <r>   -26.9519     0.0000     2.0000 </r>
       <r>   -26.7972     0.0000     2.0000 </r>
       <r>   -26.6424     0.0000     2.0000 </r>
       <r>   -26.4877     0.0000     2.0000 </r>
       <r>   -26.3330     0.0000     2.0000 </r>
       <r>   -26.1782     0.0000     2.0000 </r>
       <r>   -26.0235     0.0000     2.0000 </r>
       <r>   -25.8687     0.0000     2.0000 </r>
       <r>   -25.7140     0.0000     2.0000 </r>
       <r>   -25.5592     0.0000     2.0000 </r>
       <r>   -25.4045     0.0000     2.0000 </r>
       <r>   -25.2497     0.0000     2.0000 </r>
       <r>   -25.0950     0.0000     2.0000 </r>
       <r>   -24.9402     0.0000     2.0000 </r>
       <r>   -24.7855     0.0000     2.0000 </r>
       <r>   -24.6307     0.0000     2.0000 </r>
       <r>   -24.4760     0.0000     2.0000 </r>
       <r>   -24.3212     0.0000     2.0000 </r>
       <r>   -24.1665     0.0000     2.0000 </r>
       <r>   -24.0117     0.0000     2.0000 </r>
       <r>   -23.8570     0.0000     2.0000 </r>
       <r>   -23.7022     0.0000     2.0000 </r>
       <r>   -23.5475     0.0000     2.0000 </r>
       <r>   -23.3928     0.0000     2.0000 </r>
       <r>   -23.2380     0.0000     2.0000 </r>
       <r>   -23.0833     0.0000     2.0000 </r>
       <r>   -22.9285     0.0000     2.0000 </r>
       <r>   -22.7738     0.0000     2.0000 </r>
       <r>   -22.6190     0.0000     2.0000 </r>
       <r>   -22.4643     0.0000     2.0000 </r>
       <r>   -22.3095     0.0000     2.0000 </r>
       <r>   -22.1548     0.0000     2.0000 </r>
       <r>   -22.0000     0.0000     2.0000 </r>
       <r>   -21.8453     0.0000     2.0000 </r>
       <r>   -21.6905     0.0000     2.0000 </r>
       <r>   -21.5358     0.0000     2.0000 </r>
       <r>   -21.3810     0.0000     2.0000 </r>
       <r>   -21.2263     0.0000     2.0000 </r>
       <r>   -21.0715     0.0000     2.0000 </r>
       <r>   -20.9168     0.0000     2.0000 </r>
       <r>   -20.7620     0.0000     2.0000 </r>
       <r>   -20.6073     0.0000     2.0000 </r>
       <r>   -20.4526     0.0000     2.0000 </r>
       <r>   -20.2978     0.0000     2.0000 </r>
       <r>   -20.1431     0.0000     2.0000 </r>
       <r>   -19.9883     0.0000     2.0000 </r>
       <r>   -19.8336     0.0000     2.0000 </r>
       <r>   -19.6788     0.0000     2.0000 </r>
       <r>   -19.5241     0.0000     2.0000 </r>
       <r>   -19.3693     0.0000     2.0000 </r>
       <r>   -19.2146     0.0000     2.0000 </r>
       <r>   -19.0598     0.0000     2.0000 </r>
       <r>   -18.9051     0.0000     2.0000 </r>
       <r>   -18.7503     0.0000     2.0000 </r>
       <r>   -18.5956     0.0000     2.0000 </r>
       <r>   -18.4408     0.0000     2.0000 </r>
       <r>   -18.2861     0.0000     2.0000 </r>
       <r>   -18.1313     0.0000     2.0000 </r>
       <r>   -17.9766     0.0000     2.0000 </r>
       <r>   -17.8218     0.0000     2.0000 </r>
       <r>   -17.6671     0.0000     2.0000 </r>
       <r>   -17.5124     0.0000     2.0000 </r>
       <r>   -17.3576     0.0000     2.0000 </r>
       <r>   -17.2029     0.0000     2.0000 </r>
       <r>   -17.0481     0.0000     2.0000 </r>
       <r>   -16.8934     0.0000     2.0000 </r>
       <r>   -16.7386     0.0000     2.0000 </r>
       <r>   -16.5839     0.0000     2.0000 </r>
       <r>   -16.4291     0.0000     2.0000 </r>
       <r>   -16.2744     0.0000     2.0000 </r>
       <r>   -16.1196     0.0000     2.0000 </r>
       <r>   -15.9649     0.0000     2.0000 </r>
       <r>   -15.8101     0.0000     2.0000 </r>
       <r>   -15.6554     0.0000     2.0000 </r>
       <r>   -15.5006     0.0000     2.0000 </r>
       <r>   -15.3459     0.0000     2.0000 </r>
       <r>   -15.1911     0.0000     2.0000 </r>
       <r>   -15.0364     0.0000     2.0000 </r>
       <r>   -14.8816     0.0000     2.0000 </r>
       <r>   -14.7269     0.0000     2.0000 </r>
       <r>   -14.5722     0.0000     2.0000 </r>
       <r>   -14.4174     0.0000     2.0000 </r>
       <r>   -14.2627     0.0000     2.0000 </r>
       <r>   -14.1079     0.0000     2.0000 </r>
       <r>   -13.9532     0.0000     2.0000 </r>
       <r>   -13.7984     0.0000     2.0000 </r>
       <r>   -13.6437     0.0000     2.0000 </r>
       <r>   -13.4889     0.0000     2.0000 </r>
       <r>   -13.3342    28.7480     6.4487 </r>
       <r>   -13.1794     0.0000    12.0000 </r>
       <r>   -13.0247     0.0000    12.0000 </r>
       <r>   -12.8699     0.0000    12.0000 </r>
       <r>   -12.7152     0.0000    12.0000 </r>
       <r>   -12.5604     0.0000    12.0000 </r>
       <r>   -12.4057     0.0000    12.0000 </r>
       <r>   -12.2509     0.0000    12.0000 </r>
       <r>   -12.0962     0.0000    12.0000 </r>
       <r>   -11.9414     0.0000    12.0000 </r>
       <r>   -11.7867     0.0000    12.0000 </r>
       <r>   -11.6320     0.0000    12.0000 </r>
       <r>   -11.4772     0.0000    12.0000 </r>
       <r>   -11.3225     0.0000    12.0000 </r>
       <r>   -11.1677     0.0000    12.0000 </r>
       <r>   -11.0130     0.0000    12.0000 </r>
       <r>   -10.8582     0.0000    12.0000 </r>
       <r>   -10.7035     0.0000    12.0000 </r>
       <r>   -10.5487     0.0000    12.0000 </r>
       <r>   -10.3940     0.0000    12.0000 </r>
       <r>   -10.2392     0.0000    12.0000 </r>
       <r>   -10.0845     0.0000    12.0000 </r>
       <r>    -9.9297     0.0000    12.0000 </r>
       <r>    -9.7750     0.0000    12.0000 </r>
       <r>    -9.6202     0.0000    12.0000 </r>
       <r>    -9.4655     0.0000    12.0000 </r>
       <r>    -9.3107     0.0000    12.0000 </r>
       <r>    -9.1560     0.0000    12.0000 </r>
       <r>    -9.0012     0.0000    12.0000 </r>
       <r>    -8.8465     0.0000    12.0000 </r>
       <r>    -8.6918     0.0000    12.0000 </r>
       <r>    -8.5370     0.0000    12.0000 </r>
       <r>    -8.3823     4.3726    12.8223 </r>
       <r>    -8.2275     2.1075    14.1413 </r>
       <r>    -8.0728    13.8879    17.1732 </r>
       <r>    -7.9180     0.0000    18.0000 </r>
       <r>    -7.7633     0.0000    18.0000 </r>
       <r>    -7.6085     0.0000    18.0000 </r>
       <r>    -7.4538     0.0000    18.0000 </r>
       <r>    -7.2990     0.0000    18.0000 </r>
       <r>    -7.1443     0.0000    18.0000 </r>
       <r>    -6.9895     0.0000    18.0000 </r>
       <r>    -6.8348     0.0000    18.0000 </r>
       <r>    -6.6800     0.0000    18.0000 </r>
       <r>    -6.5253     0.0000    18.0000 </r>
       <r>    -6.3705     0.0000    18.0000 </r>
       <r>    -6.2158     0.0000    18.0000 </r>
       <r>    -6.0610     0.0000    18.0000 </r>
       <r>    -5.9063     0.0000    18.0000 </r>
       <r>    -5.7516     0.0000    18.0000 </r>
       <r>    -5.5968     0.0000    18.0000 </r>
       <r>    -5.4421     0.0000    18.0000 </r>
       <r>    -5.2873     0.0000    18.0000 </r>
       <r>    -5.1326     0.0000    18.0000 </r>
       <r>    -4.9778     0.0000    18.0000 </r>
       <r>    -4.8231     0.0000    18.0000 </r>
       <r>    -4.6683     0.0000    18.0000 </r>
       <r>    -4.5136     0.0000    18.0000 </r>
       <r>    -4.3588     0.0000    18.0000 </r>
       <r>    -4.2041     0.0000    18.0000 </r>
       <r>    -4.0493     0.0000    18.0000 </r>
       <r>    -3.8946     0.0000    18.0000 </r>
       <r>    -3.7398     0.0000    18.0000 </r>
       <r>    -3.5851     0.0000    18.0000 </r>
       <r>    -3.4303     0.0000    18.0000 </r>
       <r>    -3.2756     0.0000    18.0000 </r>
       <r>    -3.1208     0.0000    18.0000 </r>
       <r>    -2.9661     0.0059    18.0009 </r>
       <r>    -2.8114     0.0226    18.0172 </r>
       <r>    -2.6566     0.0472    18.0537 </r>
       <r>    -2.5019     0.2824    18.1029 </r>
       <r>    -2.3471     0.0679    18.1571 </r>
       <r>    -2.1924     1.0541    18.4371 </r>
       <r>    -2.0376     2.0757    18.9885 </r>
       <r>    -1.8829     1.7105    19.5510 </r>
       <r>    -1.7281     0.4447    19.9013 </r>
       <r>    -1.5734     0.1882    20.0000 </r>
       <r>    -1.4186     0.0000    20.0000 </r>
       <r>    -1.2639     0.0000    20.0000 </r>
       <r>    -1.1091     0.0000    20.0000 </r>
       <r>    -0.9544     0.0000    20.0000 </r>
       <r>    -0.7996     0.0000    20.0000 </r>
       <r>    -0.6449     0.0000    20.0000 </r>
       <r>    -0.4901     0.0000    20.0000 </r>
       <r>    -0.3354     0.0000    20.0000 </r>
       <r>    -0.1807     0.0000    20.0000 </r>
       <r>    -0.0259     0.0000    20.0000 </r>
       <r>     0.1288     0.0000    20.0000 </r>
       <r>     0.2836     0.0000    20.0000 </r>
       <r>     0.4383     0.0000    20.0000 </r>
       <r>     0.5931     0.0000    20.0000 </r>
       <r>     0.7478     0.0000    20.0000 </r>
       <r>     0.9026     0.0000    20.0000 </r>
       <r>     1.0573     0.0000    20.0000 </r>
       <r>     1.2121     0.0000    20.0000 </r>
       <r>     1.3668     0.0000    20.0000 </r>
       <r>     1.5216     0.0000    20.0000 </r>
       <r>     1.6763     0.0000    20.0000 </r>
       <r>     1.8311     0.0000    20.0000 </r>
       <r>     1.9858     0.0000    20.0000 </r>
       <r>     2.1406     0.0000    20.0000 </r>
       <r>     2.2953     0.0000    20.0000 </r>
       <r>     2.4501     0.0000    20.0000 </r>
       <r>     2.6048     0.0000    20.0000 </r>
       <r>     2.7595     0.0000    20.0000 </r>
       <r>     2.9143     0.0000    20.0000 </r>
       <r>     3.0690     0.0000    20.0000 </r>
       <r>     3.2238     0.0000    20.0000 </r>
       <r>     3.3785     0.2848    20.0514 </r>
       <r>     3.5333     1.5974    20.3273 </r>
       <r>     3.6880     0.6258    20.7450 </r>
       <r>     3.8428     0.6358    21.1034 </r>
       <r>     3.9975     0.6930    21.2761 </r>
       <r>     4.1523     0.8703    21.5657 </r>
       <r>     4.3070     4.6602    22.6074 </r>
       <r>     4.4618     2.8104    23.4099 </r>
       <r>     4.6165     2.7806    24.2100 </r>
       <r>     4.7713     2.4972    25.0837 </r>
       <r>     4.9260     1.8113    25.6713 </r>
       <r>     5.0808     0.3993    25.9717 </r>
       <r>     5.2355     0.3447    26.1244 </r>
       <r>     5.3903     4.9534    27.4056 </r>
       <r>     5.5450     2.7869    28.7217 </r>
       <r>     5.6997     3.4971    29.7874 </r>
       <r>     5.8545     1.0423    30.2232 </r>
       <r>     6.0092     1.2219    30.5587 </r>
       <r>     6.1640     1.3720    31.0698 </r>
       <r>     6.3187     1.2082    31.4596 </r>
       <r>     6.4735     0.5404    31.6567 </r>
       <r>     6.6282     0.7100    31.8978 </r>
       <r>     6.7830     0.2825    32.0446 </r>
       <r>     6.9377     1.0761    32.2876 </r>
       <r>     7.0925     0.4745    32.5240 </r>
       <r>     7.2472     0.7439    32.7460 </r>
       <r>     7.4020     0.5018    33.1018 </r>
       <r>     7.5567     1.1234    33.3181 </r>
       <r>     7.7115     0.8627    33.5837 </r>
       <r>     7.8662     1.1142    33.8101 </r>
       <r>     8.0210     5.5309    34.9415 </r>
       <r>     8.1757     2.1324    35.6937 </r>
       <r>     8.3305     0.9049    35.9443 </r>
       <r>     8.4852     0.1647    35.9982 </r>
       <r>     8.6399     0.0000    36.0009 </r>
       <r>     8.7947     0.0000    36.0009 </r>
       <r>     8.9494     0.0000    36.0009 </r>
       <r>     9.1042     0.0471    36.0082 </r>
       <r>     9.2589     0.0941    36.0228 </r>
       <r>     9.4137     0.0710    36.0574 </r>
       <r>     9.5684     1.1287    36.3158 </r>
       <r>     9.7232     1.2442    36.5904 </r>
       <r>     9.8779     1.4483    37.1863 </r>
       <r>    10.0327     1.5730    37.6371 </r>
       <r>    10.1874     1.0228    37.9808 </r>
       <r>    10.3422     0.5324    38.1397 </r>
       <r>    10.4969     0.2025    38.2671 </r>
       <r>    10.6517     0.2167    38.3458 </r>
       <r>    10.8064     1.1802    38.6897 </r>
       <r>    10.9612     1.6158    39.2123 </r>
       <r>    11.1159     2.3281    39.8569 </r>
       <r>    11.2707     2.1743    40.4339 </r>
       <r>    11.4254     1.8436    40.9071 </r>
       <r>    11.5801     2.5127    41.4512 </r>
       <r>    11.7349     3.2050    42.6307 </r>
       <r>    11.8896     5.2208    43.8785 </r>
       <r>    12.0444     6.0696    46.0271 </r>
       <r>    12.1991     5.7457    47.1650 </r>
       <r>    12.3539     0.0000    48.0000 </r>
       <r>    12.5086     0.0000    48.0000 </r>
       <r>    12.6634     0.0000    48.0000 </r>
       <r>    12.8181     0.0000    48.0000 </r>
       <r>    12.9729     0.0000    48.0000 </r>
       <r>    13.1276     0.0000    48.0000 </r>
       <r>    13.2824     0.0000    48.0000 </r>
       <r>    13.4371     0.0000    48.0000 </r>
       <r>    13.5919     0.0000    48.0000 </r>
       <r>    13.7466     0.0000    48.0000 </r>
       <r>    13.9014     0.0000    48.0000 </r>
       <r>    14.0561     0.0000    48.0000 </r>
       <r>    14.2109     0.0000    48.0000 </r>
       <r>    14.3656     0.0000    48.0000 </r>
      </set>
     </set>
    </array>
   </total>
  </dos>
 </calculation>
 <structure name="finalpos" >
  <crystal>
   <varray name="basis" >
    <v>       0.00000000       3.30666501       3.30666501 </v>
    <v>       3.30666501       0.00000000       3.30666501 </v>
    <v>       3.30666501       3.30666501       0.00000000 </v>
   </varray>
   <i name="volume">     72.31037179 </i>
   <varray name="rec_basis" >
    <v>      -0.15120975       0.15120975       0.15120975 </v>
    <v>       0.15120975      -0.15120975       0.15120975 </v>
    <v>       0.15120975       0.15120975      -0.15120975 </v>
   </varray>
  </crystal>
  <varray name="positions" >
   <v>       0.25000000       0.25000000       0.25000000 </v>
   <v>       0.75000000       0.75000000       0.75000000 </v>
   <v>       0.00000000       0.00000000       0.00000000 </v>
  </varray>
 </structure>
</modeling>
