 running  128 mpi-ranks, with    1 threads/rank, on    1 nodes
 distrk:  each k-point on   32 cores,    4 groups
 distr:  one band on   16 cores,    2 groups
 vasp.6.4.3 19Mar24 (build Jun  3 2025 16:21:13) complex                         
 POSCAR found type information on POSCAR NiO 
 POSCAR found :  2 types and       2 ions
 Reading from existing POTCAR
 scaLAPACK will be used
 Reading from existing POTCAR
 LDA part: xc-table for (Slater+PW92), standard interpolation
 -----------------------------------------------------------------------------
|                                                                             |
|           W    W    AA    RRRRR   N    N  II  N    N   GGGG   !!!           |
|           W    W   A  A   R    R  NN   N  II  NN   N  G    G  !!!           |
|           W    W  A    A  R    R  N N  N  II  N N  N  G       !!!           |
|           W WW W  AAAAAA  RRRRR   N  N N  II  N  N N  G  GGG   !            |
|           WW  WW  A    A  R   R   N   NN  II  N   NN  G    G                |
|           W    W  A    A  R    R  N    N  II  N    N   GGGG   !!!           |
|                                                                             |
|     The requested file  could not be found or opened for reading            |
|     k-point information. Automatic k-point generation is used as a          |
|     fallback, which may lead to unwanted results.                           |
|                                                                             |
 -----------------------------------------------------------------------------

 INCAR ok, starting setup
 POSCAR ok, starting setup
 FFT: planning ... GRIDC
 FFT: planning ... GRID_SOFT
 FFT: planning ... GRID
 WAVECAR not read
 entering main loop
       N       E                     dE             d eps       ncg     rms          rms(c)
DAV:   1     0.107147936007E+03    0.10715E+03   -0.61983E+03 28328   0.637E+02
DAV:   2     0.315989771721E+00   -0.10683E+03   -0.94264E+02 25904   0.185E+02
DAV:   3    -0.705678297952E+01   -0.73728E+01   -0.71496E+01 30920   0.433E+01
DAV:   4    -0.711680578217E+01   -0.60023E-01   -0.60003E-01 28856   0.392E+00
DAV:   5    -0.711691671295E+01   -0.11093E-03   -0.11098E-03 29960   0.164E-01    0.229E+01
DAV:   6    -0.115451031205E+02   -0.44282E+01   -0.28625E+01 28576   0.540E+01    0.234E+01
DAV:   7    -0.882741599900E+01    0.27177E+01   -0.53379E+00 28408   0.336E+01    0.904E+00
DAV:   8    -0.989693009866E+01   -0.10695E+01   -0.73987E-01 27784   0.913E+00    0.644E+00
DAV:   9    -0.100985175123E+02   -0.20159E+00   -0.11612E-01 28112   0.756E+00    0.265E+00
DAV:  10    -0.101308177697E+02   -0.32300E-01   -0.54541E-02 29392   0.462E+00    0.658E-01
DAV:  11    -0.101311012755E+02   -0.28351E-03   -0.17577E-02 28296   0.869E-01    0.373E-01
DAV:  12    -0.101316220913E+02   -0.52082E-03   -0.85999E-04 29808   0.325E-01    0.153E-01
DAV:  13    -0.101317204368E+02   -0.98346E-04   -0.23436E-04 29728   0.180E-01    0.760E-02
DAV:  14    -0.101317252494E+02   -0.48126E-05   -0.51748E-05 30336   0.724E-02    0.378E-02
DAV:  15    -0.101317328952E+02   -0.76458E-05   -0.62080E-06 29704   0.449E-02    0.244E-02
DAV:  16    -0.101317364376E+02   -0.35425E-05   -0.24227E-06 30384   0.568E-02    0.746E-03
DAV:  17    -0.101317366743E+02   -0.23670E-06   -0.91931E-07 30696   0.123E-02    0.323E-03
DAV:  18    -0.101317369133E+02   -0.23899E-06   -0.23482E-07 31024   0.930E-03    0.210E-03
DAV:  19    -0.101317369297E+02   -0.16338E-07   -0.14999E-07 25856   0.301E-03
   1 F= -.10131737E+02 E0= -.10131737E+02  d E =0.000000E+00  mag=     2.0000
 PROFILE, used timers:     427
