unknown system                          
            1
     0.000000    2.118290    2.118290
     2.118290    0.000000    2.118290
     2.118290    2.118290    0.000000
   Ni   O 
     1     1
Direct configuration=     1
   0.00000000  0.00000000  0.00000000
   0.50000000  0.50000000  0.50000000
