 running  128 mpi-ranks, with    1 threads/rank, on    1 nodes
 distrk:  each k-point on   32 cores,    4 groups
 distr:  one band on   16 cores,    2 groups
 vasp.6.4.3 19Mar24 (build Jun  3 2025 16:21:13) complex                         
 POSCAR found type information on POSCAR NaCl
 POSCAR found :  2 types and       2 ions
 Reading from existing POTCAR
 scaLAPACK will be used
 Reading from existing POTCAR
 LDA part: xc-table for (Slater+PW92), standard interpolation
 -----------------------------------------------------------------------------
|                                                                             |
|           W    W    AA    RRRRR   N    N  II  N    N   GGGG   !!!           |
|           W    W   A  A   R    R  NN   N  II  NN   N  G    G  !!!           |
|           W    W  A    A  R    R  N N  N  II  N N  N  G       !!!           |
|           W WW W  AAAAAA  RRRRR   N  N N  II  N  N N  G  GGG   !            |
|           WW  WW  A    A  R   R   N   NN  II  N   NN  G    G                |
|           W    W  A    A  R    R  N    N  II  N    N   GGGG   !!!           |
|                                                                             |
|     The requested file  could not be found or opened for reading            |
|     k-point information. Automatic k-point generation is used as a          |
|     fallback, which may lead to unwanted results.                           |
|                                                                             |
 -----------------------------------------------------------------------------
  Inconsistent Bravais

 INCAR ok, starting setup
 POSCAR ok, starting setup
 FFT: planning ... GRIDC
 FFT: planning ... GRID_SOFT
 FFT: planning ... GRID
 WAVECAR not read
 entering main loop
       N       E                     dE             d eps       ncg     rms          rms(c)
DAV:   1     0.124106369358E+03    0.12411E+03   -0.50779E+03  3120   0.438E+02
DAV:   2     0.238374402091E+01   -0.12172E+03   -0.10899E+03  3152   0.186E+02
DAV:   3    -0.685164980224E+01   -0.92354E+01   -0.91165E+01  3752   0.400E+01
DAV:   4    -0.696923289741E+01   -0.11758E+00   -0.11753E+00  3592   0.446E+00
DAV:   5    -0.696996985133E+01   -0.73695E-03   -0.73694E-03  3704   0.378E-01    0.215E+00
DAV:   6    -0.677838978688E+01    0.19158E+00   -0.13430E-01  3928   0.144E+00    0.154E+00
Sub-Space-Matrix
