   2   2   0   0
  0.1621327E+02  0.3579358E-09  0.3579358E-09  0.3579358E-09  0.0000000E+00
  1.000000000000000E-004
  CAR 
 unknown system                          
     15.34963163    -10.72117258  301      4.40532528      1.00000000
    -10.721  0.0000E+00  0.0000E+00
    -10.634  0.0000E+00  0.0000E+00
    -10.547  0.0000E+00  0.0000E+00
    -10.460  0.0000E+00  0.0000E+00
    -10.374  0.0000E+00  0.0000E+00
    -10.287  0.0000E+00  0.0000E+00
    -10.200  0.0000E+00  0.0000E+00
    -10.113  0.0000E+00  0.0000E+00
    -10.026  0.0000E+00  0.0000E+00
     -9.939  0.0000E+00  0.0000E+00
     -9.852  0.0000E+00  0.0000E+00
     -9.765  0.0000E+00  0.0000E+00
     -9.678  0.0000E+00  0.0000E+00
     -9.591  0.0000E+00  0.0000E+00
     -9.505  0.5319E-01  0.7204E-03
     -9.418  0.1020E+00  0.7573E-02
     -9.331  0.1412E+00  0.1832E-01
     -9.244  0.1716E+00  0.3183E-01
     -9.157  0.1959E+00  0.4787E-01
     -9.070  0.2217E+00  0.6598E-01
     -8.983  0.2420E+00  0.8617E-01
     -8.896  0.2641E+00  0.1082E+00
     -8.809  0.2848E+00  0.1321E+00
     -8.722  0.3041E+00  0.1576E+00
     -8.636  0.3252E+00  0.1850E+00
     -8.549  0.3441E+00  0.2141E+00
     -8.462  0.3639E+00  0.2448E+00
     -8.375  0.3850E+00  0.2774E+00
     -8.288  0.4052E+00  0.3117E+00
     -8.201  0.4264E+00  0.3478E+00
     -8.114  0.4490E+00  0.3858E+00
     -8.027  0.4725E+00  0.4259E+00
     -7.940  0.4976E+00  0.4680E+00
     -7.853  0.5247E+00  0.5124E+00
     -7.766  0.5542E+00  0.5593E+00
     -7.680  0.5882E+00  0.6089E+00
     -7.593  0.6271E+00  0.6617E+00
     -7.506  0.6722E+00  0.7181E+00
     -7.419  0.7306E+00  0.7789E+00
     -7.332  0.8156E+00  0.8458E+00
     -7.245  0.1082E+01  0.9239E+00
     -7.158  0.9909E+00  0.1011E+01
     -7.071  0.9877E+00  0.1098E+01
     -6.984  0.9604E+00  0.1183E+01
     -6.897  0.9573E+00  0.1266E+01
     -6.811  0.9438E+00  0.1349E+01
     -6.724  0.9322E+00  0.1431E+01
     -6.637  0.9254E+00  0.1511E+01
     -6.550  0.9277E+00  0.1592E+01
     -6.463  0.9322E+00  0.1672E+01
     -6.376  0.9684E+00  0.1755E+01
     -6.289  0.1038E+01  0.1841E+01
     -6.202  0.1407E+01  0.1945E+01
     -6.115  0.4216E-01  0.2000E+01
     -6.028  0.0000E+00  0.2000E+01
     -5.942  0.0000E+00  0.2000E+01
     -5.855  0.0000E+00  0.2000E+01
     -5.768  0.0000E+00  0.2000E+01
     -5.681  0.0000E+00  0.2000E+01
     -5.594  0.0000E+00  0.2000E+01
     -5.507  0.0000E+00  0.2000E+01
     -5.420  0.0000E+00  0.2000E+01
     -5.333  0.0000E+00  0.2000E+01
     -5.246  0.0000E+00  0.2000E+01
     -5.159  0.0000E+00  0.2000E+01
     -5.072  0.0000E+00  0.2000E+01
     -4.986  0.0000E+00  0.2000E+01
     -4.899  0.0000E+00  0.2000E+01
     -4.812  0.0000E+00  0.2000E+01
     -4.725  0.0000E+00  0.2000E+01
     -4.638  0.0000E+00  0.2000E+01
     -4.551  0.0000E+00  0.2000E+01
     -4.464  0.0000E+00  0.2000E+01
     -4.377  0.0000E+00  0.2000E+01
     -4.290  0.0000E+00  0.2000E+01
     -4.203  0.0000E+00  0.2000E+01
     -4.117  0.0000E+00  0.2000E+01
     -4.030  0.0000E+00  0.2000E+01
     -3.943  0.0000E+00  0.2000E+01
     -3.856  0.0000E+00  0.2000E+01
     -3.769  0.0000E+00  0.2000E+01
     -3.682  0.0000E+00  0.2000E+01
     -3.595  0.0000E+00  0.2000E+01
     -3.508  0.0000E+00  0.2000E+01
     -3.421  0.0000E+00  0.2000E+01
     -3.334  0.0000E+00  0.2000E+01
     -3.248  0.0000E+00  0.2000E+01
     -3.161  0.3587E+00  0.2014E+01
     -3.074  0.7149E+00  0.2061E+01
     -2.987  0.1123E+01  0.2138E+01
     -2.900  0.1867E+01  0.2263E+01
     -2.813  0.2901E+01  0.2470E+01
     -2.726  0.1526E+01  0.2647E+01
     -2.639  0.1145E+01  0.2761E+01
     -2.552  0.9481E+00  0.2851E+01
     -2.465  0.8234E+00  0.2928E+01
     -2.379  0.7139E+00  0.2995E+01
     -2.292  0.6520E+00  0.3054E+01
     -2.205  0.5978E+00  0.3108E+01
     -2.118  0.5434E+00  0.3158E+01
     -2.031  0.5012E+00  0.3203E+01
     -1.944  0.4714E+00  0.3245E+01
     -1.857  0.4411E+00  0.3285E+01
     -1.770  0.4092E+00  0.3322E+01
     -1.683  0.3832E+00  0.3356E+01
     -1.596  0.3651E+00  0.3388E+01
     -1.509  0.3474E+00  0.3419E+01
     -1.423  0.3284E+00  0.3449E+01
     -1.336  0.3088E+00  0.3476E+01
     -1.249  0.2911E+00  0.3502E+01
     -1.162  0.2797E+00  0.3527E+01
     -1.075  0.2680E+00  0.3551E+01
     -0.988  0.2552E+00  0.3574E+01
     -0.901  0.2422E+00  0.3595E+01
     -0.814  0.2269E+00  0.3616E+01
     -0.727  0.2185E+00  0.3635E+01
     -0.640  0.2102E+00  0.3654E+01
     -0.554  0.4131E+00  0.3679E+01
     -0.467  0.6223E+00  0.3726E+01
     -0.380  0.8309E+00  0.3788E+01
     -0.293  0.1132E+01  0.3874E+01
     -0.206  0.1102E+01  0.3972E+01
     -0.119  0.1021E+01  0.4065E+01
     -0.032  0.9581E+00  0.4150E+01
      0.055  0.9274E+00  0.4233E+01
      0.142  0.9006E+00  0.4312E+01
      0.229  0.8912E+00  0.4390E+01
      0.315  0.9639E+00  0.4469E+01
      0.402  0.9491E+00  0.4550E+01
      0.489  0.9536E+00  0.4633E+01
      0.576  0.9825E+00  0.4718E+01
      0.663  0.1028E+01  0.4805E+01
      0.750  0.1085E+01  0.4897E+01
      0.837  0.1113E+01  0.4993E+01
      0.924  0.1223E+01  0.5094E+01
      1.011  0.1434E+01  0.5209E+01
      1.098  0.1404E+01  0.5330E+01
      1.184  0.1361E+01  0.5450E+01
      1.271  0.1345E+01  0.5568E+01
      1.358  0.1320E+01  0.5684E+01
      1.445  0.1306E+01  0.5797E+01
      1.532  0.1292E+01  0.5910E+01
      1.619  0.1267E+01  0.6022E+01
      1.706  0.1254E+01  0.6131E+01
      1.793  0.1235E+01  0.6239E+01
      1.880  0.1216E+01  0.6346E+01
      1.967  0.1202E+01  0.6451E+01
      2.054  0.1188E+01  0.6555E+01
      2.140  0.1166E+01  0.6657E+01
      2.227  0.1148E+01  0.6757E+01
      2.314  0.1137E+01  0.6857E+01
      2.401  0.1124E+01  0.6955E+01
      2.488  0.1111E+01  0.7052E+01
      2.575  0.1097E+01  0.7148E+01
      2.662  0.1092E+01  0.7243E+01
      2.749  0.1072E+01  0.7337E+01
      2.836  0.1028E+01  0.7429E+01
      2.923  0.7981E+00  0.7507E+01
      3.009  0.6932E+00  0.7571E+01
      3.096  0.6180E+00  0.7628E+01
      3.183  0.5498E+00  0.7679E+01
      3.270  0.4977E+00  0.7724E+01
      3.357  0.4516E+00  0.7766E+01
      3.444  0.4057E+00  0.7803E+01
      3.531  0.3628E+00  0.7836E+01
      3.618  0.3244E+00  0.7866E+01
      3.705  0.2883E+00  0.7892E+01
      3.792  0.2568E+00  0.7916E+01
      3.878  0.2218E+00  0.7937E+01
      3.965  0.1887E+00  0.7955E+01
      4.052  0.1670E+00  0.7970E+01
      4.139  0.1295E+00  0.7983E+01
      4.226  0.9058E-01  0.7993E+01
      4.313  0.5067E-01  0.7999E+01
      4.400  0.0000E+00  0.8000E+01
      4.487  0.0000E+00  0.8000E+01
      4.574  0.0000E+00  0.8000E+01
      4.661  0.0000E+00  0.8000E+01
      4.748  0.0000E+00  0.8000E+01
      4.834  0.0000E+00  0.8000E+01
      4.921  0.0000E+00  0.8000E+01
      5.008  0.0000E+00  0.8000E+01
      5.095  0.0000E+00  0.8000E+01
      5.182  0.0000E+00  0.8000E+01
      5.269  0.0000E+00  0.8000E+01
      5.356  0.0000E+00  0.8000E+01
      5.443  0.0000E+00  0.8000E+01
      5.530  0.0000E+00  0.8000E+01
      5.617  0.0000E+00  0.8000E+01
      5.703  0.0000E+00  0.8000E+01
      5.790  0.5142E-01  0.8001E+01
      5.877  0.1341E+00  0.8010E+01
      5.964  0.2001E+00  0.8024E+01
      6.051  0.2578E+00  0.8044E+01
      6.138  0.3331E+00  0.8070E+01
      6.225  0.4101E+00  0.8102E+01
      6.312  0.5165E+00  0.8142E+01
      6.399  0.5984E+00  0.8191E+01
      6.486  0.6801E+00  0.8246E+01
      6.572  0.7715E+00  0.8309E+01
      6.659  0.8687E+00  0.8381E+01
      6.746  0.9693E+00  0.8461E+01
      6.833  0.1082E+01  0.8549E+01
      6.920  0.1230E+01  0.8650E+01
      7.007  0.1422E+01  0.8764E+01
      7.094  0.1978E+01  0.8907E+01
      7.181  0.2226E+01  0.9102E+01
      7.268  0.1544E+01  0.9252E+01
      7.355  0.1438E+01  0.9382E+01
      7.441  0.1355E+01  0.9504E+01
      7.528  0.1385E+01  0.9619E+01
      7.615  0.1250E+01  0.9732E+01
      7.702  0.1075E+01  0.9834E+01
      7.789  0.9572E+00  0.9921E+01
      7.876  0.9661E+00  0.1000E+02
      7.963  0.8765E+00  0.1009E+02
      8.050  0.9049E+00  0.1016E+02
      8.137  0.8586E+00  0.1024E+02
      8.224  0.9000E+00  0.1031E+02
      8.311  0.9656E+00  0.1040E+02
      8.397  0.1013E+01  0.1048E+02
      8.484  0.1137E+01  0.1058E+02
      8.571  0.1546E+01  0.1069E+02
      8.658  0.1306E+01  0.1082E+02
      8.745  0.1593E+01  0.1093E+02
      8.832  0.2123E+01  0.1110E+02
      8.919  0.1944E+01  0.1129E+02
      9.006  0.1450E+01  0.1142E+02
      9.093  0.1372E+01  0.1155E+02
      9.180  0.1331E+01  0.1166E+02
      9.266  0.1441E+01  0.1178E+02
      9.353  0.1204E+01  0.1190E+02
      9.440  0.1118E+01  0.1200E+02
      9.527  0.1074E+01  0.1209E+02
      9.614  0.1033E+01  0.1218E+02
      9.701  0.9851E+00  0.1227E+02
      9.788  0.9278E+00  0.1236E+02
      9.875  0.1026E+01  0.1244E+02
      9.962  0.1132E+01  0.1253E+02
     10.049  0.1227E+01  0.1264E+02
     10.135  0.1474E+01  0.1275E+02
     10.222  0.1408E+01  0.1288E+02
     10.309  0.1446E+01  0.1300E+02
     10.396  0.1371E+01  0.1313E+02
     10.483  0.1345E+01  0.1324E+02
     10.570  0.1351E+01  0.1336E+02
     10.657  0.1259E+01  0.1348E+02
     10.744  0.1243E+01  0.1359E+02
     10.831  0.1180E+01  0.1369E+02
     10.918  0.1103E+01  0.1379E+02
     11.004  0.1141E+01  0.1389E+02
     11.091  0.9599E+00  0.1398E+02
     11.178  0.8274E+00  0.1406E+02
     11.265  0.8216E+00  0.1413E+02
     11.352  0.7985E+00  0.1420E+02
     11.439  0.7893E+00  0.1427E+02
     11.526  0.7896E+00  0.1434E+02
     11.613  0.8097E+00  0.1441E+02
     11.700  0.8646E+00  0.1448E+02
     11.787  0.9064E+00  0.1456E+02
     11.874  0.9471E+00  0.1464E+02
     11.960  0.1017E+01  0.1472E+02
     12.047  0.1114E+01  0.1481E+02
     12.134  0.1333E+01  0.1492E+02
     12.221  0.1664E+01  0.1505E+02
     12.308  0.1341E+01  0.1519E+02
     12.395  0.1022E+01  0.1529E+02
     12.482  0.9698E+00  0.1538E+02
     12.569  0.9000E+00  0.1546E+02
     12.656  0.8155E+00  0.1554E+02
     12.743  0.8290E+00  0.1561E+02
     12.829  0.8149E+00  0.1568E+02
     12.916  0.4167E+00  0.1572E+02
     13.003  0.3912E+00  0.1576E+02
     13.090  0.3626E+00  0.1579E+02
     13.177  0.3346E+00  0.1582E+02
     13.264  0.3049E+00  0.1585E+02
     13.351  0.2751E+00  0.1587E+02
     13.438  0.2494E+00  0.1590E+02
     13.525  0.2275E+00  0.1592E+02
     13.612  0.2065E+00  0.1594E+02
     13.698  0.1865E+00  0.1595E+02
     13.785  0.1529E+00  0.1597E+02
     13.872  0.1221E+00  0.1598E+02
     13.959  0.9604E-01  0.1599E+02
     14.046  0.7930E-01  0.1600E+02
     14.133  0.5938E-02  0.1600E+02
     14.220  0.0000E+00  0.1600E+02
     14.307  0.0000E+00  0.1600E+02
     14.394  0.0000E+00  0.1600E+02
     14.481  0.0000E+00  0.1600E+02
     14.568  0.0000E+00  0.1600E+02
     14.654  0.0000E+00  0.1600E+02
     14.741  0.0000E+00  0.1600E+02
     14.828  0.0000E+00  0.1600E+02
     14.915  0.0000E+00  0.1600E+02
     15.002  0.0000E+00  0.1600E+02
     15.089  0.0000E+00  0.1600E+02
     15.176  0.0000E+00  0.1600E+02
     15.263  0.0000E+00  0.1600E+02
     15.350  0.0000E+00  0.1600E+02
