    2    2    1    1
  0.1621327E+02  0.3579358E-09  0.3579358E-09  0.3579358E-09  0.0000000E+00
  1.000000000000000E-004
  CAR 
 unknown system                          
      8    328      8
 
  0.0000000E+00  0.0000000E+00  0.0000000E+00  0.9391435E-04
    1       -9.536136   1.000000
    2        4.387731   1.000000
    3        4.387731   1.000000
    4        4.387732   1.000000
    5        7.020889   0.000000
    6        7.457555   0.000000
    7        7.457555   0.000000
    8        7.457555   0.000000
 
  0.4545455E-01  0.0000000E+00  0.0000000E+00  0.7513148E-03
    1       -9.507354   1.000000
    2        4.026806   1.000000
    3        4.331340   1.000000
    4        4.331340   1.000000
    5        7.102060   0.000000
    6        7.532396   0.000000
    7        7.532396   0.000000
    8        7.677413   0.000000
 
  0.9090909E-01  0.0000000E+00  0.0000000E+00  0.7513148E-03
    1       -9.421321   1.000000
    2        3.232447   1.000000
    3        4.180939   1.000000
    4        4.180939   1.000000
    5        7.066431   0.000000
    6        7.733548   0.000000
    7        7.733549   0.000000
    8        8.337368   0.000000
 
  0.1363636E+00  0.0000000E+00  0.0000000E+00  0.7513148E-03
    1       -9.279286   1.000000
    2        2.299674   1.000000
    3        3.975863   1.000000
    4        3.975863   1.000000
    5        6.946009   0.000000
    6        8.007914   0.000000
    7        8.007914   0.000000
    8        9.135670   0.000000
 
  0.1818182E+00  0.0000000E+00  0.0000000E+00  0.7513148E-03
    1       -9.083466   1.000000
    2        1.338659   1.000000
    3        3.751790   1.000000
    4        3.751790   1.000000
    5        6.797734   0.000000
    6        8.298374   0.000000
    7        8.298374   0.000000
    8        9.937747   0.000000
 
  0.2272727E+00  0.0000000E+00  0.0000000E+00  0.7513148E-03
    1       -8.837737   1.000000
    2        0.395337   1.000000
    3        3.532947   1.000000
    4        3.532947   1.000000
    5        6.645904   0.000000
    6        8.556314   0.000000
    7        8.556314   0.000000
    8       10.702654   0.000000
 
  0.2727273E+00  0.0000000E+00  0.0000000E+00  0.7513148E-03
    1       -8.548551   1.000000
    2       -0.503257   1.000000
    3        3.334149   1.000000
    4        3.334149   1.000000
    5        6.504552   0.000000
    6        8.749304   0.000000
    7        8.749305   0.000000
    8       11.404192   0.000000
 
  0.3181818E+00  0.0000000E+00  0.0000000E+00  0.7513148E-03
    1       -8.226890   1.000000
    2       -1.334308   1.000000
    3        3.164257   1.000000
    4        3.164257   1.000000
    5        6.382193   0.000000
    6        8.867947   0.000000
    7        8.867947   0.000000
    8       12.001849   0.000000
 
  0.3636364E+00  0.0000000E+00  0.0000000E+00  0.7513148E-03
    1       -7.892013   1.000000
    2       -2.071292   1.000000
    3        3.028469   1.000000
    4        3.028469   1.000000
    5        6.283773   0.000000
    6        8.924368   0.000000
    7        8.924368   0.000000
    8       12.437176   0.000000
 
  0.4090909E+00  0.0000000E+00  0.0000000E+00  0.7513148E-03
    1       -7.577854   1.000000
    2       -2.675514   1.000000
    3        2.929834   1.000000
    4        2.929834   1.000000
    5        6.212079   0.000000
    6        8.941692   0.000000
    7        8.941692   0.000000
    8       12.682914   0.000000
 
  0.4545455E+00  0.0000000E+00  0.0000000E+00  0.7513148E-03
    1       -7.340369   1.000000
    2       -3.088142   1.000000
    3        2.870065   1.000000
    4        2.870065   1.000000
    5        6.168606   0.000000
    6        8.942205   0.000000
    7        8.942205   0.000000
    8       12.786285   0.000000
 
  0.5000000E+00  0.0000000E+00  0.0000000E+00  0.3756574E-03
    1       -7.249171   1.000000
    2       -3.237843   1.000000
    3        2.850070   1.000000
    4        2.850070   1.000000
    5        6.154054   0.000000
    6        8.940717   0.000000
    7        8.940717   0.000000
    8       12.812346   0.000000
 
  0.4545455E-01  0.4545455E-01  0.0000000E+00  0.5634861E-03
    1       -9.497743   1.000000
    2        4.086083   1.000000
    3        4.218850   1.000000
    4        4.218850   1.000000
    5        7.160163   0.000000
    6        7.505690   0.000000
    7        7.668510   0.000000
    8        7.668510   0.000000
 
  0.9090909E-01  0.4545455E-01  0.0000000E+00  0.2253944E-02
    1       -9.430754   1.000000
    2        3.459223   1.000000
    3        4.029462   1.000000
    4        4.151899   1.000000
    5        7.177301   0.000000
    6        7.555067   0.000000
    7        7.915514   0.000000
    8        8.185434   0.000000
 
  0.1363636E+00  0.4545455E-01  0.0000000E+00  0.2253944E-02
    1       -9.307326   1.000000
    2        2.582415   1.000000
    3        3.803186   1.000000
    4        4.017091   1.000000
    5        7.136606   0.000000
    6        7.673544   0.000000
    7        8.220769   0.000000
    8        8.937443   0.000000
 
  0.1818182E+00  0.4545455E-01  0.0000000E+00  0.2253944E-02
    1       -9.129275   1.000000
    2        1.641706   1.000000
    3        3.571383   1.000000
    4        3.819165   1.000000
    5        7.024030   0.000000
    6        7.912684   0.000000
    7        8.531989   0.000000
    8        9.704413   0.000000
 
  0.2272727E+00  0.4545455E-01  0.0000000E+00  0.2253944E-02
    1       -8.899896   1.000000
    2        0.700461   1.000000
    3        3.354389   1.000000
    4        3.595822   1.000000
    5        6.883155   0.000000
    6        8.188087   0.000000
    7        8.803393   0.000000
    8       10.430156   0.000000
 
  0.2727273E+00  0.4545455E-01  0.0000000E+00  0.2253944E-02
    1       -8.624591   1.000000
    2       -0.207787   1.000000
    3        3.164620   1.000000
    4        3.373058   1.000000
    5        6.741849   0.000000
    6        8.433682   0.000000
    7        9.001843   0.000000
    8       11.096208   0.000000
 
  0.3181818E+00  0.4545455E-01  0.0000000E+00  0.2253944E-02
    1       -8.312571   1.000000
    2       -1.058444   1.000000
    3        3.009432   1.000000
    4        3.166742   1.000000
    5        6.614086   0.000000
    6        8.615624   0.000000
    7        9.114949   0.000000
    8       11.690763   0.000000
 
  0.3636364E+00  0.4545455E-01  0.0000000E+00  0.2253944E-02
    1       -7.979751   1.000000
    2       -1.826274   1.000000
    3        2.892996   1.000000
    4        2.986399   1.000000
    5        6.507364   0.000000
    6        8.731573   0.000000
    7        9.152753   0.000000
    8       12.187153   0.000000
 
  0.4090909E+00  0.4545455E-01  0.0000000E+00  0.2253944E-02
    1       -7.654279   1.000000
    2       -2.477241   1.000000
    3        2.817535   1.000000
    4        2.837968   1.000000
    5        6.425851   0.000000
    6        8.800597   0.000000
    7        9.139017   0.000000
    8       12.543393   0.000000
 
  0.4545455E+00  0.4545455E-01  0.0000000E+00  0.2253944E-02
    1       -7.384231   1.000000
    2       -2.959540   1.000000
    3        2.725309   1.000000
    4        2.783902   1.000000
    5        6.371802   0.000000
    6        8.847031   0.000000
    7        9.098820   0.000000
    8       12.744860   0.000000
 
  0.5000000E+00  0.4545455E-01  0.0000000E+00  0.2253944E-02
    1       -7.237667   1.000000
    2       -3.202938   1.000000
    3        2.651038   1.000000
    4        2.792017   1.000000
    5        6.346340   0.000000
    6        8.889486   0.000000
    7        9.050547   0.000000
    8       12.825382   0.000000
 
 -0.4545455E+00  0.4545455E-01  0.0000000E+00  0.2253944E-02
    1       -7.268582   1.000000
    2       -3.152549   1.000000
    3        2.617007   1.000000
    4        2.841076   1.000000
    5        6.349896   0.000000
    6        8.936705   0.000000
    7        9.003079   0.000000
    8       12.818033   0.000000
 
 -0.4090909E+00  0.4545455E-01  0.0000000E+00  0.2253944E-02
    1       -7.464311   1.000000
    2       -2.821175   1.000000
    3        2.624469   1.000000
    4        2.929650   1.000000
    5        6.382384   0.000000
    6        8.955250   0.000000
    7        8.986721   0.000000
    8       12.715628   0.000000
 
 -0.3636364E+00  0.4545455E-01  0.0000000E+00  0.2253944E-02
    1       -7.759701   1.000000
    2       -2.275368   1.000000
    3        2.674095   1.000000
    4        3.055559   1.000000
    5        6.443192   0.000000
    6        8.896090   0.000000
    7        9.026631   0.000000
    8       12.475462   0.000000
 
 -0.3181818E+00  0.4545455E-01  0.0000000E+00  0.2253944E-02
    1       -8.091807   1.000000
    2       -1.580695   1.000000
    3        2.765864   1.000000
    4        3.215644   1.000000
    5        6.530910   0.000000
    6        8.806740   0.000000
    7        9.033038   0.000000
    8       12.069385   0.000000
 
 -0.2727273E+00  0.4545455E-01  0.0000000E+00  0.2253944E-02
    1       -8.420065   1.000000
    2       -0.782268   1.000000
    3        2.898855   1.000000
    4        3.405245   1.000000
    5        6.642920   0.000000
    6        8.666386   0.000000
    7        8.975717   0.000000
    8       11.526498   0.000000
 
 -0.2272727E+00  0.4545455E-01  0.0000000E+00  0.2253944E-02
    1       -8.721160   1.000000
    2        0.089567   1.000000
    3        3.070867   1.000000
    4        3.617150   1.000000
    5        6.774460   0.000000
    6        8.463570   0.000000
    7        8.828622   0.000000
    8       10.897203   0.000000
 
 -0.1818182E+00  0.4545455E-01  0.0000000E+00  0.2253944E-02
    1       -8.981924   1.000000
    2        1.009960   1.000000
    3        3.277854   1.000000
    4        3.839827   1.000000
    5        6.917154   0.000000
    6        8.207785   0.000000
    7        8.586464   0.000000
    8       10.212102   0.000000
 
 -0.1363636E+00  0.4545455E-01  0.0000000E+00  0.2253944E-02
    1       -9.194630   1.000000
    2        1.950593   1.000000
    3        3.513327   1.000000
    4        4.054617   1.000000
    5        7.055906   0.000000
    6        7.932898   0.000000
    7        8.274520   0.000000
    8        9.485951   0.000000
 
 -0.9090909E-01  0.4545455E-01  0.0000000E+00  0.2253944E-02
    1       -9.354725   1.000000
    2        2.863925   1.000000
    3        3.769363   1.000000
    4        4.232551   1.000000
    5        7.161439   0.000000
    6        7.691179   0.000000
    7        7.946136   0.000000
    8        8.745647   0.000000
 
 -0.4545455E-01  0.4545455E-01  0.0000000E+00  0.1126972E-02
    1       -9.459461   1.000000
    2        3.631475   1.000000
    3        4.052340   1.000000
    4        4.335493   1.000000
    5        7.172714   0.000000
    6        7.542217   0.000000
    7        7.688095   0.000000
    8        8.073496   0.000000
 
  0.9090909E-01  0.9090909E-01  0.0000000E+00  0.5634861E-03
    1       -9.382892   1.000000
    2        3.400595   1.000000
    3        3.814496   1.000000
    4        3.814496   1.000000
    5        7.059414   0.000000
    6        7.953234   0.000000
    7        8.198008   0.000000
    8        8.198008   0.000000
 
  0.1363636E+00  0.9090909E-01  0.0000000E+00  0.2253944E-02
    1       -9.278362   1.000000
    2        2.741418   1.000000
    3        3.573772   1.000000
    4        3.687142   1.000000
    5        7.027361   0.000000
    6        7.961608   0.000000
    7        8.531783   0.000000
    8        8.824510   0.000000
 
  0.1818182E+00  0.9090909E-01  0.0000000E+00  0.2253944E-02
    1       -9.118679   1.000000
    2        1.879653   1.000000
    3        3.335312   1.000000
    4        3.538884   1.000000
    5        7.109221   0.000000
    6        7.917606   0.000000
    7        8.868763   0.000000
    8        9.527075   0.000000
 
  0.2272727E+00  0.9090909E-01  0.0000000E+00  0.2253944E-02
    1       -8.906616   1.000000
    2        0.975813   1.000000
    3        3.117360   1.000000
    4        3.330984   1.000000
    5        7.168488   0.000000
    6        7.985219   0.000000
    7        9.164828   0.000000
    8       10.148105   0.000000
 
  0.2727273E+00  0.9090909E-01  0.0000000E+00  0.2253944E-02
    1       -8.646748   1.000000
    2        0.081945   1.000000
    3        2.931188   1.000000
    4        3.096762   1.000000
    5        7.128546   0.000000
    6        8.177109   0.000000
    7        9.384567   0.000000
    8       10.673925   0.000000
 
  0.3181818E+00  0.9090909E-01  0.0000000E+00  0.2253944E-02
    1       -8.346837   1.000000
    2       -0.770491   1.000000
    3        2.783621   1.000000
    4        2.862486   1.000000
    5        7.037029   0.000000
    6        8.390880   0.000000
    7        9.510366   0.000000
    8       11.148337   0.000000
 
  0.3636364E+00  0.9090909E-01  0.0000000E+00  0.2253944E-02
    1       -8.020102   1.000000
    2       -1.554452   1.000000
    3        2.644516   1.000000
    4        2.678582   1.000000
    5        6.939496   0.000000
    6        8.556479   0.000000
    7        9.547649   0.000000
    8       11.621630   0.000000
 
  0.4090909E+00  0.9090909E-01  0.0000000E+00  0.2253944E-02
    1       -7.689845   1.000000
    2       -2.238201   1.000000
    3        2.452939   1.000000
    4        2.618046   1.000000
    5        6.856069   0.000000
    6        8.666375   0.000000
    7        9.518779   0.000000
    8       12.090701   0.000000
 
  0.4545455E+00  0.9090909E-01  0.0000000E+00  0.2253944E-02
    1       -7.396546   1.000000
    2       -2.775884   1.000000
    3        2.294318   1.000000
    4        2.602596   1.000000
    5        6.795427   0.000000
    6        8.743303   0.000000
    7        9.450580   0.000000
    8       12.493770   0.000000
 
  0.5000000E+00  0.9090909E-01  0.0000000E+00  0.2253944E-02
    1       -7.202697   1.000000
    2       -3.101874   1.000000
    3        2.173250   1.000000
    4        2.631777   1.000000
    5        6.761475   0.000000
    6        8.812097   0.000000
    7        9.364698   0.000000
    8       12.756591   0.000000
 
 -0.4545455E+00  0.9090909E-01  0.0000000E+00  0.2253944E-02
    1       -7.172647   1.000000
    2       -3.150242   1.000000
    3        2.093135   1.000000
    4        2.704118   1.000000
    5        6.755637   0.000000
    6        8.887954   0.000000
    7        9.273458   0.000000
    8       12.841903   0.000000
 
 -0.4090909E+00  0.9090909E-01  0.0000000E+00  0.2253944E-02
    1       -7.318607   1.000000
    2       -2.908642   1.000000
    3        2.056673   1.000000
    4        2.817332   1.000000
    5        6.778033   0.000000
    6        8.974339   0.000000
    7        9.179180   0.000000
    8       12.740175   0.000000
 
 -0.3636364E+00  0.9090909E-01  0.0000000E+00  0.2253944E-02
    1       -7.587073   1.000000
    2       -2.431837   1.000000
    3        2.065948   1.000000
    4        2.968060   1.000000
    5        6.827676   0.000000
    6        9.062273   0.000000
    7        9.074310   0.000000
    8       12.449642   0.000000
 
 -0.3181818E+00  0.9090909E-01  0.0000000E+00  0.2253944E-02
    1       -7.910686   1.000000
    2       -1.790168   1.000000
    3        2.122670   1.000000
    4        3.151621   1.000000
    5        6.902565   0.000000
    6        8.943439   0.000000
    7        9.128529   0.000000
    8       12.005702   0.000000
 
 -0.2727273E+00  0.9090909E-01  0.0000000E+00  0.2253944E-02
    1       -8.241730   1.000000
    2       -1.036725   1.000000
    3        2.228342   1.000000
    4        3.361356   1.000000
    5        6.998980   0.000000
    6        8.769063   0.000000
    7        9.133649   0.000000
    8       11.483519   0.000000
 
 -0.2272727E+00  0.9090909E-01  0.0000000E+00  0.2253944E-02
    1       -8.552216   1.000000
    2       -0.208888   1.000000
    3        2.384830   1.000000
    4        3.587425   1.000000
    5        7.110115   0.000000
    6        8.542733   0.000000
    7        9.028783   0.000000
    8       10.952357   0.000000
 
 -0.1818182E+00  0.9090909E-01  0.0000000E+00  0.2253944E-02
    1       -8.826239   1.000000
    2        0.660130   1.000000
    3        2.596283   1.000000
    4        3.814809   1.000000
    5        7.222733   0.000000
    6        8.277026   0.000000
    7        8.788248   0.000000
    8       10.435783   0.000000
 
 -0.1363636E+00  0.9090909E-01  0.0000000E+00  0.2253944E-02
    1       -9.054603   1.000000
    2        1.525138   1.000000
    3        2.875424   1.000000
    4        4.020561   1.000000
    5        7.308149   0.000000
    6        8.009340   0.000000
    7        8.454081   0.000000
    8        9.903376   0.000000
 
 -0.9090909E-01  0.9090909E-01  0.0000000E+00  0.1126972E-02
    1       -9.231853   1.000000
    2        2.299053   1.000000
    3        3.259647   1.000000
    4        4.172045   1.000000
    5        7.303418   0.000000
    6        7.794880   0.000000
    7        8.140612   0.000000
    8        9.325312   0.000000
 
  0.1363636E+00  0.1363636E+00  0.0000000E+00  0.5634861E-03
    1       -9.192772   1.000000
    2        2.572141   1.000000
    3        3.323476   1.000000
    4        3.323476   1.000000
    5        6.796985   0.000000
    6        8.462591   0.000000
    7        8.894429   0.000000
    8        8.894429   0.000000
 
  0.1818182E+00  0.1363636E+00  0.0000000E+00  0.2253944E-02
    1       -9.051797   1.000000
    2        1.952104   1.000000
    3        3.078746   1.000000
    4        3.138735   1.000000
    5        6.753852   0.000000
    6        8.462530   0.000000
    7        9.263280   0.000000
    8        9.443702   0.000000
 
  0.2272727E+00  0.1363636E+00  0.0000000E+00  0.2253944E-02
    1       -8.857733   1.000000
    2        1.155922   1.000000
    3        2.857107   1.000000
    4        2.946457   1.000000
    5        6.869481   0.000000
    6        8.390853   0.000000
    7        9.594911   0.000000
    8        9.954309   0.000000
 
  0.2727273E+00  0.1363636E+00  0.0000000E+00  0.2253944E-02
    1       -8.614513   1.000000
    2        0.319085   1.000000
    3        2.669639   1.000000
    4        2.707437   1.000000
    5        7.029864   0.000000
    6        8.391004   0.000000
    7        9.851144   0.000000
    8       10.308281   0.000000
 
  0.3181818E+00  0.1363636E+00  0.0000000E+00  0.2253944E-02
    1       -8.328716   1.000000
    2       -0.505407   1.000000
    3        2.448722   1.000000
    4        2.523181   1.000000
    5        7.125844   0.000000
    6        8.497648   0.000000
    7       10.007993   0.000000
    8       10.584090   0.000000
 
  0.3636364E+00  0.1363636E+00  0.0000000E+00  0.2253944E-02
    1       -8.011442   1.000000
    2       -1.282878   1.000000
    3        2.194848   1.000000
    4        2.421790   1.000000
    5        7.138338   0.000000
    6        8.654407   0.000000
    7       10.063902   0.000000
    8       10.909511   0.000000
 
  0.4090909E+00  0.1363636E+00  0.0000000E+00  0.2253944E-02
    1       -7.682041   1.000000
    2       -1.980115   1.000000
    3        1.961691   1.000000
    4        2.367586   1.000000
    5        7.111352   0.000000
    6        8.782033   0.000000
    7       10.037758   0.000000
    8       11.351310   0.000000
 
  0.4545455E+00  0.1363636E+00  0.0000000E+00  0.2253944E-02
    1       -7.374300   1.000000
    2       -2.554794   1.000000
    3        1.759337   1.000000
    4        2.361224   1.000000
    5        7.082200   0.000000
    6        8.865075   0.000000
    7        9.956885   0.000000
    8       11.876361   0.000000
 
  0.5000000E+00  0.1363636E+00  0.0000000E+00  0.2253944E-02
    1       -7.143222   1.000000
    2       -2.946806   1.000000
    3        1.594632   1.000000
    4        2.402177   1.000000
    5        7.069407   0.000000
    6        8.928164   0.000000
    7        9.845649   0.000000
    8       12.379113   0.000000
 
 -0.4545455E+00  0.1363636E+00  0.0000000E+00  0.2253944E-02
    1       -7.056142   1.000000
    2       -3.086091   1.000000
    3        1.472679   1.000000
    4        2.488844   1.000000
    5        7.080268   0.000000
    6        8.995736   0.000000
    7        9.719625   0.000000
    8       12.707341   0.000000
 
 -0.4090909E+00  0.1363636E+00  0.0000000E+00  0.2253944E-02
    1       -7.146937   1.000000
    2       -2.938174   1.000000
    3        1.397572   1.000000
    4        2.618467   1.000000
    5        7.116164   0.000000
    6        9.080115   0.000000
    7        9.584010   0.000000
    8       12.719236   0.000000
 
 -0.3636364E+00  0.1363636E+00  0.0000000E+00  0.2253944E-02
    1       -7.380217   1.000000
    2       -2.539861   1.000000
    3        1.373101   1.000000
    4        2.786946   1.000000
    5        7.175189   0.000000
    6        9.180546   0.000000
    7        9.433955   0.000000
    8       12.409452   0.000000
 
 -0.3181818E+00  0.1363636E+00  0.0000000E+00  0.2253944E-02
    1       -7.688629   1.000000
    2       -1.962693   1.000000
    3        1.403342   1.000000
    4        2.988426   1.000000
    5        7.253086   0.000000
    6        9.256846   0.000000
    7        9.280178   0.000000
    8       11.906513   0.000000
 
 -0.2727273E+00  0.1363636E+00  0.0000000E+00  0.2253944E-02
    1       -8.017772   1.000000
    2       -1.269483   1.000000
    3        1.494003   1.000000
    4        3.214539   1.000000
    5        7.342706   0.000000
    6        9.038653   0.000000
    7        9.337088   0.000000
    8       11.354441   0.000000
 
 -0.2272727E+00  0.1363636E+00  0.0000000E+00  0.2253944E-02
    1       -8.334339   1.000000
    2       -0.510259   1.000000
    3        1.655538   1.000000
    4        3.453072   1.000000
    5        7.431313   0.000000
    6        8.775631   0.000000
    7        9.274994   0.000000
    8       10.875741   0.000000
 
 -0.1818182E+00  0.1363636E+00  0.0000000E+00  0.2253944E-02
    1       -8.619240   1.000000
    2        0.261231   1.000000
    3        1.910926   1.000000
    4        3.685845   1.000000
    5        7.493002   0.000000
    6        8.485803   0.000000
    7        9.035694   0.000000
    8       10.535906   0.000000
 
 -0.1363636E+00  0.1363636E+00  0.0000000E+00  0.1126972E-02
    1       -8.861502   1.000000
    2        0.966293   1.000000
    3        2.306762   1.000000
    4        3.886508   1.000000
    5        7.473965   0.000000
    6        8.211430   0.000000
    7        8.707998   0.000000
    8       10.253152   0.000000
 
  0.1818182E+00  0.1818182E+00  0.0000000E+00  0.5634861E-03
    1       -8.929555   1.000000
    2        1.694412   1.000000
    3        2.827969   1.000000
    4        2.827969   1.000000
    5        6.504914   0.000000
    6        8.725239   0.000000
    7        9.671163   0.000000
    8        9.671163   0.000000
 
  0.2272727E+00  0.1818182E+00  0.0000000E+00  0.2253944E-02
    1       -8.753902   1.000000
    2        1.124322   1.000000
    3        2.600652   1.000000
    4        2.606319   1.000000
    5        6.469603   0.000000
    6        8.673451   0.000000
    7       10.049146   0.000000
    8       10.075121   0.000000
 
  0.2727273E+00  0.1818182E+00  0.0000000E+00  0.2253944E-02
    1       -8.528246   1.000000
    2        0.416911   1.000000
    3        2.357264   1.000000
    4        2.408259   1.000000
    5        6.605868   0.000000
    6        8.609813   0.000000
    7       10.325548   0.000000
    8       10.356365   0.000000
 
  0.3181818E+00  0.1818182E+00  0.0000000E+00  0.2253944E-02
    1       -8.258207   1.000000
    2       -0.329183   1.000000
    3        2.070331   1.000000
    4        2.257998   1.000000
    5        6.797001   0.000000
    6        8.656633   0.000000
    7       10.424366   0.000000
    8       10.562087   0.000000
 
  0.3636364E+00  0.1818182E+00  0.0000000E+00  0.2253944E-02
    1       -7.953256   1.000000
    2       -1.062326   1.000000
    3        1.773975   1.000000
    4        2.154272   1.000000
    5        6.935607   0.000000
    6        8.849795   0.000000
    7       10.500130   0.000000
    8       10.655991   0.000000
 
  0.4090909E+00  0.1818182E+00  0.0000000E+00  0.2253944E-02
    1       -7.629616   1.000000
    2       -1.742826   1.000000
    3        1.492176   1.000000
    4        2.099495   1.000000
    5        6.999948   0.000000
    6        9.103765   0.000000
    7       10.650925   0.000000
    8       10.694827   0.000000
 
  0.4545455E+00  0.1818182E+00  0.0000000E+00  0.2253944E-02
    1       -7.315521   1.000000
    2       -2.328151   1.000000
    3        1.240202   1.000000
    4        2.094545   1.000000
    5        7.029186   0.000000
    6        9.284929   0.000000
    7       10.573093   0.000000
    8       11.103928   0.000000
 
  0.5000000E+00  0.1818182E+00  0.0000000E+00  0.2253944E-02
    1       -7.058188   1.000000
    2       -2.762297   1.000000
    3        1.027906   1.000000
    4        2.139084   1.000000
    5        7.059837   0.000000
    6        9.374206   0.000000
    7       10.449039   0.000000
    8       11.678130   0.000000
 
 -0.4545455E+00  0.1818182E+00  0.0000000E+00  0.2253944E-02
    1       -6.922354   1.000000
    2       -2.975754   1.000000
    3        0.862261   1.000000
    4        2.231531   1.000000
    5        7.110006   0.000000
    6        9.426380   0.000000
    7       10.297229   0.000000
    8       12.252314   0.000000
 
 -0.4090909E+00  0.1818182E+00  0.0000000E+00  0.2253944E-02
    1       -6.956838   1.000000
    2       -2.918193   1.000000
    3        0.749139   1.000000
    4        2.369061   1.000000
    5        7.184982   0.000000
    6        9.481340   0.000000
    7       10.125337   0.000000
    8       12.556144   0.000000
 
 -0.3636364E+00  0.1818182E+00  0.0000000E+00  0.2253944E-02
    1       -7.147718   1.000000
    2       -2.605637   1.000000
    3        0.694650   1.000000
    4        2.547270   1.000000
    5        7.282096   0.000000
    6        9.555656   0.000000
    7        9.930438   0.000000
    8       12.351786   0.000000
 
 -0.3181818E+00  0.1818182E+00  0.0000000E+00  0.2253944E-02
    1       -7.433457   1.000000
    2       -2.106639   1.000000
    3        0.707037   1.000000
    4        2.759694   1.000000
    5        7.392926   0.000000
    6        9.647418   0.000000
    7        9.701890   0.000000
    8       11.816618   0.000000
 
 -0.2727273E+00  0.1818182E+00  0.0000000E+00  0.2253944E-02
    1       -7.754878   1.000000
    2       -1.496278   1.000000
    3        0.800423   1.000000
    4        2.996904   1.000000
    5        7.503105   0.000000
    6        9.429189   0.000000
    7        9.725318   0.000000
    8       11.210337   0.000000
 
 -0.2272727E+00  0.1818182E+00  0.0000000E+00  0.2253944E-02
    1       -8.073129   1.000000
    2       -0.846292   1.000000
    3        1.002451   1.000000
    4        3.245151   1.000000
    5        7.588798   0.000000
    6        9.114808   0.000000
    7        9.681616   0.000000
    8       10.738476   0.000000
 
 -0.1818182E+00  0.1818182E+00  0.0000000E+00  0.1126972E-02
    1       -8.365631   1.000000
    2       -0.237918   1.000000
    3        1.361073   1.000000
    4        3.484258   1.000000
    5        7.607327   0.000000
    6        8.784417   0.000000
    7        9.390368   0.000000
    8       10.568085   0.000000
 
  0.2272727E+00  0.2272727E+00  0.0000000E+00  0.5634861E-03
    1       -8.596770   1.000000
    2        0.803816   1.000000
    3        2.366501   1.000000
    4        2.366502   1.000000
    5        6.229983   0.000000
    6        8.596962   0.000000
    7       10.483832   0.000000
    8       10.483833   0.000000
 
  0.2727273E+00  0.2272727E+00  0.0000000E+00  0.2253944E-02
    1       -8.389276   1.000000
    2        0.279770   1.000000
    3        2.128564   1.000000
    4        2.166842   1.000000
    5        6.214930   0.000000
    6        8.440516   0.000000
    7       10.799860   0.000000
    8       10.855904   0.000000
 
  0.3181818E+00  0.2272727E+00  0.0000000E+00  0.2253944E-02
    1       -8.136342   1.000000
    2       -0.335043   1.000000
    3        1.827894   1.000000
    4        2.009465   1.000000
    5        6.372232   0.000000
    6        8.370111   0.000000
    7       10.905565   0.000000
    8       11.127995   0.000000
 
  0.3636364E+00  0.2272727E+00  0.0000000E+00  0.2253944E-02
    1       -7.846198   1.000000
    2       -0.974842   1.000000
    3        1.486559   1.000000
    4        1.899242   1.000000
    5        6.573732   0.000000
    6        8.485207   0.000000
    7       10.887750   0.000000
    8       11.279702   0.000000
 
  0.4090909E+00  0.2272727E+00  0.0000000E+00  0.2253944E-02
    1       -7.532699   1.000000
    2       -1.594963   1.000000
    3        1.143976   1.000000
    4        1.838961   1.000000
    5        6.715394   0.000000
    6        8.827420   0.000000
    7       10.847386   0.000000
    8       11.314881   0.000000
 
  0.4545455E+00  0.2272727E+00  0.0000000E+00  0.2253944E-02
    1       -7.219718   1.000000
    2       -2.152140   1.000000
    3        0.828063   1.000000
    4        1.829861   1.000000
    5        6.794556   0.000000
    6        9.314787   0.000000
    7       10.873130   0.000000
    8       11.256248   0.000000
 
  0.5000000E+00  0.2272727E+00  0.0000000E+00  0.2253944E-02
    1       -6.947464   1.000000
    2       -2.593424   1.000000
    3        0.555514   1.000000
    4        1.871810   1.000000
    5        6.856742   0.000000
    6        9.753585   0.000000
    7       11.095522   0.000000
    8       11.131382   0.000000
 