       N       E                     dE             d eps       ncg     rms          rms(c)
DAV:   1     0.934496097026E+01    0.93450E+01   -0.37560E+03  5256   0.854E+02
DAV:   2    -0.112123107674E+02   -0.20557E+02   -0.20139E+02  8288   0.986E+01
DAV:   3    -0.115212245612E+02   -0.30891E+00   -0.30891E+00  6112   0.142E+01
DAV:   4    -0.115217060955E+02   -0.48153E-03   -0.48153E-03  7824   0.600E-01
DAV:   5    -0.115217063539E+02   -0.25839E-06   -0.25839E-06  5976   0.981E-03    0.319E+00
RMM:   6    -0.111820272691E+02    0.33968E+00   -0.38835E-01  5304   0.383E+00    0.145E+00
RMM:   7    -0.111529583867E+02    0.29069E-01   -0.49768E-02  5619   0.144E+00    0.703E-01
RMM:   8    -0.111488734152E+02    0.40850E-02   -0.17269E-02  5535   0.102E+00    0.800E-02
RMM:   9    -0.111493535154E+02   -0.48010E-03   -0.15470E-03  5798   0.269E-01    0.612E-02
RMM:  10    -0.111491819125E+02    0.17160E-03   -0.13003E-04  5733   0.792E-02    0.177E-02
RMM:  11    -0.111491841786E+02   -0.22661E-05   -0.93806E-05  5680   0.579E-02    0.121E-02
RMM:  12    -0.111491754211E+02    0.87575E-05   -0.89258E-06  5672   0.201E-02    0.909E-04
RMM:  13    -0.111491754452E+02   -0.24049E-07   -0.23871E-07  3907   0.361E-03
   1 F= -.11149175E+02 E0= -.11149175E+02  d E =0.000000E+00
