   3   3   0   0
  0.2397203E+02  0.4667816E-09  0.4667816E-09  0.4667816E-09  0.5000000E-15
  1.000000000000000E-004
  CAR
 unknown system
     11.62209814    -26.66264879  301      7.54662479      1.00000000
    -26.663  0.0000E+00  0.0000E+00
    -26.535  0.0000E+00  0.0000E+00
    -26.407  0.0000E+00  0.0000E+00
    -26.280  0.0000E+00  0.0000E+00
    -26.152  0.0000E+00  0.0000E+00
    -26.025  0.0000E+00  0.0000E+00
    -25.897  0.0000E+00  0.0000E+00
    -25.769  0.0000E+00  0.0000E+00
    -25.642  0.0000E+00  0.0000E+00
    -25.514  0.0000E+00  0.0000E+00
    -25.386  0.0000E+00  0.0000E+00
    -25.259  0.0000E+00  0.0000E+00
    -25.131  0.0000E+00  0.0000E+00
    -25.004  0.0000E+00  0.0000E+00
    -24.876  0.4702E+02  0.6000E+01
    -24.748  0.0000E+00  0.6000E+01
    -24.621  0.0000E+00  0.6000E+01
    -24.493  0.0000E+00  0.6000E+01
    -24.366  0.0000E+00  0.6000E+01
    -24.238  0.0000E+00  0.6000E+01
    -24.110  0.0000E+00  0.6000E+01
    -23.983  0.0000E+00  0.6000E+01
    -23.855  0.0000E+00  0.6000E+01
    -23.727  0.0000E+00  0.6000E+01
    -23.600  0.0000E+00  0.6000E+01
    -23.472  0.0000E+00  0.6000E+01
    -23.345  0.0000E+00  0.6000E+01
    -23.217  0.0000E+00  0.6000E+01
    -23.089  0.0000E+00  0.6000E+01
    -22.962  0.0000E+00  0.6000E+01
    -22.834  0.0000E+00  0.6000E+01
    -22.707  0.0000E+00  0.6000E+01
    -22.579  0.0000E+00  0.6000E+01
    -22.451  0.0000E+00  0.6000E+01
    -22.324  0.0000E+00  0.6000E+01
    -22.196  0.0000E+00  0.6000E+01
    -22.068  0.0000E+00  0.6000E+01
    -21.941  0.0000E+00  0.6000E+01
    -21.813  0.0000E+00  0.6000E+01
    -21.686  0.0000E+00  0.6000E+01
    -21.558  0.0000E+00  0.6000E+01
    -21.430  0.0000E+00  0.6000E+01
    -21.303  0.0000E+00  0.6000E+01
    -21.175  0.0000E+00  0.6000E+01
    -21.048  0.0000E+00  0.6000E+01
    -20.920  0.0000E+00  0.6000E+01
    -20.792  0.0000E+00  0.6000E+01
    -20.665  0.0000E+00  0.6000E+01
    -20.537  0.0000E+00  0.6000E+01
    -20.409  0.0000E+00  0.6000E+01
    -20.282  0.0000E+00  0.6000E+01
    -20.154  0.0000E+00  0.6000E+01
    -20.027  0.0000E+00  0.6000E+01
    -19.899  0.0000E+00  0.6000E+01
    -19.771  0.0000E+00  0.6000E+01
    -19.644  0.0000E+00  0.6000E+01
    -19.516  0.0000E+00  0.6000E+01
    -19.389  0.0000E+00  0.6000E+01
    -19.261  0.0000E+00  0.6000E+01
    -19.133  0.0000E+00  0.6000E+01
    -19.006  0.0000E+00  0.6000E+01
    -18.878  0.0000E+00  0.6000E+01
    -18.750  0.0000E+00  0.6000E+01
    -18.623  0.0000E+00  0.6000E+01
    -18.495  0.0000E+00  0.6000E+01
    -18.368  0.0000E+00  0.6000E+01
    -18.240  0.0000E+00  0.6000E+01
    -18.112  0.0000E+00  0.6000E+01
    -17.985  0.0000E+00  0.6000E+01
    -17.857  0.0000E+00  0.6000E+01
    -17.730  0.0000E+00  0.6000E+01
    -17.602  0.0000E+00  0.6000E+01
    -17.474  0.0000E+00  0.6000E+01
    -17.347  0.0000E+00  0.6000E+01
    -17.219  0.0000E+00  0.6000E+01
    -17.091  0.0000E+00  0.6000E+01
    -16.964  0.0000E+00  0.6000E+01
    -16.836  0.0000E+00  0.6000E+01
    -16.709  0.0000E+00  0.6000E+01
    -16.581  0.0000E+00  0.6000E+01
    -16.453  0.0000E+00  0.6000E+01
    -16.326  0.0000E+00  0.6000E+01
    -16.198  0.0000E+00  0.6000E+01
    -16.071  0.0000E+00  0.6000E+01
    -15.943  0.0000E+00  0.6000E+01
    -15.815  0.0000E+00  0.6000E+01
    -15.688  0.0000E+00  0.6000E+01
    -15.560  0.0000E+00  0.6000E+01
    -15.432  0.0000E+00  0.6000E+01
    -15.305  0.0000E+00  0.6000E+01
    -15.177  0.0000E+00  0.6000E+01
    -15.050  0.0000E+00  0.6000E+01
    -14.922  0.0000E+00  0.6000E+01
    -14.794  0.0000E+00  0.6000E+01
    -14.667  0.0000E+00  0.6000E+01
    -14.539  0.0000E+00  0.6000E+01
    -14.412  0.0000E+00  0.6000E+01
    -14.284  0.0000E+00  0.6000E+01
    -14.156  0.0000E+00  0.6000E+01
    -14.029  0.0000E+00  0.6000E+01
    -13.901  0.0000E+00  0.6000E+01
    -13.773  0.0000E+00  0.6000E+01
    -13.646  0.0000E+00  0.6000E+01
    -13.518  0.0000E+00  0.6000E+01
    -13.391  0.0000E+00  0.6000E+01
    -13.263  0.0000E+00  0.6000E+01
    -13.135  0.0000E+00  0.6000E+01
    -13.008  0.0000E+00  0.6000E+01
    -12.880  0.0000E+00  0.6000E+01
    -12.753  0.0000E+00  0.6000E+01
    -12.625  0.0000E+00  0.6000E+01
    -12.497  0.0000E+00  0.6000E+01
    -12.370  0.0000E+00  0.6000E+01
    -12.242  0.0000E+00  0.6000E+01
    -12.114  0.0000E+00  0.6000E+01
    -11.987  0.0000E+00  0.6000E+01
    -11.859  0.0000E+00  0.6000E+01
    -11.732  0.0000E+00  0.6000E+01
    -11.604  0.0000E+00  0.6000E+01
    -11.476  0.0000E+00  0.6000E+01
    -11.349  0.0000E+00  0.6000E+01
    -11.221  0.0000E+00  0.6000E+01
    -11.094  0.0000E+00  0.6000E+01
    -10.966  0.0000E+00  0.6000E+01
    -10.838  0.0000E+00  0.6000E+01
    -10.711  0.0000E+00  0.6000E+01
    -10.583  0.0000E+00  0.6000E+01
    -10.455  0.0000E+00  0.6000E+01
    -10.328  0.0000E+00  0.6000E+01
    -10.200  0.0000E+00  0.6000E+01
    -10.073  0.0000E+00  0.6000E+01
     -9.945  0.0000E+00  0.6000E+01
     -9.817  0.0000E+00  0.6000E+01
     -9.690  0.0000E+00  0.6000E+01
     -9.562  0.0000E+00  0.6000E+01
     -9.435  0.0000E+00  0.6000E+01
     -9.307  0.0000E+00  0.6000E+01
     -9.179  0.0000E+00  0.6000E+01
     -9.052  0.0000E+00  0.6000E+01
     -8.924  0.0000E+00  0.6000E+01
     -8.796  0.0000E+00  0.6000E+01
     -8.669  0.0000E+00  0.6000E+01
     -8.541  0.0000E+00  0.6000E+01
     -8.414  0.0000E+00  0.6000E+01
     -8.286  0.0000E+00  0.6000E+01
     -8.158  0.0000E+00  0.6000E+01
     -8.031  0.0000E+00  0.6000E+01
     -7.903  0.0000E+00  0.6000E+01
     -7.776  0.0000E+00  0.6000E+01
     -7.648  0.0000E+00  0.6000E+01
     -7.520  0.0000E+00  0.6000E+01
     -7.393  0.0000E+00  0.6000E+01
     -7.265  0.0000E+00  0.6000E+01
     -7.137  0.0000E+00  0.6000E+01
     -7.010  0.0000E+00  0.6000E+01
     -6.882  0.0000E+00  0.6000E+01
     -6.755  0.0000E+00  0.6000E+01
     -6.627  0.0000E+00  0.6000E+01
     -6.499  0.0000E+00  0.6000E+01
     -6.372  0.0000E+00  0.6000E+01
     -6.244  0.0000E+00  0.6000E+01
     -6.117  0.0000E+00  0.6000E+01
     -5.989  0.0000E+00  0.6000E+01
     -5.861  0.0000E+00  0.6000E+01
     -5.734  0.0000E+00  0.6000E+01
     -5.606  0.0000E+00  0.6000E+01
     -5.478  0.0000E+00  0.6000E+01
     -5.351  0.0000E+00  0.6000E+01
     -5.223  0.0000E+00  0.6000E+01
     -5.096  0.0000E+00  0.6000E+01
     -4.968  0.0000E+00  0.6000E+01
     -4.840  0.0000E+00  0.6000E+01
     -4.713  0.0000E+00  0.6000E+01
     -4.585  0.0000E+00  0.6000E+01
     -4.457  0.0000E+00  0.6000E+01
     -4.330  0.4598E-01  0.6006E+01
     -4.202  0.9847E-01  0.6026E+01
     -4.075  0.4436E-01  0.6059E+01
     -3.947  0.1794E+00  0.6126E+01
     -3.819  0.1855E+00  0.6178E+01
     -3.692  0.4563E+00  0.6294E+01
     -3.564  0.5729E+00  0.6374E+01
     -3.437  0.3537E+00  0.6507E+01
     -3.309  0.9688E+00  0.6700E+01
     -3.181  0.1258E+01  0.6973E+01
     -3.054  0.2999E+01  0.7580E+01
     -2.926  0.6848E+00  0.8000E+01
     -2.798  0.0000E+00  0.8000E+01
     -2.671  0.0000E+00  0.8000E+01
     -2.543  0.0000E+00  0.8000E+01
     -2.416  0.0000E+00  0.8000E+01
     -2.288  0.0000E+00  0.8000E+01
     -2.160  0.0000E+00  0.8000E+01
     -2.033  0.0000E+00  0.8000E+01
     -1.905  0.0000E+00  0.8000E+01
     -1.778  0.0000E+00  0.8000E+01
     -1.650  0.0000E+00  0.8000E+01
     -1.522  0.0000E+00  0.8000E+01
     -1.395  0.0000E+00  0.8000E+01
     -1.267  0.0000E+00  0.8000E+01
     -1.139  0.0000E+00  0.8000E+01
     -1.012  0.0000E+00  0.8000E+01
     -0.884  0.0000E+00  0.8000E+01
     -0.757  0.0000E+00  0.8000E+01
     -0.629  0.0000E+00  0.8000E+01
     -0.501  0.0000E+00  0.8000E+01
     -0.374  0.0000E+00  0.8000E+01
     -0.246  0.0000E+00  0.8000E+01
     -0.119  0.0000E+00  0.8000E+01
      0.009  0.0000E+00  0.8000E+01
      0.137  0.0000E+00  0.8000E+01
      0.264  0.0000E+00  0.8000E+01
      0.392  0.0000E+00  0.8000E+01
      0.520  0.5692E-08  0.8000E+01
      0.647  0.3324E+00  0.8050E+01
      0.775  0.5276E+00  0.8184E+01
      0.902  0.3337E+01  0.8746E+01
      1.030  0.2776E+01  0.9297E+01
      1.158  0.2144E+01  0.9692E+01
      1.285  0.6449E+00  0.9808E+01
      1.413  0.8560E-01  0.9868E+01
      1.540  0.4179E+00  0.9921E+01
      1.668  0.1712E+00  0.9946E+01
      1.796  0.1712E+00  0.9968E+01
      1.923  0.1137E+01  0.1011E+02
      2.051  0.5748E+01  0.1109E+02
      2.179  0.3376E+01  0.1190E+02
      2.306  0.4077E+01  0.1284E+02
      2.434  0.2788E+01  0.1334E+02
      2.561  0.2785E+01  0.1380E+02
      2.689  0.1401E+01  0.1410E+02
      2.817  0.1803E+01  0.1444E+02
      2.944  0.1536E+01  0.1482E+02
      3.072  0.3542E+01  0.1564E+02
      3.199  0.4857E+01  0.1678E+02
      3.327  0.5196E+01  0.1822E+02
      3.455  0.5226E+01  0.1903E+02
      3.582  0.1635E+01  0.1953E+02
      3.710  0.5297E+00  0.1964E+02
      3.838  0.3075E+00  0.1978E+02
      3.965  0.6914E+00  0.1998E+02
      4.093  0.1196E+01  0.2016E+02
      4.220  0.1284E+01  0.2044E+02
      4.348  0.5497E+00  0.2057E+02
      4.476  0.1187E+01  0.2078E+02
      4.603  0.8562E+00  0.2103E+02
      4.731  0.7859E+00  0.2121E+02
      4.858  0.1220E+01  0.2153E+02
      4.986  0.3025E+01  0.2200E+02
      5.114  0.2219E+01  0.2255E+02
      5.241  0.2235E+01  0.2295E+02
      5.369  0.2090E+01  0.2331E+02
      5.497  0.1773E+01  0.2362E+02
      5.624  0.6642E+00  0.2373E+02
      5.752  0.3118E+00  0.2384E+02
      5.879  0.5992E+00  0.2392E+02
      6.007  0.3779E+00  0.2397E+02
      6.135  0.1997E+00  0.2400E+02
      6.262  0.0000E+00  0.2400E+02
      6.390  0.0000E+00  0.2400E+02
      6.517  0.5707E-01  0.2401E+02
      6.645  0.4280E-01  0.2401E+02
      6.773  0.1420E+00  0.2403E+02
      6.900  0.1767E+00  0.2405E+02
      7.028  0.1820E+00  0.2408E+02
      7.156  0.7135E+00  0.2423E+02
      7.283  0.9965E+00  0.2443E+02
      7.411  0.1445E+01  0.2470E+02
      7.538  0.1263E+01  0.2496E+02
      7.666  0.1342E+01  0.2541E+02
      7.794  0.3125E+01  0.2598E+02
      7.921  0.1394E+01  0.2630E+02
      8.049  0.2120E+01  0.2671E+02
      8.176  0.2707E+01  0.2713E+02
      8.304  0.4605E+01  0.2798E+02
      8.432  0.3058E+01  0.2872E+02
      8.559  0.3204E+01  0.2928E+02
      8.687  0.2533E+01  0.2990E+02
      8.815  0.1790E+01  0.3021E+02
      8.942  0.2454E+01  0.3056E+02
      9.070  0.1509E+01  0.3093E+02
      9.197  0.1952E+01  0.3142E+02
      9.325  0.1193E+01  0.3175E+02
      9.453  0.3704E+00  0.3187E+02
      9.580  0.2302E+00  0.3197E+02
      9.708  0.0000E+00  0.3199E+02
      9.835  0.1507E-11  0.3199E+02
      9.963  0.0000E+00  0.3200E+02
     10.091  0.0000E+00  0.3200E+02
     10.218  0.0000E+00  0.3200E+02
     10.346  0.0000E+00  0.3200E+02
     10.474  0.0000E+00  0.3200E+02
     10.601  0.0000E+00  0.3200E+02
     10.729  0.0000E+00  0.3200E+02
     10.856  0.0000E+00  0.3200E+02
     10.984  0.0000E+00  0.3200E+02
     11.112  0.0000E+00  0.3200E+02
     11.239  0.0000E+00  0.3200E+02
     11.367  0.0000E+00  0.3200E+02
     11.494  0.0000E+00  0.3200E+02
     11.622  0.0000E+00  0.3200E+02
