    3    3    1    1
  0.2397203E+02  0.4667816E-09  0.4667816E-09  0.4667816E-09  0.5000000E-15
  1.000000000000000E-004
  CAR
 unknown system
     25     84     16

  0.0000000E+00  0.0000000E+00  0.0000000E+00  0.4551661E-03
    1      -24.912270   1.000000
    2      -24.912270   1.000000
    3      -24.912270   1.000000
    4       -4.387682   1.000000
    5        2.164546   1.000000
    6        2.164546   1.000000
    7        2.164546   1.000000
    8        2.960732   1.000000
    9        2.960732   1.000000
   10        5.974410   1.000000
   11        6.171357   1.000000
   12        6.171357   1.000000
   13        6.171357   1.000000
   14        8.327952   0.000000
   15        8.327952   0.000000
   16        8.327952   0.000000

  0.7692308E-01  0.2769492E-17 -0.1555916E-17  0.3641329E-02
    1      -24.912844   1.000000
    2      -24.912266   1.000000
    3      -24.912266   1.000000
    4       -4.332941   1.000000
    5        2.078860   1.000000
    6        2.147298   1.000000
    7        2.147298   1.000000
    8        2.989202   1.000000
    9        2.989202   1.000000
   10        5.446103   1.000000
   11        6.105071   1.000000
   12        6.105071   1.000000
   13        6.472308   1.000000
   14        8.178032   0.000000
   15        8.178032   0.000000
   16        8.630583   0.000000

  0.1538462E+00 -0.5562196E-17  0.7989348E-17  0.3641329E-02
    1      -24.914431   1.000000
    2      -24.912261   1.000000
    3      -24.912261   1.000000
    4       -4.174477   1.000000
    5        1.845186   1.000000
    6        2.109574   1.000000
    7        2.109574   1.000000
    8        3.055129   1.000000
    9        3.055129   1.000000
   10        4.726372   1.000000
   11        5.938687   1.000000
   12        5.938687   1.000000
   13        6.731371   1.000000
   14        8.098205   0.000000
   15        8.098205   0.000000
   16        9.299180   0.000000

  0.2307692E+00  0.1719811E-17  0.1920916E-17  0.3641329E-02
    1      -24.916669   1.000000
    2      -24.912251   1.000000
    3      -24.912251   1.000000
    4       -3.930976   1.000000
    5        1.512235   1.000000
    6        2.075360   1.000000
    7        2.075360   1.000000
    8        3.120461   1.000000
    9        3.120461   1.000000
   10        4.059984   1.000000
   11        5.742132   1.000000
   12        5.742132   1.000000
   13        6.956245   1.000000
   14        8.139463   0.000000
   15        8.139463   0.000000
   16        9.881882   0.000000

  0.3076923E+00 -0.1112439E-16  0.1597870E-16  0.3641329E-02
    1      -24.919033   1.000000
    2      -24.912238   1.000000
    3      -24.912238   1.000000
    4       -3.638284   1.000000
    5        1.133013   1.000000
    6        2.057963   1.000000
    7        2.057963   1.000000
    8        3.157140   1.000000
    9        3.157140   1.000000
   10        3.540945   1.000000
   11        5.575502   1.000000
   12        5.575502   1.000000
   13        7.162842   1.000000
   14        8.267465   0.000000
   15        8.267465   0.000000
   16        9.544286   0.000000

  0.3846154E+00 -0.8695141E-17  0.1476302E-16  0.3641329E-02
    1      -24.920965   1.000000
    2      -24.912222   1.000000
    3      -24.912222   1.000000
    4       -3.357057   1.000000
    5        0.779710   1.000000
    6        2.056746   1.000000
    7        2.056746   1.000000
    8        3.161467   1.000000
    9        3.161467   1.000000
   10        3.202630   1.000000
   11        5.466904   1.000000
   12        5.466904   1.000000
   13        7.360848   1.000000
   14        8.434218   0.000000
   15        8.434218   0.000000
   16        8.905915   0.000000

  0.4615385E+00  0.1363475E-17  0.5917980E-17  0.3641329E-02
    1      -24.922062   1.000000
    2      -24.912217   1.000000
    3      -24.912217   1.000000
    4       -3.175677   1.000000
    5        0.556290   1.000000
    6        2.061381   1.000000
    7        2.061381   1.000000
    8        3.040036   1.000000
    9        3.152828   1.000000
   10        3.152828   1.000000
   11        5.416710   1.000000
   12        5.416710   1.000000
   13        7.531030   0.986287
   14        8.473881   0.000000
   15        8.561778   0.000000
   16        8.561778   0.000000

  0.7692308E-01  0.7692308E-01  0.9196938E-18  0.2730997E-02
    1      -24.912844   1.000000
    2      -24.912368   1.000000
    3      -24.912368   1.000000
    4       -4.315003   1.000000
    5        1.966514   1.000000
    6        2.191731   1.000000
    7        2.191731   1.000000
    8        2.989265   1.000000
    9        2.996153   1.000000
   10        5.441784   1.000000
   11        5.986087   1.000000
   12        5.986087   1.000000
   13        6.600444   1.000000
   14        8.020596   0.000000
   15        8.513122   0.000000
   16        8.581341   0.000000

  0.1538462E+00  0.7692308E-01  0.5033522E-17  0.1092399E-01
    1      -24.914017   1.000000
    2      -24.912450   1.000000
    3      -24.912354   1.000000
    4       -4.192093   1.000000
    5        1.760002   1.000000
    6        2.173978   1.000000
    7        2.201164   1.000000
    8        3.035054   1.000000
    9        3.039733   1.000000
   10        4.926547   1.000000
   11        5.802247   1.000000
   12        5.832452   1.000000
   13        6.855981   1.000000
   14        7.898131   0.000000
   15        8.326444   0.000000
   16        8.985225   0.000000

  0.2307692E+00  0.7692308E-01  0.1041650E-16  0.1092399E-01
    1      -24.915994   1.000000
    2      -24.912494   1.000000
    3      -24.912323   1.000000
    4       -3.978506   1.000000
    5        1.499042   1.000000
    6        2.105819   1.000000
    7        2.187298   1.000000
    8        3.093305   1.000000
    9        3.107668   1.000000
   10        4.278261   1.000000
   11        5.617311   1.000000
   12        5.652231   1.000000
   13        7.131818   1.000000
   14        7.921847   0.000000
   15        8.241825   0.000000
   16        9.468831   0.000000

  0.3076923E+00  0.7692308E-01  0.1059649E-16  0.1092399E-01
    1      -24.918263   1.000000
    2      -24.912497   1.000000
    3      -24.912361   1.000000
    4       -3.703995   1.000000
    5        1.191905   1.000000
    6        2.045875   1.000000
    7        2.166897   1.000000
    8        3.141145   1.000000
    9        3.154422   1.000000
   10        3.712327   1.000000
   11        5.474085   1.000000
   12        5.481363   1.000000
   13        7.296499   1.000000
   14        8.140252   0.000000
   15        8.272066   0.000000
   16        9.596330   0.000000

  0.3846154E+00  0.7692308E-01  0.1840585E-16  0.1092399E-01
    1      -24.920287   1.000000
    2      -24.912447   1.000000
    3      -24.912441   1.000000
    4       -3.419739   1.000000
    5        0.877661   1.000000
    6        2.019994   1.000000
    7        2.144649   1.000000
    8        3.151813   1.000000
    9        3.167942   1.000000
   10        3.317653   1.000000
   11        5.350676   1.000000
   12        5.389104   1.000000
   13        7.415011   1.000000
   14        8.392358   0.000000
   15        8.421095   0.000000
   16        9.062305   0.000000

  0.4615385E+00  0.7692308E-01  0.9560808E-17  0.1092399E-01
    1      -24.921621   1.000000
    2      -24.912552   1.000000
    3      -24.912362   1.000000
    4       -3.203286   1.000000
    5        0.637458   1.000000
    6        2.028485   1.000000
    7        2.114894   1.000000
    8        3.053626   1.000000
    9        3.166510   1.000000
   10        3.187400   1.000000
   11        5.269234   1.000000
   12        5.357170   1.000000
   13        7.553068   0.181078
   14        8.498021   0.000000
   15        8.534574   0.000000
   16        8.704345   0.000000

 -0.4615385E+00  0.7692308E-01  0.1713587E-16  0.1092399E-01
    1      -24.921975   1.000000
    2      -24.912674   1.000000
    3      -24.912266   1.000000
    4       -3.140360   1.000000
    5        0.568218   1.000000
    6        2.061222   1.000000
    7        2.073555   1.000000
    8        3.002127   1.000000
    9        3.172731   1.000000
   10        3.175021   1.000000
   11        5.227296   1.000000
   12        5.370648   1.000000
   13        7.632483   0.000000
   14        8.338208   0.000000
   15        8.584933   0.000000
   16        8.764843   0.000000

 -0.3846154E+00  0.7692308E-01  0.8290831E-17  0.1092399E-01
    1      -24.921251   1.000000
    2      -24.912755   1.000000
    3      -24.912171   1.000000
    4       -3.261825   1.000000
    5        0.705948   1.000000
    6        2.028704   1.000000
    7        2.106297   1.000000
    8        3.080539   1.000000
    9        3.186746   1.000000
   10        3.204950   1.000000
   11        5.213105   1.000000
   12        5.433949   1.000000
   13        7.536018   0.933189
   14        8.486143   0.000000
   15        8.521454   0.000000
   16        8.776378   0.000000

 -0.3076923E+00  0.7692308E-01 -0.2630357E-17  0.1092399E-01
    1      -24.919641   1.000000
    2      -24.912789   1.000000
    3      -24.912109   1.000000
    4       -3.510783   1.000000
    5        0.989011   1.000000
    6        1.997248   1.000000
    7        2.154488   1.000000
    8        3.133348   1.000000
    9        3.188506   1.000000
   10        3.433580   1.000000
   11        5.230474   1.000000
   12        5.558255   1.000000
   13        7.414650   1.000000
   14        8.299726   0.000000
   15        8.400593   0.000000
   16        9.262727   0.000000

 -0.2307692E+00  0.7692308E-01  0.1142742E-16  0.1092399E-01
    1      -24.917489   1.000000
    2      -24.912758   1.000000
    3      -24.912079   1.000000
    4       -3.799154   1.000000
    5        1.323469   1.000000
    6        1.993972   1.000000
    7        2.199008   1.000000
    8        3.116489   1.000000
    9        3.160470   1.000000
   10        3.887261   1.000000
   11        5.301332   1.000000
   12        5.741271   1.000000
   13        7.288312   1.000000
   14        8.107619   0.000000
   15        8.244922   0.000000
   16        9.483913   0.000000

 -0.1538462E+00  0.7692308E-01  0.5358991E-17  0.1092399E-01
    1      -24.915309   1.000000
    2      -24.912661   1.000000
    3      -24.912110   1.000000
    4       -4.057953   1.000000
    5        1.643060   1.000000
    6        2.024442   1.000000
    7        2.227819   1.000000
    8        3.065932   1.000000
    9        3.103552   1.000000
   10        4.482376   1.000000
   11        5.457070   1.000000
   12        5.945945   1.000000
   13        7.074844   1.000000
   14        7.976020   0.000000
   15        8.218700   0.000000
   16        9.073676   0.000000

 -0.7692308E-01  0.7692308E-01  0.5538984E-17  0.5461994E-02
    1      -24.913625   1.000000
    2      -24.912482   1.000000
    3      -24.912170   1.000000
    4       -4.243925   1.000000
    5        1.909278   1.000000
    6        2.082198   1.000000
    7        2.214453   1.000000
    8        3.013513   1.000000
    9        3.036685   1.000000
   10        5.072316   1.000000
   11        5.750663   1.000000
   12        6.093209   1.000000
   13        6.755552   1.000000
   14        7.978806   0.000000
   15        8.302504   0.000000
   16        8.699464   0.000000

  0.1538462E+00  0.1538462E+00  0.1839388E-17  0.2730997E-02
    1      -24.914421   1.000000
    2      -24.912629   1.000000
    3      -24.912629   1.000000
    4       -4.108741   1.000000
    5        1.539673   1.000000
    6        2.269522   1.000000
    7        2.269522   1.000000
    8        3.011880   1.000000
    9        3.070823   1.000000
   10        4.861054   1.000000
   11        5.609279   1.000000
   12        5.609279   1.000000
   13        6.908337   1.000000
   14        7.816877   0.000000
   15        8.382381   0.000000
   16        9.103851   0.000000

  0.2307692E+00  0.1538462E+00  0.4511576E-17  0.1092399E-01
    1      -24.915879   1.000000
    2      -24.912780   1.000000
    3      -24.912736   1.000000
    4       -3.934987   1.000000
    5        1.312978   1.000000
    6        2.266486   1.000000
    7        2.300742   1.000000
    8        3.023961   1.000000
    9        3.133231   1.000000
   10        4.439299   1.000000
   11        5.398558   1.000000
   12        5.426160   1.000000
   13        7.171980   1.000000
   14        7.764182   0.000000
   15        8.275097   0.000000
   16        9.386754   0.000000

  0.3076923E+00  0.1538462E+00  0.1041727E-16  0.1092399E-01
    1      -24.917786   1.000000
    2      -24.912869   1.000000
    3      -24.912833   1.000000
    4       -3.695668   1.000000
    5        1.099662   1.000000
    6        2.186952   1.000000
    7        2.301086   1.000000
    8        3.072326   1.000000
    9        3.187395   1.000000
   10        3.905807   1.000000
   11        5.190861   1.000000
   12        5.294876   1.000000
   13        7.448035   1.000000
   14        7.934515   0.000000
   15        8.233581   0.000000
   16        9.503948   0.000000

  0.3846154E+00  0.1538462E+00  0.1922463E-17  0.1092399E-01
    1      -24.919605   1.000000
    2      -24.913136   1.000000
    3      -24.912802   1.000000
    4       -3.433706   1.000000
    5        0.907194   1.000000
    6        2.091720   1.000000
    7        2.276673   1.000000
    8        3.113600   1.000000
    9        3.209842   1.000000
   10        3.454204   1.000000
   11        5.026999   1.000000
   12        5.227786   1.000000
   13        7.482005   1.000000
   14        8.309615   0.000000
   15        8.418222   0.000000
   16        9.144207   0.000000

  0.4615385E+00  0.1538462E+00  0.2083300E-16  0.1092399E-01
    1      -24.920898   1.000000
    2      -24.913462   1.000000
    3      -24.912685   1.000000
    4       -3.212585   1.000000
    5        0.753894   1.000000
    6        2.027860   1.000000
    7        2.225534   1.000000
    8        3.050905   1.000000
    9        3.214087   1.000000
   10        3.245939   1.000000
   11        4.913087   1.000000
   12        5.212160   1.000000
   13        7.541456   0.767624
   14        8.472632   0.000000
   15        8.630477   0.000000
   16        8.854614   0.000000

 -0.4615385E+00  0.1538462E+00 -0.2710309E-16  0.1092399E-01
    1      -24.921400   1.000000
    2      -24.913781   1.000000
    3      -24.912510   1.000000
    4       -3.106017   1.000000
    5        0.682337   1.000000
    6        2.024070   1.000000
    7        2.149567   1.000000
    8        2.948827   1.000000
    9        3.223185   1.000000
   10        3.240839   1.000000
   11        4.836348   1.000000
   12        5.235888   1.000000
   13        7.665125   0.000000
   14        8.306658   0.000000
   15        8.600525   0.000000
   16        9.103233   0.000000

 -0.3846154E+00  0.1538462E+00  0.1956302E-16  0.1092399E-01
    1      -24.921008   1.000000
    2      -24.913980   1.000000
    3      -24.912309   1.000000
    4       -3.158632   1.000000
    5        0.730604   1.000000
    6        2.065033   1.000000
    7        2.086394   1.000000
    8        2.974743   1.000000
    9        3.237472   1.000000
   10        3.278420   1.000000
   11        4.774677   1.000000
   12        5.304925   1.000000
   13        7.716346   0.000000
   14        8.370467   0.000000
   15        8.564056   0.000000
   16        9.110989   0.000000

 -0.3076923E+00  0.1538462E+00 -0.1063677E-17  0.1092399E-01
    1      -24.919862   1.000000
    2      -24.913993   1.000000
    3      -24.912143   1.000000
    4       -3.347833   1.000000
    5        0.888531   1.000000
    6        1.995660   1.000000
    7        2.188129   1.000000
    8        3.068288   1.000000
    9        3.238728   1.000000
   10        3.419425   1.000000
   11        4.725979   1.000000
   12        5.432674   1.000000
   13        7.704596   0.000000
   14        8.397611   0.000000
   15        8.640289   0.000000
   16        9.050851   0.000000

 -0.2307692E+00  0.1538462E+00 -0.5055961E-17  0.1092399E-01
    1      -24.918261   1.000000
    2      -24.913757   1.000000
    3      -24.912047   1.000000
    4       -3.604164   1.000000
    5        1.115318   1.000000
    6        1.960901   1.000000
    7        2.276039   1.000000
    8        3.103206   1.000000
    9        3.213115   1.000000
   10        3.761609   1.000000
   11        4.740208   1.000000
   12        5.615541   1.000000
   13        7.724581   0.000000
   14        8.194054   0.000000
   15        8.414275   0.000000
   16        9.205926   0.000000

 -0.1538462E+00  0.1538462E+00 -0.1112439E-16  0.5461994E-02
    1      -24.916612   1.000000
    2      -24.913273   1.000000
    3      -24.912028   1.000000
    4       -3.857636   1.000000
    5        1.376836   1.000000
    6        1.970722   1.000000
    7        2.298915   1.000000
    8        3.086641   1.000000
    9        3.163069   1.000000
   10        4.179754   1.000000
   11        4.948311   1.000000
   12        5.813294   1.000000
   13        7.546393   0.513095
   14        8.027297   0.000000
   15        8.227863   0.000000
   16        9.056463   0.000000

  0.2307692E+00  0.2307692E+00  0.2759082E-17  0.2730997E-02
    1      -24.916699   1.000000
    2      -24.913020   1.000000
    3      -24.913020   1.000000
    4       -3.807058   1.000000
    5        1.114058   1.000000
    6        2.385865   1.000000
    7        2.385865   1.000000
    8        2.949364   1.000000
    9        3.192792   1.000000
   10        4.330553   1.000000
   11        5.236206   1.000000
   12        5.236206   1.000000
   13        7.038378   1.000000
   14        7.794819   0.000000
   15        8.190562   0.000000
   16        9.486946   0.000000

  0.3076923E+00  0.2307692E+00 -0.3989963E-17  0.1092399E-01
    1      -24.918122   1.000000
    2      -24.913254   1.000000
    3      -24.913177   1.000000
    4       -3.615353   1.000000
    5        0.957685   1.000000
    6        2.377712   1.000000
    7        2.428231   1.000000
    8        2.950954   1.000000
    9        3.254730   1.000000
   10        3.976912   1.000000
   11        5.014031   1.000000
   12        5.098182   1.000000
   13        7.213924   1.000000
   14        7.886163   0.000000
   15        8.111783   0.000000
   16        9.495633   0.000000

  0.3846154E+00  0.2307692E+00  0.1527080E-16  0.1092399E-01
    1      -24.919510   1.000000
    2      -24.913693   1.000000
    3      -24.913199   1.000000
    4       -3.395546   1.000000
    5        0.864724   1.000000
    6        2.262212   1.000000
    7        2.425142   1.000000
    8        3.025140   1.000000
    9        3.286263   1.000000
   10        3.554085   1.000000
   11        4.763796   1.000000
   12        5.032814   1.000000
   13        7.355711   1.000000
   14        8.145019   0.000000
   15        8.294773   0.000000
   16        9.210563   0.000000

  0.4615385E+00  0.2307692E+00  0.6425763E-17  0.1092399E-01
    1      -24.920461   1.000000
    2      -24.914327   1.000000
    3      -24.913090   1.000000
    4       -3.197511   1.000000
    5        0.837443   1.000000
    6        2.119917   1.000000
    7        2.373262   1.000000
    8        3.025187   1.000000
    9        3.284509   1.000000
   10        3.292546   1.000000
   11        4.565007   1.000000
   12        5.025269   1.000000
   13        7.407694   1.000000
   14        8.322698   0.000000
   15        8.751503   0.000000
   16        8.881686   0.000000

 -0.4615385E+00  0.2307692E+00 -0.5410197E-17  0.1092399E-01
    1      -24.920745   1.000000
    2      -24.915013   1.000000
    3      -24.912878   1.000000
    4       -3.076452   1.000000
    5        0.852470   1.000000
    6        2.011530   1.000000
    7        2.277169   1.000000
    8        2.875197   1.000000
    9        3.297704   1.000000
   10        3.313167   1.000000
   11        4.428485   1.000000
   12        5.055480   1.000000
   13        7.516605   0.999989
   14        8.399645   0.000000
   15        8.568143   0.000000
   16        9.217093   0.000000

 -0.3846154E+00  0.2307692E+00 -0.1425524E-16  0.1092399E-01
    1      -24.920395   1.000000
    2      -24.915519   1.000000
    3      -24.912605   1.000000
    4       -3.072208   1.000000
    5        0.869346   1.000000
    6        2.006878   1.000000
    7        2.160178   1.000000
    8        2.850359   1.000000
    9        3.303839   1.000000
   10        3.390411   1.000000
   11        4.338327   1.000000
   12        5.126917   1.000000
   13        7.689909   0.000000
   14        8.250104   0.000000
   15        8.653119   0.000000
   16        9.218809   0.000000

 -0.3076923E+00  0.2307692E+00  0.2199017E-16  0.1092399E-01
    1      -24.919678   1.000000
    2      -24.915533   1.000000
    3      -24.912334   1.000000
    4       -3.186885   1.000000
    5        0.890807   1.000000
    6        2.053505   1.000000
    7        2.112147   1.000000
    8        2.948450   1.000000
    9        3.295182   1.000000
   10        3.491389   1.000000
   11        4.292613   1.000000
   12        5.253353   1.000000
   13        7.789825   0.000000
   14        8.481958   0.000000
   15        8.537393   0.000000
   16        9.135763   0.000000

 -0.2307692E+00  0.2307692E+00  0.3439623E-17  0.5461994E-02
    1      -24.918940   1.000000
    2      -24.914864   1.000000
    3      -24.912130   1.000000
    4       -3.382871   1.000000
    5        0.964855   1.000000
    6        1.982206   1.000000
    7        2.234121   1.000000
    8        3.058624   1.000000
    9        3.262846   1.000000
   10        3.633797   1.000000
   11        4.377891   1.000000
   12        5.429531   1.000000
   13        7.828294   0.000000
   14        8.358224   0.000000
   15        8.794644   0.000000
   16        9.073070   0.000000

  0.3076923E+00  0.3076923E+00  0.3678775E-17  0.2730997E-02
    1      -24.919167   1.000000
    2      -24.913430   1.000000
    3      -24.913430   1.000000
    4       -3.478931   1.000000
    5        0.852206   1.000000
    6        2.518868   1.000000
    7        2.518868   1.000000
    8        2.829823   1.000000
    9        3.332913   1.000000
   10        3.794419   1.000000
   11        4.939927   1.000000
   12        4.939927   1.000000
   13        7.047093   1.000000
   14        7.905932   0.000000
   15        7.975699   0.000000
   16        9.450666   0.000000

  0.3846154E+00  0.3076923E+00  0.1213796E-17  0.1092399E-01
    1      -24.920264   1.000000
    2      -24.913762   1.000000
    3      -24.913539   1.000000
    4       -3.315039   1.000000
    5        0.823236   1.000000
    6        2.460580   1.000000
    7        2.555488   1.000000
    8        2.876257   1.000000
    9        3.382085   1.000000
   10        3.472577   1.000000
   11        4.727905   1.000000
   12        4.856389   1.000000
   13        7.129952   1.000000
   14        7.935078   0.000000
   15        8.097540   0.000000
   16        9.234316   0.000000

  0.4615385E+00  0.3076923E+00  0.6246544E-17  0.1092399E-01
    1      -24.920888   1.000000
    2      -24.914469   1.000000
    3      -24.913493   1.000000
    4       -3.160941   1.000000
    5        0.881112   1.000000
    6        2.289142   1.000000
    7        2.526831   1.000000
    8        2.949889   1.000000
    9        3.208816   1.000000
   10        3.391433   1.000000
   11        4.436024   1.000000
   12        4.843876   1.000000
   13        7.217780   1.000000
   14        8.067363   0.000000
   15        8.596636   0.000000
   16        8.907979   0.000000

 -0.4615385E+00  0.3076923E+00  0.5861994E-17  0.1092399E-01
    1      -24.920812   1.000000
    2      -24.915468   1.000000
    3      -24.913299   1.000000
    4       -3.053688   1.000000
    5        0.994342   1.000000
    6        2.098029   1.000000
    7        2.432799   1.000000
    8        2.770945   1.000000
    9        3.307731   1.000000
   10        3.385084   1.000000
   11        4.187316   1.000000
   12        4.876929   1.000000
   13        7.311448   1.000000
   14        8.383733   0.000000
   15        8.524140   0.000000
   16        9.108936   0.000000

 -0.3846154E+00  0.3076923E+00 -0.2983046E-17  0.1092399E-01
    1      -24.920107   1.000000
    2      -24.916462   1.000000
    3      -24.912992   1.000000
    4       -3.019630   1.000000
    5        1.058709   1.000000
    6        1.956326   1.000000
    7        2.298235   1.000000
    8        2.709643   1.000000
    9        3.372339   1.000000
   10        3.470697   1.000000
   11        4.028852   1.000000
   12        4.952114   1.000000
   13        7.482652   1.000000
   14        8.295835   0.000000
   15        8.715814   0.000000
   16        9.074694   0.000000

 -0.3076923E+00  0.3076923E+00 -0.2224879E-16  0.5461994E-02
    1      -24.919494   1.000000
    2      -24.916686   1.000000
    3      -24.912643   1.000000
    4       -3.067665   1.000000
    5        0.984941   1.000000
    6        1.989804   1.000000
    7        2.161146   1.000000
    8        2.801420   1.000000
    9        3.343226   1.000000
   10        3.550113   1.000000
   11        4.036370   1.000000
   12        5.080279   1.000000
   13        7.699577   0.000000
   14        8.248760   0.000000
   15        8.678961   0.000000
   16        9.030433   0.000000

  0.3846154E+00  0.3846154E+00  0.4598469E-17  0.2730997E-02
    1      -24.921248   1.000000
    2      -24.913768   1.000000
    3      -24.913768   1.000000
    4       -3.212770   1.000000
    5        0.838505   1.000000
    6        2.637326   1.000000
    7        2.637326   1.000000
    8        2.706082   1.000000
    9        3.225589   1.000000
   10        3.459263   1.000000
   11        4.742756   1.000000
   12        4.742756   1.000000
   13        7.015362   1.000000
   14        7.786976   0.000000
   15        7.980178   0.000000
   16        9.188182   0.000000

  0.4615385E+00  0.3846154E+00  0.2077529E-17  0.1092399E-01
    1      -24.921811   1.000000
    2      -24.914128   1.000000
    3      -24.913810   1.000000
    4       -3.114245   1.000000
    5        0.926482   1.000000
    6        2.481840   1.000000
    7        2.649196   1.000000
    8        2.815974   1.000000
    9        2.990639   1.000000
   10        3.484844   1.000000
   11        4.558386   1.000000
   12        4.708975   1.000000
   13        7.056422   1.000000
   14        7.805085   0.000000
   15        8.172042   0.000000
   16        8.987368   0.000000

 -0.4615385E+00  0.3846154E+00  0.1160270E-17  0.1092399E-01
    1      -24.921653   1.000000
    2      -24.914931   1.000000
    3      -24.913667   1.000000
    4       -3.041865   1.000000
    5        1.056800   1.000000
    6        2.287437   1.000000
    7        2.581681   1.000000
    8        2.651976   1.000000
    9        3.140122   1.000000
   10        3.468318   1.000000
   11        4.262810   1.000000
   12        4.737852   1.000000
   13        7.138631   1.000000
   14        8.038622   0.000000
   15        8.560344   0.000000
   16        8.888663   0.000000

 -0.3846154E+00  0.3846154E+00 -0.7684770E-17  0.5461994E-02
    1      -24.920860   1.000000
    2      -24.915957   1.000000
    3      -24.913374   1.000000
    4       -3.008900   1.000000
    5        1.139894   1.000000
    6        2.061151   1.000000
    7        2.451677   1.000000
    8        2.608120   1.000000
    9        3.362003   1.000000
   10        3.429366   1.000000
   11        4.027731   1.000000
   12        4.818059   1.000000
   13        7.275095   1.000000
   14        8.444028   0.000000
   15        8.454202   0.000000
   16        8.908990   0.000000

  0.4615385E+00  0.4615385E+00  0.5518163E-17  0.2730997E-02
    1      -24.922433   1.000000
    2      -24.913963   1.000000
    3      -24.913963   1.000000
    4       -3.072379   1.000000
    5        0.991258   1.000000
    6        2.622889   1.000000
    7        2.707686   1.000000
    8        2.707686   1.000000
    9        2.769669   1.000000
   10        3.535545   1.000000
   11        4.646663   1.000000
   12        4.646663   1.000000
   13        6.989536   1.000000
   14        7.675328   0.000000
   15        7.954406   0.000000
   16        8.992346   0.000000

 -0.4615385E+00  0.4615385E+00  0.2726949E-17  0.5461994E-02
    1      -24.922368   1.000000
    2      -24.914251   1.000000
    3      -24.913904   1.000000
    4       -3.046963   1.000000
    5        1.048021   1.000000
    6        2.508019   1.000000
    7        2.595929   1.000000
    8        2.683468   1.000000
    9        2.916746   1.000000
   10        3.525851   1.000000
   11        4.503254   1.000000
   12        4.658806   1.000000
   13        7.028959   1.000000
   14        7.758147   0.000000
   15        8.155817   0.000000
   16        8.902303   0.000000

  0.2307692E+00  0.1538462E+00  0.7692308E-01  0.1092399E-01
    1      -24.915183   1.000000
    2      -24.912802   1.000000
    3      -24.912282   1.000000
    4       -4.042723   1.000000
    5        1.526967   1.000000
    6        2.126380   1.000000
    7        2.278261   1.000000
    8        3.051140   1.000000
    9        3.098175   1.000000
   10        4.581652   1.000000
   11        5.349978   1.000000
   12        5.802348   1.000000
   13        7.168863   1.000000
   14        7.821812   0.000000
   15        8.298839   0.000000
   16        9.056977   0.000000

  0.3076923E+00  0.1538462E+00  0.7692308E-01  0.2184797E-01
    1      -24.916980   1.000000
    2      -24.913117   1.000000
    3      -24.912251   1.000000
    4       -3.815414   1.000000
    5        1.276787   1.000000
    6        2.065932   1.000000
    7        2.290039   1.000000
    8        3.089767   1.000000