 vasp.6.0.8 29Jun18 (build Jun 13 2019 12:54:44) complex

 executed on      IFC18_CrayMPICH date 2021.12.05  14:21:53
 running   64 mpi-ranks, with    1 threads/rank
 distrk:  each k-point on   16 cores,    4 groups
 distr:  one band on NCORES_PER_BAND=   4 cores,    4 groups


--------------------------------------------------------------------------------------------------------


 INCAR:
 POTCAR:    PAW_PBE Hf_pv 06Sep2000
 POTCAR:    PAW_PBE Sb 06Sep2000
 POTCAR:    PAW_PBE Pt 04Feb2005
 POTCAR:    PAW_PBE Hf_pv 06Sep2000
   VRHFIN =Hf: 5p6s5d
   LEXCH  = PE
   EATOM  =   860.9206 eV,   63.2759 Ry

   TITEL  = PAW_PBE Hf_pv 06Sep2000
   LULTRA =        F    use ultrasoft PP ?
   IUNSCR =        1    unscreen: 0-lin 1-nonlin 2-no
   RPACOR =    2.500    partial core radius
   POMASS =  178.490; ZVAL   =   10.000    mass and valenz
   RCORE  =    2.600    outmost cutoff radius
   RWIGS  =    3.050; RWIGS  =    1.614    wigner-seitz radius (au A)
   ENMAX  =  220.334; ENMIN  =  165.250 eV
   RCLOC  =    2.212    cutoff for local pot
   LCOR   =        T    correct aug charges
   LPAW   =        T    paw PP
   EAUG   =  380.878
   DEXC   =    0.000
   RMAX   =    2.665    core radius for proj-oper
   RAUG   =    1.300    factor for augmentation sphere
   RDEP   =    2.681    radius for radial grids
   RDEPT  =    2.139    core radius for aug-charge

   Atomic configuration
   15 entries
     n  l   j            E        occ.
     1  0  0.50    -65259.4397   2.0000
     2  0  0.50    -11157.9884   2.0000
     2  1  1.50     -9795.2114   6.0000
     3  0  0.50     -2541.4060   2.0000
     3  1  1.50     -2134.4772   6.0000
     3  2  2.50     -1653.5420  10.0000
     4  0  0.50      -510.9577   2.0000
     4  1  1.50      -377.5024   6.0000
     4  2  2.50      -205.2086  10.0000
     4  3  3.50       -15.4906  14.0000
     5  0  0.50       -65.6020   2.0000
     5  1  1.50       -34.2798   6.0000
     5  2  2.50        -1.9877   3.0000
     6  0  0.50        -4.7357   1.0000
     5  3  2.50        -1.3606   0.0000
   Description
     l       E           TYP  RCUT    TYP  RCUT
     1    -34.2797769     23  2.500
     1    -35.6403595     23  2.500
     2     -1.9876655     23  2.500
     2      0.0744675     23  2.500
     0     -4.7356889     23  2.600
     0      3.2364748     23  2.600
  local pseudopotential read in
  partial core-charges read in
  partial kinetic energy density read in
  atomic valenz-charges read in
  non local Contribution for L=           1  read in
    real space projection operators read in
  non local Contribution for L=           1  read in
    real space projection operators read in
  non local Contribution for L=           2  read in
    real space projection operators read in
  non local Contribution for L=           2  read in
    real space projection operators read in
  non local Contribution for L=           0  read in
    real space projection operators read in
  non local Contribution for L=           0  read in
    real space projection operators read in
    PAW grid and wavefunctions read in

   number of l-projection  operators is LMAX  =           6
   number of lm-projection operators is LMMAX =          18

 POTCAR:    PAW_PBE Sb 06Sep2000
   VRHFIN =Sb: s2p3
   LEXCH  = PE
   EATOM  =   149.9515 eV,   11.0211 Ry

   TITEL  = PAW_PBE Sb 06Sep2000
   LULTRA =        F    use ultrasoft PP ?
   IUNSCR =        1    unscreen: 0-lin 1-nonlin 2-no
   RPACOR =    2.200    partial core radius
   POMASS =  121.750; ZVAL   =    5.000    mass and valenz
   RCORE  =    2.300    outmost cutoff radius
   RWIGS  =    2.980; RWIGS  =    1.577    wigner-seitz radius (au A)
   ENMAX  =  172.069; ENMIN  =  129.052 eV
   ICORE  =        3    local potential
   LCOR   =        T    correct aug charges
   LPAW   =        T    paw PP
   EAUG   =  380.513
   DEXC   =    0.000
   RMAX   =    2.346    core radius for proj-oper
   RAUG   =    1.300    factor for augmentation sphere
   RDEP   =    2.360    radius for radial grids
   RDEPT  =    2.192    core radius for aug-charge

   Atomic configuration
   13 entries
     n  l   j            E        occ.
     1  0  0.50    -30298.2797   2.0000
     2  0  0.50     -4610.2252   2.0000
     2  1  1.50     -4138.3407   6.0000
     3  0  0.50      -903.8815   2.0000
     3  1  1.50      -750.1337   6.0000
     3  2  2.50      -515.7092  10.0000
     4  0  0.50      -148.8034   2.0000
     4  1  1.50      -101.7581   6.0000
     4  2  2.50       -33.5048  10.0000
     5  0  0.50       -12.8298   2.0000
     5  1  0.50        -4.8276   3.0000
     5  2  1.50        -4.0817   0.0000
     4  3  2.50        -4.0817   0.0000
   Description
     l       E           TYP  RCUT    TYP  RCUT
     0    -12.8297861     23  2.300
     0     13.6058260     23  2.300
     1     -4.8275512     23  2.300
     1     -0.7245443     23  2.300
     2     -4.0817478     23  2.300
     3     -1.3605826     23  2.300
  local pseudopotential read in
  partial core-charges read in
  partial kinetic energy density read in
  atomic valenz-charges read in
  non local Contribution for L=           0  read in
    real space projection operators read in
  non local Contribution for L=           0  read in
    real space projection operators read in
  non local Contribution for L=           1  read in
    real space projection operators read in
  non local Contribution for L=           1  read in
    real space projection operators read in
  non local Contribution for L=           2  read in
    real space projection operators read in
    PAW grid and wavefunctions read in

   number of l-projection  operators is LMAX  =           5
   number of lm-projection operators is LMMAX =          13

 POTCAR:    PAW_PBE Pt 04Feb2005
   VRHFIN =Pt: s1d9
   LEXCH  = PE
   EATOM  =   729.1176 eV,   53.5886 Ry

   TITEL  = PAW_PBE Pt 04Feb2005
   LULTRA =        F    use ultrasoft PP ?
   IUNSCR =        1    unscreen: 0-lin 1-nonlin 2-no
   RPACOR =    2.330    partial core radius
   POMASS =  195.080; ZVAL   =   10.000    mass and valenz
   RCORE  =    2.600    outmost cutoff radius
   RWIGS  =    2.750; RWIGS  =    1.455    wigner-seitz radius (au A)
   ENMAX  =  230.283; ENMIN  =  172.712 eV
   ICORE  =        3    local potential
   LCOR   =        T    correct aug charges
   LPAW   =        T    paw PP
   EAUG   =  358.966
   DEXC   =    0.000
   RMAX   =    2.658    core radius for proj-oper
   RAUG   =    1.300    factor for augmentation sphere
   RDEP   =    2.761    radius for radial grids
   RDEPT  =    2.203    core radius for aug-charge

   Atomic configuration
   16 entries
     n  l   j            E        occ.
     1  0  0.50    -78401.1885   2.0000
     2  0  0.50    -13770.7750   2.0000
     2  1  1.50    -11931.0468   6.0000
     3  0  0.50     -3234.7234   2.0000
     3  1  1.50     -2699.2216   6.0000
     3  2  2.50     -2119.5714  10.0000
     4  0  0.50      -695.1528   2.0000
     4  1  1.50      -519.6034   6.0000
     4  2  2.50      -306.6786  10.0000
     4  3  3.50       -70.1041  14.0000
     5  0  0.50      -101.7747   2.0000
     5  1  1.50       -55.9873   6.0000
     5  2  2.50        -6.1423   9.0000
     6  0  0.50        -5.6573   1.0000
     6  1  1.50        -6.8029   0.0000
     5  3  2.50        -1.3606   0.0000
   Description
     l       E           TYP  RCUT    TYP  RCUT
     2     -6.1423404     23  2.500
     2     -7.5029230     23  2.500
     0     -5.6573207     23  2.500
     0      0.7416693     23  2.500
     1     -2.7211652     23  2.600
     1     20.4087390     23  2.600
     3     -1.3605826     23  2.500
  local pseudopotential read in
  partial core-charges read in
  partial kinetic energy density read in
  atomic valenz-charges read in
  non local Contribution for L=           2  read in
    real space projection operators read in
  non local Contribution for L=           2  read in
    real space projection operators read in
  non local Contribution for L=           0  read in
    real space projection operators read in
  non local Contribution for L=           0  read in
    real space projection operators read in
  non local Contribution for L=           1  read in
    real space projection operators read in
  non local Contribution for L=           1  read in
    real space projection operators read in
    PAW grid and wavefunctions read in

   number of l-projection  operators is LMAX  =           6
   number of lm-projection operators is LMMAX =          18


 -----------------------------------------------------------------------------
|                                                                             |
|  ADVICE TO THIS USER RUNNING 'VASP/VAMP'   (HEAR YOUR MASTER'S VOICE ...):  |
|                                                                             |
|      You enforced a specific xc-type in the INCAR file,                     |
|      a different type was found on the POTCAR file                          |
|          I HOPE YOU KNOW, WHAT YOU ARE  DOING                               |
|                                                                             |
 -----------------------------------------------------------------------------

  PAW_PBE Hf_pv 06Sep2000               :
 energy of atom  1       EATOM= -860.9206
 kinetic energy error for atom=    0.0004 (will be added to EATOM!!)
  PAW_PBE Sb 06Sep2000                  :
 energy of atom  2       EATOM= -149.9515
 kinetic energy error for atom=    0.0002 (will be added to EATOM!!)
  PAW_PBE Pt 04Feb2005                  :
 energy of atom  3       EATOM= -729.1176
 kinetic energy error for atom=    0.0010 (will be added to EATOM!!)


 POSCAR: Hf1 Sb1 Pt1
  positions in direct lattice
  No initial velocities read in
 exchange correlation table for  LEXCH =       14
   RHO(1)=    0.500       N(1)  =     2000
   RHO(2)=  100.500       N(2)  =     4000



--------------------------------------------------------------------------------------------------------


 ion  position               nearest neighbor table
   1  0.750  0.750  0.750-   3 2.86   3 2.86   3 2.86   3 2.86   2 3.30   2 3.30   2 3.30   2 3.30
                             2 3.30   2 3.30
   2  0.250  0.250  0.250-   3 2.86   3 2.86   3 2.86   3 2.86   1 3.30   1 3.30   1 3.30   1 3.30
                             1 3.30   1 3.30
   3  0.000  0.000  0.000-   1 2.86   1 2.86   1 2.86   2 2.86   2 2.86   2 2.86   2 2.86   1 2.86


  LATTYP: Found a face centered cubic cell.
 ALAT       =     6.6012883696

  Lattice vectors:

 A1 = (   0.0000000000,   3.3006441848,   3.3006441848)
 A2 = (   3.3006441848,   0.0000000000,   3.3006441848)
 A3 = (   3.3006441848,   3.3006441848,   0.0000000000)


Analysis of symmetry for initial positions (statically):
=====================================================================
 Subroutine PRICEL returns:
 Original cell was already a primitive cell.


 Routine SETGRP: Setting up the symmetry group for a
 face centered cubic supercell.


 Subroutine GETGRP returns: Found 24 space group operations
 (whereof 24 operations were pure point group operations)
 out of a pool of 48 trial point group operations.


The static configuration has the point symmetry T_d .


Analysis of symmetry for dynamics (positions and initial velocities):
=====================================================================
 Subroutine PRICEL returns:
 Original cell was already a primitive cell.


 Routine SETGRP: Setting up the symmetry group for a
 face centered cubic supercell.


 Subroutine GETGRP returns: Found 24 space group operations
 (whereof 24 operations were pure point group operations)
 out of a pool of 48 trial point group operations.


The dynamic configuration has the point symmetry T_d .


 Subroutine INISYM returns: Found 24 space group operations
 (whereof 24 operations are pure point group operations),
 and found     1 'primitive' translations


----------------------------------------------------------------------------------------

                                     Primitive cell

  volume of cell :      71.9161

  direct lattice vectors                    reciprocal lattice vectors
     0.000000000  3.300644185  3.300644185    -0.151485580  0.151485580  0.151485580
     3.300644185  0.000000000  3.300644185     0.151485580 -0.151485580  0.151485580
     3.300644185  3.300644185  0.000000000     0.151485580  0.151485580 -0.151485580

  length of vectors
     4.667815771  4.667815771  4.667815771     0.262380722  0.262380722  0.262380722

  position of ions in fractional coordinates (direct lattice)
     0.750000000  0.750000000  0.750000000
     0.250000000  0.250000000  0.250000000
     0.000000000  0.000000000  0.000000000

  ion indices of the primitive-cell ions
   primitive index   ion index
                 1           1
                 2           2
                 3           3

----------------------------------------------------------------------------------------



 KPOINTS: KPOINTS

Automatic generation of k-mesh.
Space group operators:
 irot       det(A)        alpha          n_x          n_y          n_z        tau_x        tau_y        tau_z
    1     1.000000     0.000000     1.000000     0.000000     0.000000     0.000000     0.000000     0.000000
    2     1.000000   120.000000    -0.577350    -0.577350    -0.577350     0.000000     0.000000     0.000000
    3     1.000000   120.000000     0.577350     0.577350     0.577350     0.000000     0.000000     0.000000
    4    -1.000000    90.000000    -0.000000    -0.000000    -1.000000     0.000000     0.000000     0.000000
    5    -1.000000   180.000000    -0.000000     0.707107     0.707107     0.000000     0.000000     0.000000
    6    -1.000000    90.000000    -0.000000     1.000000    -0.000000     0.000000     0.000000     0.000000
    7     1.000000   180.000000    -0.000000     0.000000     1.000000     0.000000     0.000000     0.000000
    8     1.000000   120.000000    -0.577350     0.577350     0.577350     0.000000     0.000000     0.000000
    9     1.000000   120.000000    -0.577350     0.577350    -0.577350     0.000000     0.000000     0.000000
   10    -1.000000    90.000000     0.000000     0.000000     1.000000     0.000000     0.000000     0.000000
   11    -1.000000    90.000000    -1.000000     0.000000    -0.000000     0.000000     0.000000     0.000000
   12    -1.000000   180.000000     0.707107     0.000000     0.707107     0.000000     0.000000     0.000000
   13     1.000000   120.000000     0.577350    -0.577350     0.577350     0.000000     0.000000     0.000000
   14     1.000000   120.000000    -0.577350    -0.577350     0.577350     0.000000     0.000000     0.000000
   15     1.000000   180.000000     1.000000     0.000000     0.000000     0.000000     0.000000     0.000000
   16    -1.000000    90.000000     0.000000    -1.000000     0.000000     0.000000     0.000000     0.000000
   17    -1.000000   180.000000     0.707107     0.707107    -0.000000     0.000000     0.000000     0.000000
   18    -1.000000    90.000000     1.000000     0.000000     0.000000     0.000000     0.000000     0.000000
   19     1.000000   120.000000     0.577350    -0.577350    -0.577350     0.000000     0.000000     0.000000
   20     1.000000   179.999999     0.000000    -1.000000    -0.000000     0.000000     0.000000     0.000000
   21     1.000000   120.000000     0.577350     0.577350    -0.577350     0.000000     0.000000     0.000000
   22    -1.000000   180.000000    -0.000000    -0.707107     0.707107     0.000000     0.000000     0.000000
   23    -1.000000   180.000000     0.707107    -0.707107    -0.000000     0.000000     0.000000     0.000000
   24    -1.000000   180.000000    -0.707107     0.000000     0.707107     0.000000     0.000000     0.000000

 Subroutine IBZKPT returns following result:
 ===========================================

 Found     84 irreducible k-points:

 Following reciprocal coordinates:
            Coordinates               Weight
  0.000000  0.000000  0.000000      1.000000
  0.076923  0.000000 -0.000000      8.000000
  0.153846 -0.000000  0.000000      8.000000
  0.230769  0.000000  0.000000      8.000000
  0.307692 -0.000000  0.000000      8.000000
  0.384615 -0.000000  0.000000      8.000000
  0.461538  0.000000  0.000000      8.000000
  0.076923  0.076923  0.000000      6.000000
  0.153846  0.076923  0.000000     24.000000
  0.230769  0.076923  0.000000     24.000000
  0.307692  0.076923  0.000000     24.000000
  0.384615  0.076923  0.000000     24.000000
  0.461538  0.076923  0.000000     24.000000
 -0.461538  0.076923  0.000000     24.000000
 -0.384615  0.076923  0.000000     24.000000
 -0.307692  0.076923 -0.000000     24.000000
 -0.230769  0.076923  0.000000     24.000000
 -0.153846  0.076923  0.000000     24.000000
 -0.076923  0.076923  0.000000     12.000000
  0.153846  0.153846  0.000000      6.000000
  0.230769  0.153846  0.000000     24.000000
  0.307692  0.153846  0.000000     24.000000
  0.384615  0.153846  0.000000     24.000000
  0.461538  0.153846  0.000000     24.000000
 -0.461538  0.153846 -0.000000     24.000000
 -0.384615  0.153846  0.000000     24.000000
 -0.307692  0.153846 -0.000000     24.000000
 -0.230769  0.153846 -0.000000     24.000000
 -0.153846  0.153846 -0.000000     12.000000
  0.230769  0.230769  0.000000      6.000000
  0.307692  0.230769 -0.000000     24.000000
  0.384615  0.230769  0.000000     24.000000
  0.461538  0.230769  0.000000     24.000000
 -0.461538  0.230769 -0.000000     24.000000
 -0.384615  0.230769 -0.000000     24.000000
 -0.307692  0.230769  0.000000     24.000000
 -0.230769  0.230769  0.000000     12.000000
  0.307692  0.307692  0.000000      6.000000
  0.384615  0.307692  0.000000     24.000000
  0.461538  0.307692  0.000000     24.000000
 -0.461538  0.307692  0.000000     24.000000
 -0.384615  0.307692 -0.000000     24.000000
 -0.307692  0.307692 -0.000000     12.000000
  0.384615  0.384615  0.000000      6.000000
  0.461538  0.384615  0.000000     24.000000
 -0.461538  0.384615  0.000000     24.000000
 -0.384615  0.384615 -0.000000     12.000000
  0.461538  0.461538  0.000000      6.000000
 -0.461538  0.461538  0.000000     12.000000
  0.230769  0.153846  0.076923     24.000000
  0.307692  0.153846  0.076923     48.000000
  0.384615  0.153846  0.076923     48.000000
  0.461538  0.153846  0.076923     48.000000
 -0.461538  0.153846  0.076923     48.000000
  0.307692  0.230769  0.076923     24.000000
  0.384615  0.230769  0.076923     48.000000
  0.461538  0.230769  0.076923     48.000000
 -0.461538  0.230769  0.076923     48.000000
 -0.384615  0.230769  0.076923     48.000000
 -0.307692  0.230769  0.076923     48.000000
 -0.230769  0.230769  0.076923     48.000000
 -0.153846  0.230769  0.076923     24.000000
  0.384615  0.307692  0.076923     24.000000
  0.461538  0.307692  0.076923     48.000000
 -0.461538  0.307692  0.076923     48.000000
 -0.384615  0.307692  0.076923     48.000000
 -0.307692  0.307692  0.076923     48.000000
 -0.230769  0.307692  0.076923     24.000000
  0.461538  0.384615  0.076923     24.000000
 -0.461538  0.384615  0.076923     48.000000
 -0.384615  0.384615  0.076923     48.000000
 -0.307692  0.384615  0.076923     24.000000
 -0.461538  0.461538  0.076923     24.000000
 -0.384615  0.461538  0.076923     24.000000
  0.461538  0.307692  0.153846     24.000000
 -0.461538  0.307692  0.153846     48.000000
 -0.384615  0.307692  0.153846     48.000000
 -0.461538  0.384615  0.153846     24.000000
 -0.384615  0.384615  0.153846     48.000000
 -0.307692  0.384615  0.153846     48.000000
 -0.230769  0.384615  0.153846     24.000000
 -0.384615  0.461538  0.153846     24.000000
 -0.307692  0.461538  0.153846     24.000000
 -0.307692  0.461538  0.230769     24.000000

 Following cartesian coordinates:
            Coordinates               Weight
  0.000000  0.000000  0.000000      1.000000
 -0.012101  0.012101  0.012101      8.000000
 -0.024203  0.024203  0.024203      8.000000
 -0.036304  0.036304  0.036304      8.000000
 -0.048405  0.048405  0.048405      8.000000
 -0.060507  0.060507  0.060507      8.000000
 -0.072608  0.072608  0.072608      8.000000
 -0.000000  0.000000  0.024203      6.000000
 -0.012101  0.012101  0.036304     24.000000
 -0.024203  0.024203  0.048405     24.000000
 -0.036304  0.036304  0.060507     24.000000
 -0.048405  0.048405  0.072608     24.000000
 -0.060507  0.060507  0.084709     24.000000
  0.084709 -0.084709 -0.060507     24.000000
  0.072608 -0.072608 -0.048405     24.000000
  0.060507 -0.060507 -0.036304     24.000000
  0.048405 -0.048405 -0.024203     24.000000
  0.036304 -0.036304 -0.012101     24.000000
  0.024203 -0.024203 -0.000000     12.000000
  0.000000 -0.000000  0.048405      6.000000
 -0.012101  0.012101  0.060507     24.000000
 -0.024203  0.024203  0.072608     24.000000
 -0.036304  0.036304  0.084709     24.000000
 -0.048405  0.048405  0.096811     24.000000
  0.096811 -0.096811 -0.048405     24.000000
  0.084709 -0.084709 -0.036304     24.000000
  0.072608 -0.072608 -0.024203     24.000000
  0.060507 -0.060507 -0.012101     24.000000
  0.048405 -0.048405  0.000000     12.000000
 -0.000000  0.000000  0.072608      6.000000
 -0.012101  0.012101  0.084709     24.000000
 -0.024203  0.024203  0.096811     24.000000
 -0.036304  0.036304  0.108912     24.000000
  0.108912 -0.108912 -0.036304     24.000000
  0.096811 -0.096811 -0.024203     24.000000
  0.084709 -0.084709 -0.012101     24.000000
  0.072608 -0.072608 -0.000000     12.000000
  0.000000 -0.000000  0.096811      6.000000
 -0.012101  0.012101  0.108912     24.000000
 -0.024203  0.024203  0.121014     24.000000
  0.121014 -0.121014 -0.024203     24.000000
  0.108912 -0.108912 -0.012101     24.000000
  0.096811 -0.096811  0.000000     12.000000
  0.000000 -0.000000  0.121014      6.000000
 -0.012101  0.012101  0.133115     24.000000
  0.133115 -0.133115 -0.012101     24.000000
  0.121014 -0.121014 -0.000000     12.000000
 -0.000000  0.000000  0.145216      6.000000
  0.145216 -0.145216 -0.000000     12.000000
 -0.000000  0.024203  0.048405     24.000000
 -0.012101  0.036304  0.060507     48.000000
 -0.024203  0.048405  0.072608     48.000000
 -0.036304  0.060507  0.084709     48.000000
  0.108912 -0.084709 -0.060507     48.000000
  0.000000  0.024203  0.072608     24.000000
 -0.012101  0.036304  0.084709     48.000000
 -0.024203  0.048405  0.096811     48.000000
  0.121014 -0.096811 -0.048405     48.000000
  0.108912 -0.084709 -0.036304     48.000000
  0.096811 -0.072608 -0.024203     48.000000
  0.084709 -0.060507 -0.012101     48.000000
  0.072608 -0.048405 -0.000000     24.000000
  0.000000  0.024203  0.096811     24.000000
 -0.012101  0.036304  0.108912     48.000000
  0.133115 -0.108912 -0.036304     48.000000
  0.121014 -0.096811 -0.024203     48.000000
  0.108912 -0.084709 -0.012101     48.000000
  0.096811 -0.072608 -0.000000     24.000000
  0.000000  0.024203  0.121014     24.000000
  0.145216 -0.121014 -0.024203     48.000000
  0.133115 -0.108912 -0.012101     48.000000
  0.121014 -0.096811  0.000000     24.000000
  0.157318 -0.133115 -0.012101     24.000000
  0.145216 -0.121014 -0.000000     24.000000
  0.000000  0.048405  0.096811     24.000000
  0.145216 -0.096811 -0.048405     48.000000
  0.133115 -0.084709 -0.036304     48.000000
  0.157318 -0.108912 -0.036304     24.000000
  0.145216 -0.096811 -0.024203     48.000000
  0.133115 -0.084709 -0.012101     48.000000
  0.121014 -0.072608 -0.000000     24.000000
  0.157318 -0.108912 -0.012101     24.000000
  0.145216 -0.096811 -0.000000     24.000000
  0.157318 -0.084709 -0.012101     24.000000



--------------------------------------------------------------------------------------------------------




 Dimension of arrays:
   k-points           NKPTS =     84   k-points in BZ     NKDIM =     84   number of bands    NBANDS=     16
   number of dos      NEDOS =    301   number of ions     NIONS =      3
   non local maximal  LDIM  =      6   non local SUM 2l+1 LMDIM =     18
   total plane-waves  NPLWV =  64000
   max r-space proj   IRMAX =      1   max aug-charges    IRDMAX= 431353
   dimension x,y,z NGX =    40 NGY =   40 NGZ =   40
   dimension x,y,z NGXF=    80 NGYF=   80 NGZF=   80
   support grid    NGXF=   160 NGYF=  160 NGZF=  160
   ions per type =               1   1   1
   NGX,Y,Z   is equivalent  to a cutoff of  14.25, 14.25, 14.25 a.u.
   NGXF,Y,Z  is equivalent  to a cutoff of  28.49, 28.49, 28.49 a.u.

 SYSTEM =  unknown system
 POSCAR =  Hf1 Sb1 Pt1

 Startparameter for this run:
   NWRITE =      2    write-flag & timer
   PREC   = acc       normal or accurate (medium, high low for compatibility)
   ISTART =      0    job   : 0-new  1-cont  2-samecut
   ICHARG =      2    charge: 1-file 2-atom 10-const
   ISPIN  =      1    spin polarized calculation?
   LNONCOLLINEAR =      F non collinear calculations
   LSORBIT =      F    spin-orbit coupling
   INIWAV =      1    electr: 0-lowe 1-rand  2-diag
   LASPH  =      F    aspherical Exc in radial PAW
   METAGGA=      F    non-selfconsistent MetaGGA calc.

 Electronic Relaxation 1
   ENCUT  =  700.0 eV  51.45 Ry    7.17 a.u.  10.07 10.07 10.07*2*pi/ulx,y,z
   ENINI  =  700.0     initial cutoff
   ENAUG  =  380.9 eV  augmentation charge cutoff
   NELM   =     60;   NELMIN=  5; NELMDL= -5     # of ELM steps
   EDIFF  = 0.1E-06   stopping-criterion for ELM
   LREAL  =      F    real-space projection
   NLSPLINE    = F    spline interpolate recip. space projectors
   LCOMPAT=      F    compatible to vasp.4.4
   GGA_COMPAT  = T    GGA compatible to vasp.4.4-vasp.4.6
   LMAXPAW     = -100 max onsite density
   LMAXMIX     =    2 max onsite mixed and CHGCAR
   VOSKOWN=      0    Vosko Wilk Nusair interpolation
   ROPT   =    0.00000   0.00000   0.00000
 Ionic relaxation
   EDIFFG = 0.1E-05   stopping-criterion for IOM
   NSW    =      0    number of steps for IOM
   NBLOCK =      1;   KBLOCK =      1    inner block; outer block
   IBRION =     -1    ionic relax: 0-MD 1-quasi-New 2-CG
   NFREE  =      0    steps in history (QN), initial steepest desc. (CG)
   ISIF   =      3    stress and relaxation
   IWAVPR =     10    prediction:  0-non 1-charg 2-wave 3-comb
   ISYM   =      2    0-nonsym 1-usesym 2-fastsym
   LCORR  =      T    Harris-Foulkes like correction to forces

   POTIM  = 0.5000    time-step for ionic-motion
   TEIN   =    0.0    initial temperature
   TEBEG  =    0.0;   TEEND  =   0.0 temperature during run
   SMASS  =  -3.00    Nose mass-parameter (am)
   estimated Nose-frequenzy (Omega)   =  0.10E-29 period in steps = 0.13E+47 mass=  -0.498E-27a.u.
   SCALEE = 1.0000    scale energy and forces
   NPACO  =    256;   APACO  = 16.0  distance and # of slots for P.C.
   PSTRESS=    0.0 pullay stress

  Mass of Ions in am
   POMASS = 178.49121.75195.08
  Ionic Valenz
   ZVAL   =  10.00  5.00 10.00
  Atomic Wigner-Seitz radii
   RWIGS  =  -1.00 -1.00 -1.00
  virtual crystal weights
   VCA    =   1.00  1.00  1.00
   NELECT =      25.0000    total number of electrons
   NUPDOWN=      -1.0000    fix difference up-down

 DOS related values:
   EMIN   =  10.00;   EMAX   =-10.00  energy-range for DOS
   EFERMI =   0.00
   ISMEAR =     0;   SIGMA  =   0.01  broadening in eV -4-tet -1-fermi 0-gaus

 Electronic relaxation 2 (details)
   IALGO  =     38    algorithm
   LDIAG  =      T    sub-space diagonalisation (order eigenvalues)
   LSUBROT=      F    optimize rotation matrix (better conditioning)
   TURBO    =      0    0=normal 1=particle mesh
   IRESTART =      0    0=no restart 2=restart with 2 vectors
   NREBOOT  =      0    no. of reboots
   NMIN     =      0    reboot dimension
   EREF     =   0.00    reference energy to select bands
   IMIX   =      4    mixing-type and parameters
     AMIX     =   0.40;   BMIX     =  1.00
     AMIX_MAG =   1.60;   BMIX_MAG =  1.00
     AMIN     =   0.10
     WC   =   100.;   INIMIX=   1;  MIXPRE=   1;  MAXMIX= -45

 Intra band minimization:
   WEIMIN = 0.0000     energy-eigenvalue tresh-hold
   EBREAK =  0.16E-08  absolut break condition
   DEPER  =   0.30     relativ break condition

   TIME   =   0.40     timestep for ELM

  volume/ion in A,a.u.               =      23.97       161.77
  Fermi-wavevector in a.u.,A,eV,Ry     =   1.151099  2.175262 18.028122  1.325030
  Thomas-Fermi vector in A             =   2.287759

 Write flags
   LWAVE        =      F    write WAVECAR
   LDOWNSAMPLE  =      F    k-point downsampling of WAVECAR
   LCHARG       =      F    write CHGCAR
   LVTOT        =      F    write LOCPOT, total local potential
   LVHAR        =      F    write LOCPOT, Hartree potential only
   LELF         =      F    write electronic localiz. function (ELF)
   LORBIT       =      0    0 simple, 1 ext, 2 COOP (PROOUT), +10 PAW based schemes


 Dipole corrections
   LMONO  =      F    monopole corrections only (constant potential shift)
   LDIPOL =      F    correct potential (dipole corrections)
   IDIPOL =      0    1-x, 2-y, 3-z, 4-all directions
   EPSILON=  1.0000000 bulk dielectric constant

 Exchange correlation treatment:
   GGA     =    PS    GGA type
   LEXCH   =    14    internal setting for exchange type
   VOSKOWN=      0    Vosko Wilk Nusair interpolation
   LHFCALC =     F    Hartree Fock is set to
   LHFONE  =     F    Hartree Fock one center treatment
   AEXX    =    0.0000 exact exchange contribution

 Linear response parameters
   LEPSILON=     F    determine dielectric tensor
   LRPA    =     F    only Hartree local field effects (RPA)
   LNABLA  =     F    use nabla operator in PAW spheres
   LVEL    =     F    velocity operator in full k-point grid
   LINTERFAST=   F  fast interpolation
   KINTER  =     0    interpolate to denser k-point grid
   CSHIFT  =0.1000    complex shift for real part using Kramers Kronig
   OMEGAMAX=  -1.0    maximum frequency
   DEG_THRESHOLD= 0.2000000E-02 threshold for treating states as degnerate
   RTIME   =   -0.100 relaxation time in fs
  (WPLASMAI=    0.000 imaginary part of plasma frequency in eV, 0.658/RTIME)
   DFIELD  = 0.0000000 0.0000000 0.0000000 field for delta impulse in time

 Orbital magnetization related:
   ORBITALMAG=     F  switch on orbital magnetization
   LCHIMAG   =     F  perturbation theory with respect to B field
   DQ        =  0.001000  dq finite difference perturbation B field
   LLRAUG    =     F  two centre corrections for induced B field



--------------------------------------------------------------------------------------------------------


 Static calculation
 charge density and potential will be updated during run
 non-spin polarized calculation
 Variant of blocked Davidson
 Davidson routine will perform the subspace rotation
 perform sub-space diagonalisation
    after iterative eigenvector-optimisation
 modified Broyden-mixing scheme, WC =      100.0
 initial mixing is a Kerker type mixing with AMIX =  0.4000 and BMIX =      1.0000
 Hartree-type preconditioning will be used
 using additional bands            3
 reciprocal scheme for non local part
 use partial core corrections
 calculate Harris-corrections to forces
   (improved forces if not selfconsistent)
 use gradient corrections
 use of overlap-Matrix (Vanderbilt PP)
 Gauss-broadening in eV      SIGMA  =   0.01


--------------------------------------------------------------------------------------------------------


  energy-cutoff  :      700.00
  volume of cell :       71.92
      direct lattice vectors                 reciprocal lattice vectors
     0.000000000  3.300644185  3.300644185    -0.151485580  0.151485580  0.151485580
     3.300644185  0.000000000  3.300644185     0.151485580 -0.151485580  0.151485580
     3.300644185  3.300644185  0.000000000     0.151485580  0.151485580 -0.151485580

  length of vectors
     4.667815771  4.667815771  4.667815771     0.262380722  0.262380722  0.262380722



 k-points in units of 2pi/SCALE and weight: KPOINTS
   0.00000000  0.00000000  0.00000000       0.000
  -0.01210135  0.01210135  0.01210135       0.004
  -0.02420271  0.02420271  0.02420271       0.004
  -0.03630406  0.03630406  0.03630406       0.004
  -0.04840541  0.04840541  0.04840541       0.004
  -0.06050677  0.06050677  0.06050677       0.004
  -0.07260812  0.07260812  0.07260812       0.004
  -0.00000000  0.00000000  0.02420271       0.003
  -0.01210135  0.01210135  0.03630406       0.011
  -0.02420271  0.02420271  0.04840541       0.011
  -0.03630406  0.03630406  0.06050677       0.011
  -0.04840541  0.04840541  0.07260812       0.011
  -0.06050677  0.06050677  0.08470948       0.011
   0.08470948 -0.08470948 -0.06050677       0.011
   0.07260812 -0.07260812 -0.04840541       0.011
   0.06050677 -0.06050677 -0.03630406       0.011
   0.04840541 -0.04840541 -0.02420271       0.011
   0.03630406 -0.03630406 -0.01210135       0.011
   0.02420271 -0.02420271 -0.00000000       0.005
   0.00000000 -0.00000000  0.04840541       0.003
  -0.01210135  0.01210135  0.06050677       0.011
  -0.02420271  0.02420271  0.07260812       0.011
  -0.03630406  0.03630406  0.08470948       0.011
  -0.04840541  0.04840541  0.09681083       0.011
   0.09681083 -0.09681083 -0.04840541       0.011
   0.08470948 -0.08470948 -0.03630406       0.011
   0.07260812 -0.07260812 -0.02420271       0.011
   0.06050677 -0.06050677 -0.01210135       0.011
   0.04840541 -0.04840541  0.00000000       0.005
  -0.00000000  0.00000000  0.07260812       0.003
  -0.01210135  0.01210135  0.08470948       0.011
  -0.02420271  0.02420271  0.09681083       0.011
  -0.03630406  0.03630406  0.10891218       0.011
   0.10891218 -0.10891218 -0.03630406       0.011
   0.09681083 -0.09681083 -0.02420271       0.011
   0.08470948 -0.08470948 -0.01210135       0.011
   0.07260812 -0.07260812 -0.00000000       0.005
   0.00000000 -0.00000000  0.09681083       0.003
  -0.01210135  0.01210135  0.10891218       0.011
  -0.02420271  0.02420271  0.12101354       0.011
   0.12101354 -0.12101354 -0.02420271       0.011
   0.10891218 -0.10891218 -0.01210135       0.011
   0.09681083 -0.09681083  0.00000000       0.005
   0.00000000 -0.00000000  0.12101354       0.003
  -0.01210135  0.01210135  0.13311489       0.011
   0.13311489 -0.13311489 -0.01210135       0.011
   0.12101354 -0.12101354 -0.00000000       0.005
  -0.00000000  0.00000000  0.14521624       0.003
   0.14521624 -0.14521624 -0.00000000       0.005
  -0.00000000  0.02420271  0.04840541       0.011
  -0.01210135  0.03630406  0.06050677       0.022
  -0.02420271  0.04840541  0.07260812       0.022
  -0.03630406  0.06050677  0.08470948       0.022
   0.10891218 -0.08470948 -0.06050677       0.022
   0.00000000  0.02420271  0.07260812       0.011
  -0.01210135  0.03630406  0.08470948       0.022
  -0.02420271  0.04840541  0.09681083       0.022
   0.12101354 -0.09681083 -0.04840541       0.022
   0.10891218 -0.08470948 -0.03630406       0.022
   0.09681083 -0.07260812 -0.02420271       0.022
   0.08470948 -0.06050677 -0.01210135       0.022
   0.07260812 -0.04840541 -0.00000000       0.011
   0.00000000  0.02420271  0.09681083       0.011
  -0.01210135  0.03630406  0.10891218       0.022
   0.13311489 -0.10891218 -0.03630406       0.022
   0.12101354 -0.09681083 -0.02420271       0.022
   0.10891218 -0.08470948 -0.01210135       0.022
   0.09681083 -0.07260812 -0.00000000       0.011
   0.00000000  0.02420271  0.12101354       0.011
   0.14521624 -0.12101354 -0.02420271       0.022
   0.13311489 -0.10891218 -0.01210135       0.022
   0.12101354 -0.09681083  0.00000000       0.011
   0.15731760 -0.13311489 -0.01210135       0.011
   0.14521624 -0.12101354 -0.00000000       0.011
   0.00000000  0.04840541  0.09681083       0.011
   0.14521624 -0.09681083 -0.04840541       0.022
   0.13311489 -0.08470948 -0.03630406       0.022
   0.15731760 -0.10891218 -0.03630406       0.011
   0.14521624 -0.09681083 -0.02420271       0.022
   0.13311489 -0.08470948 -0.01210135       0.022
   0.12101354 -0.07260812 -0.00000000       0.011
   0.15731760 -0.10891218 -0.01210135       0.011
   0.14521624 -0.09681083 -0.00000000       0.011
   0.15731760 -0.08470948 -0.01210135       0.011

 k-points in reciprocal lattice and weights: KPOINTS
   0.00000000  0.00000000  0.00000000       0.000
   0.07692308  0.00000000 -0.00000000       0.004
   0.15384615 -0.00000000  0.00000000       0.004
   0.23076923  0.00000000  0.00000000       0.004
   0.30769231 -0.00000000  0.00000000       0.004
   0.38461538 -0.00000000  0.00000000       0.004
   0.46153846  0.00000000  0.00000000       0.004
   0.07692308  0.07692308  0.00000000       0.003
   0.15384615  0.07692308  0.00000000       0.011
   0.23076923  0.07692308  0.00000000       0.011
   0.30769231  0.07692308  0.00000000       0.011
   0.38461538  0.07692308  0.00000000       0.011
   0.46153846  0.07692308  0.00000000       0.011
  -0.46153846  0.07692308  0.00000000       0.011
  -0.38461538  0.07692308  0.00000000       0.011
  -0.30769231  0.07692308 -0.00000000       0.011
  -0.23076923  0.07692308  0.00000000       0.011
  -0.15384615  0.07692308  0.00000000       0.011
  -0.07692308  0.07692308  0.00000000       0.005
   0.15384615  0.15384615  0.00000000       0.003
   0.23076923  0.15384615  0.00000000       0.011
   0.30769231  0.15384615  0.00000000       0.011
   0.38461538  0.15384615  0.00000000       0.011
   0.46153846  0.15384615  0.00000000       0.011
  -0.46153846  0.15384615 -0.00000000       0.011
  -0.38461538  0.15384615  0.00000000       0.011
  -0.30769231  0.15384615 -0.00000000       0.011
  -0.23076923  0.15384615 -0.00000000       0.011
  -0.15384615  0.15384615 -0.00000000       0.005
   0.23076923  0.23076923  0.00000000       0.003
   0.30769231  0.23076923 -0.00000000       0.011
   0.38461538  0.23076923  0.00000000       0.011
   0.46153846  0.23076923  0.00000000       0.011
  -0.46153846  0.23076923 -0.00000000       0.011
  -0.38461538  0.23076923 -0.00000000       0.011
  -0.30769231  0.23076923  0.00000000       0.011
  -0.23076923  0.23076923  0.00000000       0.005
   0.30769231  0.30769231  0.00000000       0.003
   0.38461538  0.30769231  0.00000000       0.011
   0.46153846  0.30769231  0.00000000       0.011
  -0.46153846  0.30769231  0.00000000       0.011
  -0.38461538  0.30769231 -0.00000000       0.011
  -0.30769231  0.30769231 -0.00000000       0.005
   0.38461538  0.38461538  0.00000000       0.003
   0.46153846  0.38461538  0.00000000       0.011
  -0.46153846  0.38461538  0.00000000       0.011
  -0.38461538  0.38461538 -0.00000000       0.005
   0.46153846  0.46153846  0.00000000       0.003
  -0.46153846  0.46153846  0.00000000       0.005
   0.23076923  0.15384615  0.07692308       0.011
   0.30769231  0.15384615  0.07692308       0.022
   0.38461538  0.15384615  0.07692308       0.022
   0.46153846  0.15384615  0.07692308       0.022
  -0.46153846  0.15384615  0.07692308       0.022
   0.30769231  0.23076923  0.07692308       0.011
   0.38461538  0.23076923  0.07692308       0.022
   0.46153846  0.23076923  0.07692308       0.022
  -0.46153846  0.23076923  0.07692308       0.022
  -0.38461538  0.23076923  0.07692308       0.022
  -0.30769231  0.23076923  0.07692308       0.022
  -0.23076923  0.23076923  0.07692308       0.022
  -0.15384615  0.23076923  0.07692308       0.011
   0.38461538  0.30769231  0.07692308       0.011
   0.46153846  0.30769231  0.07692308       0.022
  -0.46153846  0.30769231  0.07692308       0.022
  -0.38461538  0.30769231  0.07692308       0.022
  -0.30769231  0.30769231  0.07692308       0.022
  -0.23076923  0.30769231  0.07692308       0.011
   0.46153846  0.38461538  0.07692308       0.011
  -0.46153846  0.38461538  0.07692308       0.022
  -0.38461538  0.38461538  0.07692308       0.022
  -0.30769231  0.38461538  0.07692308       0.011
  -0.46153846  0.46153846  0.07692308       0.011
  -0.38461538  0.46153846  0.07692308       0.011
   0.46153846  0.30769231  0.15384615       0.011
  -0.46153846  0.30769231  0.15384615       0.022
  -0.38461538  0.30769231  0.15384615       0.022
  -0.46153846  0.38461538  0.15384615       0.011
  -0.38461538  0.38461538  0.15384615       0.022
  -0.30769231  0.38461538  0.15384615       0.022
  -0.23076923  0.38461538  0.15384615       0.011
  -0.38461538  0.46153846  0.15384615       0.011
  -0.30769231  0.46153846  0.15384615       0.011
  -0.30769231  0.46153846  0.23076923       0.011

 position of ions in fractional coordinates (direct lattice)
   0.75000000  0.75000000  0.75000000
   0.25000000  0.25000000  0.25000000
   0.00000000  0.00000000  0.00000000

 position of ions in cartesian coordinates  (Angst):
   4.95096628  4.95096628  4.95096628
   1.65032209  1.65032209  1.65032209
   0.00000000  0.00000000  0.00000000



--------------------------------------------------------------------------------------------------------


 k-point  1 :   0.0000 0.0000 0.0000  plane waves:    2975
 k-point  2 :   0.0769 0.0000-0.0000  plane waves:    3026
 k-point  3 :   0.1538-0.0000 0.0000  plane waves:    3014
 k-point  4 :   0.2308 0.0000 0.0000  plane waves:    3004
 k-point  5 :   0.3077-0.0000 0.0000  plane waves:    3013
 k-point  6 :   0.3846-0.0000 0.0000  plane waves:    3010
 k-point  7 :   0.4615 0.0000 0.0000  plane waves:    3025
 k-point  8 :   0.0769 0.0769 0.0000  plane waves:    3019
 k-point  9 :   0.1538 0.0769 0.0000  plane waves:    3012
 k-point 10 :   0.2308 0.0769 0.0000  plane waves:    3004
 k-point 11 :   0.3077 0.0769 0.0000  plane waves:    3012
 k-point 12 :   0.3846 0.0769 0.0000  plane waves:    3015
 k-point 13 :   0.4615 0.0769 0.0000  plane waves:    3015
 k-point 14 :  -0.4615 0.0769 0.0000  plane waves:    3027
 k-point 15 :  -0.3846 0.0769 0.0000  plane waves:    3018
 k-point 16 :  -0.3077 0.0769-0.0000  plane waves:    3007
 k-point 17 :  -0.2308 0.0769 0.0000  plane waves:    3006
 k-point 18 :  -0.1538 0.0769 0.0000  plane waves:    3016
 k-point 19 :  -0.0769 0.0769 0.0000  plane waves:    3018
 k-point 20 :   0.1538 0.1538 0.0000  plane waves:    2990
 k-point 21 :   0.2308 0.1538 0.0000  plane waves:    3005
 k-point 22 :   0.3077 0.1538 0.0000  plane waves:    3008
 k-point 23 :   0.3846 0.1538 0.0000  plane waves:    3019
 k-point 24 :   0.4615 0.1538 0.0000  plane waves:    3027
 k-point 25 :  -0.4615 0.1538-0.0000  plane waves:    3031
 k-point 26 :  -0.3846 0.1538 0.0000  plane waves:    3025
 k-point 27 :  -0.3077 0.1538-0.0000  plane waves:    3023
 k-point 28 :  -0.2308 0.1538-0.0000  plane waves:    3019
 k-point 29 :  -0.1538 0.1538-0.0000  plane waves:    3018
 k-point 30 :   0.2308 0.2308 0.0000  plane waves:    3018
 k-point 31 :   0.3077 0.2308-0.0000  plane waves:    3017
 k-point 32 :   0.3846 0.2308 0.0000  plane waves:    3023
 k-point 33 :   0.4615 0.2308 0.0000  plane waves:    3020
 k-point 34 :  -0.4615 0.2308-0.0000  plane waves:    3029
 k-point 35 :  -0.3846 0.2308-0.0000  plane waves:    3029
 k-point 36 :  -0.3077 0.2308 0.0000  plane waves:    3023
 k-point 37 :  -0.2308 0.2308 0.0000  plane waves:    3024
 k-point 38 :   0.3077 0.3077 0.0000  plane waves:    3034
 k-point 39 :   0.3846 0.3077 0.0000  plane waves:    3028
 k-point 40 :   0.4615 0.3077 0.0000  plane waves:    3036
 k-point 41 :  -0.4615 0.3077 0.0000  plane waves:    3038
 k-point 42 :  -0.3846 0.3077-0.0000  plane waves:    3030
 k-point 43 :  -0.3077 0.3077-0.0000  plane waves:    3024
 k-point 44 :   0.3846 0.3846 0.0000  plane waves:    3030
 k-point 45 :   0.4615 0.3846 0.0000  plane waves:    3027
 k-point 46 :  -0.4615 0.3846 0.0000  plane waves:    3027
 k-point 47 :  -0.3846 0.3846-0.0000  plane waves:    3034
 k-point 48 :   0.4615 0.4615 0.0000  plane waves:    3014
 k-point 49 :  -0.4615 0.4615 0.0000  plane waves:    3010
 k-point 50 :   0.2308 0.1538 0.0769  plane waves:    3003
 k-point 51 :   0.3077 0.1538 0.0769  plane waves:    3012
 k-point 52 :   0.3846 0.1538 0.0769  plane waves:    3019
 k-point 53 :   0.4615 0.1538 0.0769  plane waves:    3023
 k-point 54 :  -0.4615 0.1538 0.0769  plane waves:    3026
 k-point 55 :   0.3077 0.2308 0.0769  plane waves:    3008
 k-point 56 :   0.3846 0.2308 0.0769  plane waves:    3011
 k-point 57 :   0.4615 0.2308 0.0769  plane waves:    3025
 k-point 58 :  -0.4615 0.2308 0.0769  plane waves:    3024
 k-point 59 :  -0.3846 0.2308 0.0769  plane waves:    3032
 k-point 60 :  -0.3077 0.2308 0.0769  plane waves:    3026
 k-point 61 :  -0.2308 0.2308 0.0769  plane waves:    3028
 k-point 62 :  -0.1538 0.2308 0.0769  plane waves:    3013
 k-point 63 :   0.3846 0.3077 0.0769  plane waves:    3019
 k-point 64 :   0.4615 0.3077 0.0769  plane waves:    3016
 k-point 65 :  -0.4615 0.3077 0.0769  plane waves:    3030
 k-point 66 :  -0.3846 0.3077 0.0769  plane waves:    3026
 k-point 67 :  -0.3077 0.3077 0.0769  plane waves:    3036
 k-point 68 :  -0.2308 0.3077 0.0769  plane waves:    3039
 k-point 69 :   0.4615 0.3846 0.0769  plane waves:    3020
 k-point 70 :  -0.4615 0.3846 0.0769  plane waves:    3033
 k-point 71 :  -0.3846 0.3846 0.0769  plane waves:    3025
 k-point 72 :  -0.3077 0.3846 0.0769  plane waves:    3032
 k-point 73 :  -0.4615 0.4615 0.0769  plane waves:    3019
 k-point 74 :  -0.3846 0.4615 0.0769  plane waves:    3024
 k-point 75 :   0.4615 0.3077 0.1538  plane waves:    3023
 k-point 76 :  -0.4615 0.3077 0.1538  plane waves:    3034
 k-point 77 :  -0.3846 0.3077 0.1538  plane waves:    3034
 k-point 78 :  -0.4615 0.3846 0.1538  plane waves:    3030
 k-point 79 :  -0.3846 0.3846 0.1538  plane waves:    3042
 k-point 80 :  -0.3077 0.3846 0.1538  plane waves:    3039
 k-point 81 :  -0.2308 0.3846 0.1538  plane waves:    3042
 k-point 82 :  -0.3846 0.4615 0.1538  plane waves:    3045
 k-point 83 :  -0.3077 0.4615 0.1538  plane waves:    3028
 k-point 84 :  -0.3077 0.4615 0.2308  plane waves:    3030

 maximum and minimum number of plane-waves per node :       775      730

 maximum number of plane-waves:      3045
 maximum index in each direction:
   IXMAX=   10   IYMAX=   10   IZMAX=   10
   IXMIN=  -10   IYMIN=  -10   IZMIN=  -10


 parallel 3D FFT for wavefunctions:
    minimum data exchange during FFTs selected (reduces bandwidth)
 parallel 3D FFT for charge:
    minimum data exchange during FFTs selected (reduces bandwidth)


 total amount of memory used by VASP MPI-rank0    70095. kBytes
=======================================================================

   base      :      30000. kBytes
   nonl-proj :      27906. kBytes
   fftplans  :       5206. kBytes
   grid      :       2732. kBytes
   one-center:         15. kBytes
   wavefun   :       4236. kBytes

     INWAV:  cpu time    0.0002: real time    0.0011
 Broyden mixing: mesh for mixing (old mesh)
   NGX = 21   NGY = 21   NGZ = 21
  (NGX  = 80   NGY  = 80   NGZ  = 80)
  gives a total of   9261 points

 initial charge density was supplied:
 charge density of overlapping atoms calculated
 number of electron      25.0000000 magnetization
 keeping initial charge density in first step


--------------------------------------------------------------------------------------------------------


 Maximum index for augmentation-charges        26091 (set IRDMAX)


--------------------------------------------------------------------------------------------------------


 First call to EWALD:  gamma=   0.426
 Maximum number of real-space cells 3x 3x 3
 Maximum number of reciprocal cells 3x 3x 3

    FEWALD:  cpu time    0.0054: real time    0.0061


--------------------------------------- Iteration      1(   1)  ---------------------------------------


    POTLOK:  cpu time    0.0456: real time    0.1438
    SETDIJ:  cpu time    0.0613: real time    0.0616
     EDDAV:  cpu time    0.9262: real time    0.9551
       DOS:  cpu time    0.0031: real time    0.0036
    --------------------------------------------
      LOOP:  cpu time    1.0366: real time    1.1646

 eigenvalue-minimisations  :  2688
 total energy-change (2. order) : 0.1344731E+03  (-0.1405598E+04)
 number of electron      25.0000000 magnetization
 augmentation part       25.0000000 magnetization

 Free energy of the ion-electron system (eV)
  ---------------------------------------------------
  alpha Z        PSCENC =        94.73196678
  Ewald energy   TEWEN  =     -1506.39065775
  -Hartree energ DENC   =      -345.12149896
  -exchange      EXHF   =         0.00000000
  -V(xc)+E(xc)   XCENC  =       -19.90895299
  PAW double counting   =      1514.36848356    -1421.27055995
  entropy T*S    EENTRO =        -0.00012567
  eigenvalues    EBANDS =        76.95995152
  atomic energy  EATOM  =      1741.10451121
  Solvation  Ediel_sol  =         0.00000000
  ---------------------------------------------------
  free energy    TOTEN  =       134.47311774 eV

  energy without entropy =      134.47324341  energy(sigma->0) =      134.47318057


--------------------------------------------------------------------------------------------------------




--------------------------------------- Iteration      1(   2)  ---------------------------------------


     EDDAV:  cpu time    1.0783: real time    1.0975
       DOS:  cpu time    0.0026: real time    0.0027
    --------------------------------------------
      LOOP:  cpu time    1.0809: real time    1.1017

 eigenvalue-minimisations  :  3336
 total energy-change (2. order) :-0.1540604E+03  (-0.1523173E+03)
 number of electron      25.0000000 magnetization
 augmentation part       25.0000000 magnetization

 Free energy of the ion-electron system (eV)
  ---------------------------------------------------
  alpha Z        PSCENC =        94.73196678
  Ewald energy   TEWEN  =     -1506.39065775
  -Hartree energ DENC   =      -345.12149896
  -exchange      EXHF   =         0.00000000
  -V(xc)+E(xc)   XCENC  =       -19.90895299
  PAW double counting   =      1514.36848356    -1421.27055995
  entropy T*S    EENTRO =        -0.00013437
  eigenvalues    EBANDS =       -77.10048677
  atomic energy  EATOM  =      1741.10451121
  Solvation  Ediel_sol  =         0.00000000
  ---------------------------------------------------
  free energy    TOTEN  =       -19.58732926 eV

  energy without entropy =      -19.58719488  energy(sigma->0) =      -19.58726207


--------------------------------------------------------------------------------------------------------




--------------------------------------- Iteration      1(   3)  ---------------------------------------


     EDDAV:  cpu time    1.1919: real time    1.2108
       DOS:  cpu time    0.0024: real time    0.0026
    --------------------------------------------
      LOOP:  cpu time    1.1942: real time    1.2132

 eigenvalue-minimisations  :  3712
 total energy-change (2. order) :-0.5224974E+01  (-0.5174333E+01)
 number of electron      25.0000000 magnetization
 augmentation part       25.0000000 magnetization

 Free energy of the ion-electron system (eV)
  ---------------------------------------------------
  alpha Z        PSCENC =        94.73196678
  Ewald energy   TEWEN  =     -1506.39065775
  -Hartree energ DENC   =      -345.12149896
  -exchange      EXHF   =         0.00000000
  -V(xc)+E(xc)   XCENC  =       -19.90895299
  PAW double counting   =      1514.36848356    -1421.27055995
  entropy T*S    EENTRO =        -0.00020133
  eigenvalues    EBANDS =       -82.32539371
  atomic energy  EATOM  =      1741.10451121
  Solvation  Ediel_sol  =         0.00000000
  ---------------------------------------------------
  free energy    TOTEN  =       -24.81230315 eV

  energy without entropy =      -24.81210182  energy(sigma->0) =      -24.81220248


--------------------------------------------------------------------------------------------------------




--------------------------------------- Iteration      1(   4)  ---------------------------------------


     EDDAV:  cpu time    1.0727: real time    1.0917
       DOS:  cpu time    0.0026: real time    0.0028
    --------------------------------------------
      LOOP:  cpu time    1.0754: real time    1.0942

 eigenvalue-minimisations  :  3240
 total energy-change (2. order) :-0.7480428E-01  (-0.7420494E-01)
 number of electron      25.0000000 magnetization
 augmentation part       25.0000000 magnetization

 Free energy of the ion-electron system (eV)
  ---------------------------------------------------
  alpha Z        PSCENC =        94.73196678
  Ewald energy   TEWEN  =     -1506.39065775
  -Hartree energ DENC   =      -345.12149896
  -exchange      EXHF   =         0.00000000
  -V(xc)+E(xc)   XCENC  =       -19.90895299
  PAW double counting   =      1514.36848356    -1421.27055995
  entropy T*S    EENTRO =        -0.00028753
  eigenvalues    EBANDS =       -82.40011178
  atomic energy  EATOM  =      1741.10451121
  Solvation  Ediel_sol  =         0.00000000
  ---------------------------------------------------
  free energy    TOTEN  =       -24.88710742 eV

  energy without entropy =      -24.88681989  energy(sigma->0) =      -24.88696366


--------------------------------------------------------------------------------------------------------




--------------------------------------- Iteration      1(   5)  ---------------------------------------


     EDDAV:  cpu time    1.2115: real time    1.2293
       DOS:  cpu time    0.0025: real time    0.0028
    CHARGE:  cpu time    0.2192: real time    0.2205
    MIXING:  cpu time    0.0064: real time    0.0066
    --------------------------------------------
      LOOP:  cpu time    1.4397: real time    1.4595

 eigenvalue-minimisations  :  3784
 total energy-change (2. order) :-0.1902442E-02  (-0.1898598E-02)
 number of electron      25.0000000 magnetization
 augmentation part        4.7651458 magnetization

 Broyden mixing:
  rms(total) = 0.35258E+01    rms(broyden)= 0.35258E+01
  rms(prec ) = 0.37970E+01
  weight for this iteration     100.00

 Free energy of the ion-electron system (eV)
  ---------------------------------------------------
  alpha Z        PSCENC =        94.73196678
  Ewald energy   TEWEN  =     -1506.39065775
  -Hartree energ DENC   =      -345.12149896
  -exchange      EXHF   =         0.00000000
  -V(xc)+E(xc)   XCENC  =       -19.90895299
  PAW double counting   =      1514.36848356    -1421.27055995
  entropy T*S    EENTRO =        -0.00028900
  eigenvalues    EBANDS =       -82.40201276
  atomic energy  EATOM  =      1741.10451121
  Solvation  Ediel_sol  =         0.00000000
  ---------------------------------------------------
  free energy    TOTEN  =       -24.88900987 eV

  energy without entropy =      -24.88872087  energy(sigma->0) =      -24.88886537


--------------------------------------------------------------------------------------------------------




--------------------------------------- Iteration      1(   6)  ---------------------------------------


    POTLOK:  cpu time    0.0344: real time    0.0647
    SETDIJ:  cpu time    0.0765: real time    0.0766
     EDDAV:  cpu time    1.1110: real time    1.1112
       DOS:  cpu time    0.0025: real time    0.0029
    CHARGE:  cpu time    0.1823: real time    0.1825
    MIXING:  cpu time    0.0047: real time    0.0051
    --------------------------------------------
      LOOP:  cpu time    1.4115: real time    1.4426

 eigenvalue-minimisations  :  3480
 total energy-change (2. order) : 0.9702686E+00  (-0.2334563E+00)
 number of electron      25.0000000 magnetization
 augmentation part        4.9164493 magnetization

 Broyden mixing:
  rms(total) = 0.22533E+01    rms(broyden)= 0.22533E+01
  rms(prec ) = 0.23235E+01
  weight for this iteration     100.00

 eigenvalues of (default mixing * dielectric matrix)
  average eigenvalue GAMMA=   2.6592
  2.6592

 Free energy of the ion-electron system (eV)
  ---------------------------------------------------
  alpha Z        PSCENC =        94.73196678
  Ewald energy   TEWEN  =     -1506.39065775
  -Hartree energ DENC   =      -329.50532499
  -exchange      EXHF   =         0.00000000
  -V(xc)+E(xc)   XCENC  =       -20.46846265
  PAW double counting   =      1814.98268362    -1724.13502411
  entropy T*S    EENTRO =        -0.00013964
  eigenvalues    EBANDS =       -94.23829379
  atomic energy  EATOM  =      1741.10451121
  Solvation  Ediel_sol  =         0.00000000
  ---------------------------------------------------
  free energy    TOTEN  =       -23.91874132 eV

  energy without entropy =      -23.91860168  energy(sigma->0) =      -23.91867150


--------------------------------------------------------------------------------------------------------




--------------------------------------- Iteration      1(   7)  ---------------------------------------


    POTLOK:  cpu time    0.0463: real time    0.0677
    SETDIJ:  cpu time    0.0553: real time    0.0626
     EDDAV:  cpu time    1.1743: real time    1.1747
       DOS:  cpu time    0.0026: real time    0.0029
    CHARGE:  cpu time    0.1637: real time    0.1638
    MIXING:  cpu time    0.0042: real time    0.0044
    --------------------------------------------
      LOOP:  cpu time    1.4463: real time    1.4760

 eigenvalue-minimisations  :  3768
 total energy-change (2. order) : 0.1533387E+00  (-0.1126024E+00)
 number of electron      25.0000000 magnetization
 augmentation part        5.0183479 magnetization

 Broyden mixing:
  rms(total) = 0.30957E+00    rms(broyden)= 0.30957E+00
  rms(prec ) = 0.38769E+00
  weight for this iteration     100.00

 eigenvalues of (default mixing * dielectric matrix)
  average eigenvalue GAMMA=   1.8911
  1.3607  2.4216

 Free energy of the ion-electron system (eV)
  ---------------------------------------------------
  alpha Z        PSCENC =        94.73196678
  Ewald energy   TEWEN  =     -1506.39065775
  -Hartree energ DENC   =      -318.86544520
  -exchange      EXHF   =         0.00000000
  -V(xc)+E(xc)   XCENC  =       -20.79591047
  PAW double counting   =      2224.20057326    -2135.97767588
  entropy T*S    EENTRO =        -0.00034969
  eigenvalues    EBANDS =      -101.77241485
  atomic energy  EATOM  =      1741.10451121
  Solvation  Ediel_sol  =         0.00000000
  ---------------------------------------------------
  free energy    TOTEN  =       -23.76540260 eV

  energy without entropy =      -23.76505291  energy(sigma->0) =      -23.76522775


--------------------------------------------------------------------------------------------------------




--------------------------------------- Iteration      1(   8)  ---------------------------------------


    POTLOK:  cpu time    0.0460: real time    0.0631
    SETDIJ:  cpu time    0.0646: real time    0.0650
     EDDAV:  cpu time    1.0439: real time    1.0441
       DOS:  cpu time    0.0026: real time    0.0029
    CHARGE:  cpu time    0.1953: real time    0.1954
    MIXING:  cpu time    0.0048: real time    0.0049
    --------------------------------------------
      LOOP:  cpu time    1.3572: real time    1.3753

 eigenvalue-minimisations  :  3256
 total energy-change (2. order) : 0.2443724E-01  (-0.2814217E-01)
 number of electron      25.0000000 magnetization
 augmentation part        4.9910994 magnetization

 Broyden mixing:
  rms(total) = 0.59295E-01    rms(broyden)= 0.59295E-01
  rms(prec ) = 0.11832E+00
  weight for this iteration     100.00

 eigenvalues of (default mixing * dielectric matrix)
  average eigenvalue GAMMA=   1.6709
  2.4823  1.1130  1.4172

 Free energy of the ion-electron system (eV)
  ---------------------------------------------------
  alpha Z        PSCENC =        94.73196678
  Ewald energy   TEWEN  =     -1506.39065775
  -Hartree energ DENC   =      -321.95424463
  -exchange      EXHF   =         0.00000000
  -V(xc)+E(xc)   XCENC  =       -20.66713107
  PAW double counting   =      2235.12121711    -2146.86494188
  entropy T*S    EENTRO =        -0.00024584
  eigenvalues    EBANDS =       -98.82143929
  atomic energy  EATOM  =      1741.10451121
  Solvation  Ediel_sol  =         0.00000000
  ---------------------------------------------------
  free energy    TOTEN  =       -23.74096536 eV

  energy without entropy =      -23.74071951  energy(sigma->0) =      -23.74084244


--------------------------------------------------------------------------------------------------------




--------------------------------------- Iteration      1(   9)  ---------------------------------------


    POTLOK:  cpu time    0.0334: real time    0.0592
    SETDIJ:  cpu time    0.0650: real time    0.0651
     EDDAV:  cpu time    1.1200: real time    1.1202
       DOS:  cpu time    0.0027: real time    0.0029
    CHARGE:  cpu time    0.1599: real time    0.1602
    MIXING:  cpu time    0.0043: real time    0.0044
    --------------------------------------------
      LOOP:  cpu time    1.3853: real time    1.4120

 eigenvalue-minimisations  :  3488
 total energy-change (2. order) : 0.3120388E-02  (-0.2391463E-02)
 number of electron      25.0000000 magnetization
 augmentation part        4.9795515 magnetization

 Broyden mixing:
  rms(total) = 0.19635E-01    rms(broyden)= 0.19635E-01
  rms(prec ) = 0.33931E-01
  weight for this iteration     100.00

 eigenvalues of (default mixing * dielectric matrix)
  average eigenvalue GAMMA=   1.4265
  2.4688  1.4537  1.1013  0.6823

 Free energy of the ion-electron system (eV)
  ---------------------------------------------------
  alpha Z        PSCENC =        94.73196678
  Ewald energy   TEWEN  =     -1506.39065775
  -Hartree energ DENC   =      -321.92696561
  -exchange      EXHF   =         0.00000000
  -V(xc)+E(xc)   XCENC  =       -20.66708054
  PAW double counting   =      2246.72660559    -2158.48037446
  entropy T*S    EENTRO =        -0.00026276
  eigenvalues    EBANDS =       -98.83558744
  atomic energy  EATOM  =      1741.10451121
  Solvation  Ediel_sol  =         0.00000000
  ---------------------------------------------------
  free energy    TOTEN  =       -23.73784497 eV

  energy without entropy =      -23.73758221  energy(sigma->0) =      -23.73771359


--------------------------------------------------------------------------------------------------------




--------------------------------------- Iteration      1(  10)  ---------------------------------------


    POTLOK:  cpu time    0.0360: real time    0.0600
    SETDIJ:  cpu time    0.0646: real time    0.0647
     EDDAV:  cpu time    1.1245: real time    1.1247
       DOS:  cpu time    0.0026: real time    0.0030
    CHARGE:  cpu time    0.1593: real time    0.1595
    MIXING:  cpu time    0.0053: real time    0.0054
    --------------------------------------------
      LOOP:  cpu time    1.3924: real time    1.4176

 eigenvalue-minimisations  :  3488
 total energy-change (2. order) : 0.2031656E-03  (-0.3943550E-03)
 number of electron      25.0000000 magnetization
 augmentation part        4.9859467 magnetization

 Broyden mixing:
  rms(total) = 0.14881E-01    rms(broyden)= 0.14881E-01
  rms(prec ) = 0.22171E-01
  weight for this iteration     100.00

 eigenvalues of (default mixing * dielectric matrix)
  average eigenvalue GAMMA=   1.4845
  2.6188  2.0454  1.0565  1.0565  0.6450

 Free energy of the ion-electron system (eV)
  ---------------------------------------------------
  alpha Z        PSCENC =        94.73196678
  Ewald energy   TEWEN  =     -1506.39065775
  -Hartree energ DENC   =      -321.68921598
  -exchange      EXHF   =         0.00000000
  -V(xc)+E(xc)   XCENC  =       -20.67329489
  PAW double counting   =      2254.64411937    -2166.37886355
  entropy T*S    EENTRO =        -0.00031719
  eigenvalues    EBANDS =       -99.08588981
  atomic energy  EATOM  =      1741.10451121
  Solvation  Ediel_sol  =         0.00000000
  ---------------------------------------------------
  free energy    TOTEN  =       -23.73764181 eV

  energy without entropy =      -23.73732462  energy(sigma->0) =      -23.73748321


--------------------------------------------------------------------------------------------------------




--------------------------------------- Iteration      1(  11)  ---------------------------------------


    POTLOK:  cpu time    0.0437: real time    0.0629
    SETDIJ:  cpu time    0.0653: real time    0.0654
     EDDAV:  cpu time    1.1289: real time    1.1291
       DOS:  cpu time    0.0026: real time    0.0029
    CHARGE:  cpu time    0.1649: real time    0.1651
    MIXING:  cpu time    0.0047: real time    0.0050
    --------------------------------------------
      LOOP:  cpu time    1.4101: real time    1.4315

 eigenvalue-minimisations  :  3504
 total energy-change (2. order) : 0.1029400E-03  (-0.9772551E-04)
 number of electron      25.0000000 magnetization
 augmentation part        4.9847774 magnetization

 Broyden mixing:
  rms(total) = 0.46856E-02    rms(broyden)= 0.46856E-02
  rms(prec ) = 0.53974E-02
  weight for this iteration     100.00

 eigenvalues of (default mixing * dielectric matrix)
  average eigenvalue GAMMA=   1.3578
  2.6269  2.1297  1.0724  1.0724  0.6286  0.6165

 Free energy of the ion-electron system (eV)
  ---------------------------------------------------
  alpha Z        PSCENC =        94.73196678
  Ewald energy   TEWEN  =     -1506.39065775
  -Hartree energ DENC   =      -321.94670482
  -exchange      EXHF   =         0.00000000
  -V(xc)+E(xc)   XCENC  =       -20.66269135
  PAW double counting   =      2256.27059613    -2167.96537199
  entropy T*S    EENTRO =        -0.00029224
  eigenvalues    EBANDS =       -98.87889483
  atomic energy  EATOM  =      1741.10451121
  Solvation  Ediel_sol  =         0.00000000
  ---------------------------------------------------
  free energy    TOTEN  =       -23.73753887 eV

  energy without entropy =      -23.73724662  energy(sigma->0) =      -23.73739275


--------------------------------------------------------------------------------------------------------




--------------------------------------- Iteration      1(  12)  ---------------------------------------


    POTLOK:  cpu time    0.0387: real time    0.0563
    SETDIJ:  cpu time    0.0654: real time    0.0655
     EDDAV:  cpu time    1.0441: real time    1.0444
       DOS:  cpu time    0.0025: real time    0.0032
    CHARGE:  cpu time    0.1598: real time    0.1599
    MIXING:  cpu time    0.0048: real time    0.0052
    --------------------------------------------
      LOOP:  cpu time    1.3153: real time    1.3323

 eigenvalue-minimisations  :  3160
 total energy-change (2. order) : 0.2285809E-05  (-0.2000778E-05)
 number of electron      25.0000000 magnetization
 augmentation part        4.9847468 magnetization

 Broyden mixing:
  rms(total) = 0.31481E-02    rms(broyden)= 0.31481E-02
  rms(prec ) = 0.34884E-02
  weight for this iteration     100.00

 eigenvalues of (default mixing * dielectric matrix)
  average eigenvalue GAMMA=   1.5156
  2.5618  2.5618  1.8473  0.6500  1.0618  0.9634  0.9634

 Free energy of the ion-electron system (eV)
  ---------------------------------------------------
  alpha Z        PSCENC =        94.73196678
  Ewald energy   TEWEN  =     -1506.39065775
  -Hartree energ DENC   =      -321.93618303
  -exchange      EXHF   =         0.00000000
  -V(xc)+E(xc)   XCENC  =       -20.66318520
  PAW double counting   =      2256.89259353    -2168.58378626
  entropy T*S    EENTRO =        -0.00029360
  eigenvalues    EBANDS =       -98.89250226
  atomic energy  EATOM  =      1741.10451121
  Solvation  Ediel_sol  =         0.00000000
  ---------------------------------------------------
  free energy    TOTEN  =       -23.73753658 eV

  energy without entropy =      -23.73724298  energy(sigma->0) =      -23.73738978


--------------------------------------------------------------------------------------------------------




--------------------------------------- Iteration      1(  13)  ---------------------------------------


    POTLOK:  cpu time    0.0507: real time    0.0750
    SETDIJ:  cpu time    0.0654: real time    0.0656
     EDDAV:  cpu time    1.1646: real time    1.1648
       DOS:  cpu time    0.0026: real time    0.0033
    CHARGE:  cpu time    0.1592: real time    0.1595
    MIXING:  cpu time    0.0044: real time    0.0046
    --------------------------------------------
      LOOP:  cpu time    1.4470: real time    1.4746

 eigenvalue-minimisations  :  3704
 total energy-change (2. order) : 0.1748617E-05  (-0.1466746E-05)
 number of electron      25.0000000 magnetization
 augmentation part        4.9846302 magnetization

 Broyden mixing:
  rms(total) = 0.35838E-02    rms(broyden)= 0.35838E-02
  rms(prec ) = 0.37560E-02
  weight for this iteration     100.00

 eigenvalues of (default mixing * dielectric matrix)
  average eigenvalue GAMMA=   1.4324
  2.5991  2.5991  1.9070  1.1331  0.9497  0.9497  0.6112  0.7106

 Free energy of the ion-electron system (eV)
  ---------------------------------------------------
  alpha Z        PSCENC =        94.73196678
  Ewald energy   TEWEN  =     -1506.39065775
  -Hartree energ DENC   =      -321.92542525
  -exchange      EXHF   =         0.00000000
  -V(xc)+E(xc)   XCENC  =       -20.66379612
  PAW double counting   =      2258.86466437    -2170.54503154
  entropy T*S    EENTRO =        -0.00029432
  eigenvalues    EBANDS =       -98.91347221
  atomic energy  EATOM  =      1741.10451121
  Solvation  Ediel_sol  =         0.00000000
  ---------------------------------------------------
  free energy    TOTEN  =       -23.73753483 eV

  energy without entropy =      -23.73724051  energy(sigma->0) =      -23.73738767


--------------------------------------------------------------------------------------------------------




--------------------------------------- Iteration      1(  14)  ---------------------------------------


    POTLOK:  cpu time    0.0633: real time    0.0907
    SETDIJ:  cpu time    0.0639: real time    0.0648
     EDDAV:  cpu time    1.0589: real time    1.0591
       DOS:  cpu time    0.0026: real time    0.0029
    CHARGE:  cpu time    0.1582: real time    0.1584
    MIXING:  cpu time    0.0059: real time    0.0060
    --------------------------------------------
      LOOP:  cpu time    1.3528: real time    1.3811

 eigenvalue-minimisations  :  3256
 total energy-change (2. order) :-0.3454898E-07  (-0.1484291E-06)
 number of electron      25.0000000 magnetization
 augmentation part        4.9846825 magnetization

 Broyden mixing:
  rms(total) = 0.90178E-03    rms(broyden)= 0.90177E-03
  rms(prec ) = 0.95542E-03
  weight for this iteration     100.00

 eigenvalues of (default mixing * dielectric matrix)
  average eigenvalue GAMMA=   1.4538
  2.5284  2.5284  1.7053  1.4074  1.4074  1.0654  0.6429  0.8994  0.8994

 Free energy of the ion-electron system (eV)
  ---------------------------------------------------
  alpha Z        PSCENC =        94.73196678
  Ewald energy   TEWEN  =     -1506.39065775
  -Hartree energ DENC   =      -321.92843726
  -exchange      EXHF   =         0.00000000
  -V(xc)+E(xc)   XCENC  =       -20.66349833
  PAW double counting   =      2259.48660605    -2171.16768346
  entropy T*S    EENTRO =        -0.00029400
  eigenvalues    EBANDS =       -98.91004811
  atomic energy  EATOM  =      1741.10451121
  Solvation  Ediel_sol  =         0.00000000
  ---------------------------------------------------
  free energy    TOTEN  =       -23.73753487 eV

  energy without entropy =      -23.73724086  energy(sigma->0) =      -23.73738786


--------------------------------------------------------------------------------------------------------




--------------------------------------- Iteration      1(  15)  ---------------------------------------


    POTLOK:  cpu time    0.0497: real time    0.0848
    SETDIJ:  cpu time    0.0642: real time    0.0643
     EDDAV:  cpu time    0.9763: real time    0.9765
       DOS:  cpu time    0.0025: real time    0.0029
    --------------------------------------------
      LOOP:  cpu time    1.0926: real time    1.1268

 eigenvalue-minimisations  :  2920
 total energy-change (2. order) :-0.2079901E-07  (-0.2547081E-07)
 number of electron      25.0000000 magnetization
 augmentation part        4.9846825 magnetization

 Free energy of the ion-electron system (eV)
  ---------------------------------------------------
  alpha Z        PSCENC =        94.73196678
  Ewald energy   TEWEN  =     -1506.39065775
  -Hartree energ DENC   =      -321.93088116
  -exchange      EXHF   =         0.00000000
  -V(xc)+E(xc)   XCENC  =       -20.66336648
  PAW double counting   =      2259.39096866    -2171.07239893
  entropy T*S    EENTRO =        -0.00029382
  eigenvalues    EBANDS =       -98.90738339
  atomic energy  EATOM  =      1741.10451121
  Solvation  Ediel_sol  =         0.00000000
  ---------------------------------------------------
  free energy    TOTEN  =       -23.73753489 eV

  energy without entropy =      -23.73724107  energy(sigma->0) =      -23.73738798


--------------------------------------------------------------------------------------------------------




 average (electrostatic) potential at core
  the test charge radii are     1.1707  1.1712  1.2059
  (the norm of the test charge is              1.0000)
       1 -36.5137       2 -85.8575       3 -67.4105



 E-fermi :   7.5466     XC(G=0): -10.8092     alpha+bet :-12.1723


 k-point     1 :       0.0000    0.0000    0.0000
  band No.  band energies     occupation
      1     -24.9123      2.00000
      2     -24.9123      2.00000
      3     -24.9123      2.00000
      4      -4.3877      2.00000
      5       2.1645      2.00000
      6       2.1645      2.00000
      7       2.1645      2.00000
      8       2.9607      2.00000
      9       2.9607      2.00000
     10       5.9744      2.00000
     11       6.1714      2.00000
     12       6.1714      2.00000
     13       6.1714      2.00000
     14       8.3280      0.00000
     15       8.3280      0.00000
     16       8.3280      0.00000

 k-point     2 :       0.0769    0.0000   -0.0000
  band No.  band energies     occupation
      1     -24.9128      2.00000
      2     -24.9123      2.00000
      3     -24.9123      2.00000
      4      -4.3329      2.00000
      5       2.0789      2.00000
      6       2.1473      2.00000
      7       2.1473      2.00000
      8       2.9892      2.00000
      9       2.9892      2.00000
     10       5.4461      2.00000
     11       6.1051      2.00000
     12       6.1051      2.00000
     13       6.4723      2.00000
     14       8.1780      0.00000
     15       8.1780      0.00000
     16       8.6306      0.00000

 k-point     3 :       0.1538   -0.0000    0.0000
  band No.  band energies     occupation
      1     -24.9144      2.00000
      2     -24.9123      2.00000
      3     -24.9123      2.00000
      4      -4.1745      2.00000
      5       1.8452      2.00000
      6       2.1096      2.00000
      7       2.1096      2.00000
      8       3.0551      2.00000
      9       3.0551      2.00000
     10       4.7264      2.00000
     11       5.9387      2.00000
     12       5.9387      2.00000
     13       6.7314      2.00000
     14       8.0982      0.00000
     15       8.0982      0.00000
     16       9.2992      0.00000

 k-point     4 :       0.2308    0.0000    0.0000
  band No.  band energies     occupation
      1     -24.9167      2.00000
      2     -24.9123      2.00000
      3     -24.9123      2.00000
      4      -3.9310      2.00000
      5       1.5122      2.00000
      6       2.0754      2.00000
      7       2.0754      2.00000
      8       3.1205      2.00000
      9       3.1205      2.00000
     10       4.0600      2.00000
     11       5.7421      2.00000
     12       5.7421      2.00000
     13       6.9562      2.00000
     14       8.1395      0.00000
     15       8.1395      0.00000
     16       9.8819      0.00000

 k-point     5 :       0.3077   -0.0000    0.0000
  band No.  band energies     occupation
      1     -24.9190      2.00000
      2     -24.9122      2.00000
      3     -24.9122      2.00000
      4      -3.6383      2.00000
      5       1.1330      2.00000
      6       2.0580      2.00000
      7       2.0580      2.00000
      8       3.1571      2.00000
      9       3.1571      2.00000
     10       3.5409      2.00000
     11       5.5755      2.00000
     12       5.5755      2.00000
     13       7.1628      2.00000
     14       8.2675      0.00000
     15       8.2675      0.00000
     16       9.5443      0.00000

 k-point     6 :       0.3846   -0.0000    0.0000
  band No.  band energies     occupation
      1     -24.9210      2.00000
      2     -24.9122      2.00000
      3     -24.9122      2.00000
      4      -3.3571      2.00000
      5       0.7797      2.00000
      6       2.0567      2.00000
      7       2.0567      2.00000
      8       3.1615      2.00000
      9       3.1615      2.00000
     10       3.2026      2.00000
     11       5.4669      2.00000
     12       5.4669      2.00000
     13       7.3608      2.00000
     14       8.4342      0.00000
     15       8.4342      0.00000
     16       8.9059      0.00000

 k-point     7 :       0.4615    0.0000    0.0000
  band No.  band energies     occupation
      1     -24.9221      2.00000
      2     -24.9122      2.00000
      3     -24.9122      2.00000
      4      -3.1757      2.00000
      5       0.5563      2.00000
      6       2.0614      2.00000
      7       2.0614      2.00000
      8       3.0400      2.00000
      9       3.1528      2.00000
     10       3.1528      2.00000
     11       5.4167      2.00000
     12       5.4167      2.00000
     13       7.5310      1.97257
     14       8.4739      0.00000
     15       8.5618      0.00000
     16       8.5618      0.00000

 k-point     8 :       0.0769    0.0769    0.0000
  band No.  band energies     occupation
      1     -24.9128      2.00000
      2     -24.9124      2.00000
      3     -24.9124      2.00000
      4      -4.3150      2.00000
      5       1.9665      2.00000
      6       2.1917      2.00000
      7       2.1917      2.00000
      8       2.9893      2.00000
      9       2.9962      2.00000
     10       5.4418      2.00000
     11       5.9861      2.00000
     12       5.9861      2.00000
     13       6.6004      2.00000
     14       8.0206      0.00000
     15       8.5131      0.00000
     16       8.5813      0.00000

 k-point     9 :       0.1538    0.0769    0.0000
  band No.  band energies     occupation
      1     -24.9140      2.00000
      2     -24.9124      2.00000
      3     -24.9124      2.00000
      4      -4.1921      2.00000
      5       1.7600      2.00000
      6       2.1740      2.00000
      7       2.2012      2.00000
      8       3.0351      2.00000
      9       3.0397      2.00000
     10       4.9265      2.00000
     11       5.8022      2.00000
     12       5.8325      2.00000
     13       6.8560      2.00000
     14       7.8981      0.00000
     15       8.3264      0.00000
     16       8.9852      0.00000

 k-point    10 :       0.2308    0.0769    0.0000
  band No.  band energies     occupation
      1     -24.9160      2.00000
      2     -24.9125      2.00000
      3     -24.9123      2.00000
      4      -3.9785      2.00000
      5       1.4990      2.00000
      6       2.1058      2.00000
      7       2.1873      2.00000
      8       3.0933      2.00000
      9       3.1077      2.00000
     10       4.2783      2.00000
     11       5.6173      2.00000
     12       5.6522      2.00000
     13       7.1318      2.00000
     14       7.9218      0.00000
     15       8.2418      0.00000
     16       9.4688      0.00000

 k-point    11 :       0.3077    0.0769    0.0000
  band No.  band energies     occupation
      1     -24.9183      2.00000
      2     -24.9125      2.00000
      3     -24.9124      2.00000
      4      -3.7040      2.00000
      5       1.1919      2.00000
      6       2.0459      2.00000
      7       2.1669      2.00000
      8       3.1411      2.00000
      9       3.1544      2.00000
[...]
  212              fftbas_plan_mpi                       0.059966                     12   6
  213                dfftw_execute                         0.025783                   36   7
  214                map_backward                          0.004256                   12   7
  215                  map_gather                            0.000714                  6   8
  216                  m_alltoallv_z                         0.002056                  6   8
  217                  map_scatter                           0.001196                  6   8
  218                map_forward                           0.026861                   12   7
  219                  map_gather                            0.014762                  6   8
  220                  m_alltoallv_z                         0.005022                  6   8
  221                  map_scatter                           0.006781                  6   8
  222            M_sumb_d                              0.001052                        6   5
  223          M_sumb_d                              0.000040                          1   4
  224        setdij_                               1.135798                           20   3
  225          fft3d_mpi                             0.216281                         40   4
  226            fftbas_plan_mpi                       0.199489                       40   5
  227              dfftw_execute                         0.086352                    120   6
  228              map_backward                          0.013158                     40   6
  229                map_gather                            0.002634                   20   7
  230                m_alltoallv_z                         0.005657                   20   7
  231                map_scatter                           0.003867                   20   7
  232              map_forward                           0.089741                     40   6
  233                map_gather                            0.050366                   20   7
  234                m_alltoallv_z                         0.017352                   20   7
  235                map_scatter                           0.021033                   20   7
  236          M_sumb_d                              0.003110                         20   4
  237        set_dd_magatom                        0.000003                            1   3
  238        set_dd_paw                            0.014987                            1   3
  239          set_rsgf_all                          0.000004                          1   4
  240          M_sumb_d                              0.014841                          8   4
  241        strkin                                0.000989                            1   3
  242          M_sumb_d                              0.000568                          1   4
  243        strelo                                0.002674                            1   3
  244          M_sumb_d                              0.000262                          2   4
  245        strenl                                0.767413                            1   3
  246          spher                                 0.614917                         19   4
  247          phase                                 0.012529                        189   4
  248          proj1                                 0.124736                        756   4
  249            crexp_mul_wave                        0.019312                     2268   5
  250            M_sumb_d                              0.034531                      756   5
  251          M_sumb_d                              0.002258                          1   4
  252        M_sumb_d                              0.000238                            6   3
  253        fft3d_mpi                             0.015083                           11   3
  254          fftbas_plan_mpi                       0.014063                         11   4
  255            dfftw_execute                         0.004996                       33   5
  256            map_forward                           0.002798                       10   5
  257              map_gather                            0.000647                      5   6
  258              m_alltoallv_z                         0.001247                      5   6
  259              map_scatter                           0.000669                      5   6
  260            map_backward                          0.003725                       12   5
  261              map_gather                            0.000780                      6   6
  262              m_alltoallv_z                         0.001465                      6   6
  263              map_scatter                           0.001143                      6   6
  264        ggaall_grid                           0.001504                            1   3
  265        forhar                                0.006357                            2   3
  266          M_sumb_d                              0.000212                          2   4
  267        strehar                               0.002688                            1   3
  268          M_sumb_d                              0.000232                          1   4
  269        chggra                                0.005712                            1   3
  270          fft3d_mpi                             0.004048                          3   4
  271            fftbas_plan_mpi                       0.003663                        3   5
  272              dfftw_execute                         0.001336                      9   6
  273              map_backward                          0.000604                      2   6
  274                map_gather                            0.000123                    1   7
  275                m_alltoallv_z                         0.000239                    1   7
  276                map_scatter                           0.000190                    1   7
  277              map_forward                           0.001062                      4   6
  278                map_gather                            0.000235                    2   7
  279                m_alltoallv_z                         0.000476                    2   7
  280                map_scatter                           0.000260                    2   7
  281          M_sumb_d                              0.000137                          3   4
  282        brmix                                 0.012840                            1   3
  283          M_sumb_d                              0.000255                          6   4
  284          brpre                                 0.000053                          1   4
  285          setg0                                 0.001388                          1   4
  286          broyd                                 0.002023                          1   4
  287            M_sumb_d                              0.000624                       17   5
  288            brsav                                 0.000097                       16   5
  289            brget                                 0.000281                       59   5
  290          M_bcast_z                             0.008076                          1   4
  291          M_bcast_d                             0.000070                          1   4
  292        M_bcast_d                             0.000041                            2   3
  293      potlok                                0.027044                              1   2
  294        fft3d_mpi                             0.018713                           13   3
  295          fftbas_plan_mpi                       0.017527                         13   4
  296            dfftw_execute                         0.005747                       39   5
  297            map_forward                           0.004277                       14   5
  298              map_gather                            0.000875                      8   6
  299              m_alltoallv_z                         0.001989                      8   6
  300              map_scatter                           0.001055                      8   6
  301            map_backward                          0.004274                       12   5
  302              map_gather                            0.000904                      6   6
  303              m_alltoallv_z                         0.001755                      6   6
  304              map_scatter                           0.001248                      6   6
  305        ggaall_grid                           0.001564                            1   3
  306        M_sumb_d                              0.000326                            6   3
  307        M_bcast_d                             0.000121                            1   3
  308      potlok_metagga                        0.000004                              1   2
  309      set_dd_magatom                        0.000003                              1   2
  310      set_dd_paw                            0.000378                              1   2
  311        set_rsgf_all                          0.000004                            1   3
  312        M_sumb_d                              0.000232                            8   3
  313      densta                                0.002022                              1   2
  314        M_sumb_d                              0.000777                           41   3
  315      lprj_proall                           0.000008                              1   2

 Flat profile
 ============

             routine name                   CPU           calls
 ---------------------------------------------------------------
 total_time                             12.596385           1
 eddav                                   3.079798          15
 dfftw_execute                           3.064258       29937
 fftbas_plan_mpi                         2.063260        9981
 setdij_                                 1.853473          39
 M_sumb_d                                1.524178       28095
 m_alltoallv_z                           1.187282       10002
 elmin                                   1.127258           1
 set_charge                              0.934340          11
 spher                                   0.697821          20
 M_alltoall_d                            0.694027       32620
 pdssyex_zheevx                          0.653773         315
 orth1                                   0.506950        6651
 vhamil                                  0.452835        4420
 proj1                                   0.438159        4000
 map_gather                              0.425904       10002
 fftwav_mpi                              0.390832        5288
 map_scatter                             0.389879       10002
 map_forward                             0.387460       10838
 gemm                                    0.372219       13260
 M_bcast_z                               0.313424        3919
 vnlac0                                  0.291940        4420
 redis_pw                                0.274676       12672
 hamiltmu                                0.241921        2210
 redis_proj                              0.241867       15853
 crpa_reader                             0.241762           1
 w1_copy                                 0.183775       13260
 fft3d_mpi                               0.181351        9979
 map_backward                            0.158800        9120
 work_mul_crexp                          0.150548       13260
 fftext_mpi                              0.145406        4420
 eccp                                    0.114123        1260
 crexp_mul_wave                          0.110767       12000
 M_bcast_d                               0.094355        2240
 kinhamil                                0.089922        4420
 overl                                   0.084080        7601
 potlok                                  0.077595          12
 force_and_stress                        0.059132           1
 pw_charge                               0.057303         868
 overl1                                  0.055635        4420
 lincom                                  0.045592         336
 apply_precond                           0.044528        3160
 setup_precond                           0.041337        1260
 phase                                   0.036231         547
 w1_projall                              0.034335        1580
 soft_charge                             0.022711          11
 fornl                                   0.021808           1
 ggaall_grid                             0.019791          13
 truncate_high_frequency_w1              0.019406        5680
 densta                                  0.018850          16
 setg0                                   0.013101          12
 strenl                                  0.012974           1
 brmix                                   0.011533          11
 broyd                                   0.007006          11
 forhar                                  0.006145           2
 forloc                                  0.003130           1
 depsum                                  0.002609          11
 set_dd_paw                              0.002565          13
 strehar                                 0.002456           1
 strelo                                  0.002412           1
 orthch                                  0.002018           1
 brget                                   0.001755         368
 chggra                                  0.001527           1
 brgrid                                  0.001248           1
 proj                                    0.001034          21
 choleski                                0.000822          21
 brsav                                   0.000796         112
 brpre                                   0.000718          11
 strkin                                  0.000421           1
 fordep                                  0.000109           1
 vectorpot                               0.000069          12
 set_rsgf_all                            0.000060          13
 set_dd_magatom                          0.000050          13
 potlok_metagga                          0.000047          12
 set_kineden                             0.000036          10
 rotate_active_occupied_orbital          0.000015           1
 lprj_proall                             0.000008           1
 redis_pw_over_bands                     0.000003           1
 ---------------------------------------------------------------
  summed up times    36.3877279758453

 Accumulative profile
 ====================

             routine name                   CPU           calls
 ---------------------------------------------------------------
 total_time                             36.387728           1
 elmin                                  20.300798           1
 eddav                                  16.373918          15
 fft3d_mpi                               7.779978        9979
 fftbas_plan_mpi                         7.676842        9981
 hamiltmu                                5.100105        2210
 fftwav_mpi                              4.235609        5288
 kinhamil                                3.259263        4420
 fftext_mpi                              3.169340        4420
 dfftw_execute                           3.064258       29937
 force_and_stress                        2.570949           1
 setdij_                                 2.313770          39
 set_charge                              1.881077          11
 M_sumb_d                                1.524178       28095
 map_forward                             1.497544       10838
 m_alltoallv_z                           1.187282       10002
 vnlac0                                  1.090451        4420
 map_backward                            1.051781        9120
 proj1                                   0.779689        4000
 strenl                                  0.767413           1
 soft_charge                             0.750945          11
 spher                                   0.697821          20
 M_alltoall_d                            0.694027       32620
 w1_projall                              0.675957        1580
 redis_pw                                0.666226       12672
 pdssyex_zheevx                          0.653773         315
 redis_proj                              0.544344       15853
 orth1                                   0.506950        6651
 vhamil                                  0.452835        4420
 map_gather                              0.425904       10002
 map_scatter                             0.389879       10002
 gemm                                    0.372219       13260
 fordep                                  0.348047           1
 potlok                                  0.318878          12
 M_bcast_z                               0.313424        3919
 crpa_reader                             0.241762           1
 eccp                                    0.188909        1260
 w1_copy                                 0.183775       13260
 work_mul_crexp                          0.150548       13260
 crexp_mul_wave                          0.110767       12000
 M_bcast_d                               0.094355        2240
 overl                                   0.084080        7601
 set_dd_paw                              0.072268          13
 setup_precond                           0.071558        1260
 brmix                                   0.060250          11
 pw_charge                               0.057303         868
 overl1                                  0.055635        4420
 lincom                                  0.045592         336
 apply_precond                           0.044528        3160
 phase                                   0.036231         547
 fornl                                   0.031715           1
 densta                                  0.030567          16
 orthch                                  0.027932           1
 ggaall_grid                             0.019791          13
 truncate_high_frequency_w1              0.019406        5680
 broyd                                   0.014467          11
 proj                                    0.014364          21
 setg0                                   0.013101          12
 forhar                                  0.006357           2
 depsum                                  0.005847          11
 chggra                                  0.005712           1
 forloc                                  0.003388           1
 strehar                                 0.002688           1
 strelo                                  0.002674           1
 brget                                   0.001755         368
 brgrid                                  0.001248           1
 strkin                                  0.000989           1
 choleski                                0.000822          21
 brsav                                   0.000796         112
 brpre                                   0.000718          11
 vectorpot                               0.000069          12
 set_rsgf_all                            0.000060          13
 set_dd_magatom                          0.000050          13
 potlok_metagga                          0.000047          12
 set_kineden                             0.000036          10
 rotate_active_occupied_orbital          0.000015           1
 lprj_proall                             0.000008           1
 redis_pw_over_bands                     0.000003           1
 ---------------------------------------------------------------

Profiling took   0.780942  0.947509  0.006690  0.005294 seconds
Profiling took   0.755249 seconds
