<?xml version="1.0" encoding="ISO-8859-1"?>
<modeling>
 <generator>
  <i name="program" type="string">vasp </i>
  <i name="version" type="string">6.0.8  </i>
  <i name="subversion" type="string">29Jun18 (build Jun 13 2019 12:54:44) complex                          parallel </i>
  <i name="platform" type="string">IFC18_CrayMPICH </i>
  <i name="date" type="string">2021 12 05 </i>
  <i name="time" type="string">14:21:53 </i>
 </generator>
 <incar>
  <i type="int" name="KPAR">     4</i>
  <i type="int" name="NPAR">     4</i>
  <i type="int" name="ISTART">     0</i>
  <i type="string" name="PREC"> ACC</i>
  <i type="string" name="ALGO"> Normal</i>
  <i type="logical" name="ADDGRID"> T  </i>
  <i type="int" name="ISPIN">     1</i>
  <i type="int" name="NELMIN">     5</i>
  <i type="int" name="IBRION">    -1</i>
  <i name="EDIFF">      0.00000010</i>
  <i type="int" name="NSW">     0</i>
  <i type="int" name="ISIF">     3</i>
  <i name="ENCUT">    700.00000000</i>
  <i type="logical" name="LREAL"> F  </i>
  <i type="int" name="ISMEAR">     0</i>
  <i name="SIGMA">      0.01000000</i>
  <i type="logical" name="LWAVE"> F  </i>
  <i type="logical" name="LCHARG"> F  </i>
  <i type="logical" name="LVTOT"> F  </i>
  <i type="string" name="ALGO"> Normal</i>
  <i type="string" name="GGA"> PS</i>
  <i name="EDIFF">      0.00000010</i>
  <i type="int" name="ISPIN">     1</i>
 </incar>
 <structure name="primitive_cell" >
  <crystal>
   <varray name="basis" >
    <v>       0.00000000       3.30064418       3.30064418 </v>
    <v>       3.30064418       0.00000000       3.30064418 </v>
    <v>       3.30064418       3.30064418       0.00000000 </v>
   </varray>
   <i name="volume">     71.91609925 </i>
   <varray name="rec_basis" >
    <v>      -0.15148558       0.15148558       0.15148558 </v>
    <v>       0.15148558      -0.15148558       0.15148558 </v>
    <v>       0.15148558       0.15148558      -0.15148558 </v>
   </varray>
  </crystal>
  <varray name="positions" >
   <v>       0.75000000       0.75000000       0.75000000 </v>
   <v>       0.25000000       0.25000000       0.25000000 </v>
   <v>       0.00000000       0.00000000       0.00000000 </v>
  </varray>
 </structure>
 <varray name="primitive_index" >
  <v type="int" >        1 </v>
  <v type="int" >        2 </v>
  <v type="int" >        3 </v>
 </varray>
 <kpoints>
  <generation param="Gamma">
   <v type="int" name="divisions">      13       13       13 </v>
   <v name="usershift">      0.00000000       0.00000000       0.00000000 </v>
   <v name="genvec1">      0.07692308      -0.00000000       0.00000000 </v>
   <v name="genvec2">     -0.00000000       0.07692308      -0.00000000 </v>
   <v name="genvec3">      0.00000000       0.00000000       0.07692308 </v>
   <v name="shift">      0.00000000       0.00000000       0.00000000 </v>
  </generation>
  <varray name="kpointlist" >
   <v>       0.00000000       0.00000000       0.00000000 </v>
   <v>       0.07692308       0.00000000      -0.00000000 </v>
   <v>       0.15384615      -0.00000000       0.00000000 </v>
   <v>       0.23076923       0.00000000       0.00000000 </v>
   <v>       0.30769231      -0.00000000       0.00000000 </v>
   <v>       0.38461538      -0.00000000       0.00000000 </v>
   <v>       0.46153846       0.00000000       0.00000000 </v>
   <v>       0.07692308       0.07692308       0.00000000 </v>
   <v>       0.15384615       0.07692308       0.00000000 </v>
   <v>       0.23076923       0.07692308       0.00000000 </v>
   <v>       0.30769231       0.07692308       0.00000000 </v>
   <v>       0.38461538       0.07692308       0.00000000 </v>
   <v>       0.46153846       0.07692308       0.00000000 </v>
   <v>      -0.46153846       0.07692308       0.00000000 </v>
   <v>      -0.38461538       0.07692308       0.00000000 </v>
   <v>      -0.30769231       0.07692308      -0.00000000 </v>
   <v>      -0.23076923       0.07692308       0.00000000 </v>
   <v>      -0.15384615       0.07692308       0.00000000 </v>
   <v>      -0.07692308       0.07692308       0.00000000 </v>
   <v>       0.15384615       0.15384615       0.00000000 </v>
   <v>       0.23076923       0.15384615       0.00000000 </v>
   <v>       0.30769231       0.15384615       0.00000000 </v>
   <v>       0.38461538       0.15384615       0.00000000 </v>
   <v>       0.46153846       0.15384615       0.00000000 </v>
   <v>      -0.46153846       0.15384615      -0.00000000 </v>
   <v>      -0.38461538       0.15384615       0.00000000 </v>
   <v>      -0.30769231       0.15384615      -0.00000000 </v>
   <v>      -0.23076923       0.15384615      -0.00000000 </v>
   <v>      -0.15384615       0.15384615      -0.00000000 </v>
   <v>       0.23076923       0.23076923       0.00000000 </v>
   <v>       0.30769231       0.23076923      -0.00000000 </v>
   <v>       0.38461538       0.23076923       0.00000000 </v>
   <v>       0.46153846       0.23076923       0.00000000 </v>
   <v>      -0.46153846       0.23076923      -0.00000000 </v>
   <v>      -0.38461538       0.23076923      -0.00000000 </v>
   <v>      -0.30769231       0.23076923       0.00000000 </v>
   <v>      -0.23076923       0.23076923       0.00000000 </v>
   <v>       0.30769231       0.30769231       0.00000000 </v>
   <v>       0.38461538       0.30769231       0.00000000 </v>
   <v>       0.46153846       0.30769231       0.00000000 </v>
   <v>      -0.46153846       0.30769231       0.00000000 </v>
   <v>      -0.38461538       0.30769231      -0.00000000 </v>
   <v>      -0.30769231       0.30769231      -0.00000000 </v>
   <v>       0.38461538       0.38461538       0.00000000 </v>
   <v>       0.46153846       0.38461538       0.00000000 </v>
   <v>      -0.46153846       0.38461538       0.00000000 </v>
   <v>      -0.38461538       0.38461538      -0.00000000 </v>
   <v>       0.46153846       0.46153846       0.00000000 </v>
   <v>      -0.46153846       0.46153846       0.00000000 </v>
   <v>       0.23076923       0.15384615       0.07692308 </v>
   <v>       0.30769231       0.15384615       0.07692308 </v>
   <v>       0.38461538       0.15384615       0.07692308 </v>
   <v>       0.46153846       0.15384615       0.07692308 </v>
   <v>      -0.46153846       0.15384615       0.07692308 </v>
   <v>       0.30769231       0.23076923       0.07692308 </v>
   <v>       0.38461538       0.23076923       0.07692308 </v>
   <v>       0.46153846       0.23076923       0.07692308 </v>
   <v>      -0.46153846       0.23076923       0.07692308 </v>
   <v>      -0.38461538       0.23076923       0.07692308 </v>
   <v>      -0.30769231       0.23076923       0.07692308 </v>
   <v>      -0.23076923       0.23076923       0.07692308 </v>
   <v>      -0.15384615       0.23076923       0.07692308 </v>
   <v>       0.38461538       0.30769231       0.07692308 </v>
   <v>       0.46153846       0.30769231       0.07692308 </v>
   <v>      -0.46153846       0.30769231       0.07692308 </v>
   <v>      -0.38461538       0.30769231       0.07692308 </v>
   <v>      -0.30769231       0.30769231       0.07692308 </v>
   <v>      -0.23076923       0.30769231       0.07692308 </v>
   <v>       0.46153846       0.38461538       0.07692308 </v>
   <v>      -0.46153846       0.38461538       0.07692308 </v>
   <v>      -0.38461538       0.38461538       0.07692308 </v>
   <v>      -0.30769231       0.38461538       0.07692308 </v>
   <v>      -0.46153846       0.46153846       0.07692308 </v>
   <v>      -0.38461538       0.46153846       0.07692308 </v>
   <v>       0.46153846       0.30769231       0.15384615 </v>
   <v>      -0.46153846       0.30769231       0.15384615 </v>
   <v>      -0.38461538       0.30769231       0.15384615 </v>
   <v>      -0.46153846       0.38461538       0.15384615 </v>
   <v>      -0.38461538       0.38461538       0.15384615 </v>
   <v>      -0.30769231       0.38461538       0.15384615 </v>
   <v>      -0.23076923       0.38461538       0.15384615 </v>
   <v>      -0.38461538       0.46153846       0.15384615 </v>
   <v>      -0.30769231       0.46153846       0.15384615 </v>
   <v>      -0.30769231       0.46153846       0.23076923 </v>
  </varray>
  <varray name="weights" >
   <v>       0.00045517 </v>
   <v>       0.00364133 </v>
   <v>       0.00364133 </v>
   <v>       0.00364133 </v>
   <v>       0.00364133 </v>
   <v>       0.00364133 </v>
   <v>       0.00364133 </v>
   <v>       0.00273100 </v>
   <v>       0.01092399 </v>
   <v>       0.01092399 </v>
   <v>       0.01092399 </v>
   <v>       0.01092399 </v>
   <v>       0.01092399 </v>
   <v>       0.01092399 </v>
   <v>       0.01092399 </v>
   <v>       0.01092399 </v>
   <v>       0.01092399 </v>
   <v>       0.01092399 </v>
   <v>       0.00546199 </v>
   <v>       0.00273100 </v>
   <v>       0.01092399 </v>
   <v>       0.01092399 </v>
   <v>       0.01092399 </v>
   <v>       0.01092399 </v>
   <v>       0.01092399 </v>
   <v>       0.01092399 </v>
   <v>       0.01092399 </v>
   <v>       0.01092399 </v>
   <v>       0.00546199 </v>
   <v>       0.00273100 </v>
   <v>       0.01092399 </v>
   <v>       0.01092399 </v>
   <v>       0.01092399 </v>
   <v>       0.01092399 </v>
   <v>       0.01092399 </v>
   <v>       0.01092399 </v>
   <v>       0.00546199 </v>
   <v>       0.00273100 </v>
   <v>       0.01092399 </v>
   <v>       0.01092399 </v>
   <v>       0.01092399 </v>
   <v>       0.01092399 </v>
   <v>       0.00546199 </v>
   <v>       0.00273100 </v>
   <v>       0.01092399 </v>
   <v>       0.01092399 </v>
   <v>       0.00546199 </v>
   <v>       0.00273100 </v>
   <v>       0.00546199 </v>
   <v>       0.01092399 </v>
   <v>       0.02184797 </v>
   <v>       0.02184797 </v>
   <v>       0.02184797 </v>
   <v>       0.02184797 </v>
   <v>       0.01092399 </v>
   <v>       0.02184797 </v>
   <v>       0.02184797 </v>
   <v>       0.02184797 </v>
   <v>       0.02184797 </v>
   <v>       0.02184797 </v>
   <v>       0.02184797 </v>
   <v>       0.01092399 </v>
   <v>       0.01092399 </v>
   <v>       0.02184797 </v>
   <v>       0.02184797 </v>
   <v>       0.02184797 </v>
   <v>       0.02184797 </v>
   <v>       0.01092399 </v>
   <v>       0.01092399 </v>
   <v>       0.02184797 </v>
   <v>       0.02184797 </v>
   <v>       0.01092399 </v>
   <v>       0.01092399 </v>
   <v>       0.01092399 </v>
   <v>       0.01092399 </v>
   <v>       0.02184797 </v>
   <v>       0.02184797 </v>
   <v>       0.01092399 </v>
   <v>       0.02184797 </v>
   <v>       0.02184797 </v>
   <v>       0.01092399 </v>
   <v>       0.01092399 </v>
   <v>       0.01092399 </v>
   <v>       0.01092399 </v>
  </varray>
 </kpoints>
 <parameters>
  <separator name="general" >
   <i type="string" name="SYSTEM">unknown system</i>
   <i type="logical" name="LCOMPAT"> F  </i>
  </separator>
  <separator name="electronic" >
   <i type="string" name="PREC">acc</i>
   <i name="ENMAX">    700.00000000</i>
   <i name="ENAUG">    380.87800000</i>
   <i name="EDIFF">      0.00000010</i>
   <i type="int" name="IALGO">    38</i>
   <i type="int" name="IWAVPR">    10</i>
   <i type="int" name="NBANDS">    16</i>
   <i type="int" name="NBANDSLOW">    -1</i>
   <i type="int" name="NBANDSHIGH">    -1</i>
   <i name="NELECT">     25.00000000</i>
   <i type="int" name="TURBO">     0</i>
   <i type="int" name="IRESTART">     0</i>
   <i type="int" name="NREBOOT">     0</i>
   <i type="int" name="NMIN">     0</i>
   <i name="EREF">      0.00000000</i>
   <separator name="electronic smearing" >
    <i type="int" name="ISMEAR">     0</i>
    <i name="SIGMA">      0.01000000</i>
    <i name="KSPACING">      0.50000000</i>
    <i type="logical" name="KGAMMA"> T  </i>
    <i type="logical" name="KBLOWUP"> T  </i>
   </separator>
   <separator name="electronic projectors" >
    <i type="logical" name="LREAL"> F  </i>
    <v name="ROPT">      0.00000000      0.00000000      0.00000000</v>
    <i type="int" name="LMAXPAW">  -100</i>
    <i type="int" name="LMAXMIX">     2</i>
    <i type="logical" name="NLSPLINE"> F  </i>
   </separator>
   <separator name="electronic startup" >
    <i type="int" name="ISTART">     0</i>
    <i type="int" name="ICHARG">     2</i>
    <i type="int" name="INIWAV">     1</i>
   </separator>
   <separator name="electronic spin" >
    <i type="int" name="ISPIN">     1</i>
    <i type="logical" name="LNONCOLLINEAR"> F  </i>
    <v name="MAGMOM">      1.00000000      1.00000000      1.00000000</v>
    <i name="NUPDOWN">     -1.00000000</i>
    <i type="logical" name="LSORBIT"> F  </i>
    <v name="SAXIS">      0.00000000      0.00000000      1.00000000</v>
    <i type="logical" name="LSPIRAL"> F  </i>
    <v name="QSPIRAL">      0.00000000      0.00000000      0.00000000</v>
    <i type="logical" name="LZEROZ"> F  </i>
   </separator>
   <separator name="electronic exchange-correlation" >
    <i type="logical" name="LASPH"> F  </i>
    <i type="logical" name="LMETAGGA"> F  </i>
   </separator>
   <separator name="electronic convergence" >
    <i type="int" name="NELM">    60</i>
    <i type="int" name="NELMDL">    -5</i>
    <i type="int" name="NELMIN">     5</i>
    <i name="ENINI">    700.00000000</i>
    <separator name="electronic convergence detail" >
     <i type="logical" name="LDIAG"> T  </i>
     <i type="logical" name="LSUBROT"> F  </i>
     <i name="WEIMIN">      0.00000000</i>
     <i name="EBREAK">      0.00000000</i>
     <i name="DEPER">      0.30000000</i>
     <i type="int" name="NRMM">     4</i>
     <i name="TIME">      0.40000000</i>
    </separator>
   </separator>
   <separator name="electronic mixer" >
    <i name="AMIX">      0.40000000</i>
    <i name="BMIX">      1.00000000</i>
    <i name="AMIN">      0.10000000</i>
    <i name="AMIX_MAG">      1.60000000</i>
    <i name="BMIX_MAG">      1.00000000</i>
    <separator name="electronic mixer details" >
     <i type="int" name="IMIX">     4</i>
     <i type="logical" name="MIXFIRST"> F  </i>
     <i type="int" name="MAXMIX">   -45</i>
     <i name="WC">    100.00000000</i>
     <i type="int" name="INIMIX">     1</i>
     <i type="int" name="MIXPRE">     1</i>
     <i type="int" name="MREMOVE">     5</i>
    </separator>
   </separator>
   <separator name="electronic dipolcorrection" >
    <i type="logical" name="LDIPOL"> F  </i>
    <i type="logical" name="LMONO"> F  </i>
    <i type="int" name="IDIPOL">     0</i>
    <i name="EPSILON">      1.00000000</i>
    <v name="DIPOL">   -100.00000000   -100.00000000   -100.00000000</v>
    <i name="EFIELD">      0.00000000</i>
   </separator>
  </separator>
  <separator name="grids" >
   <i type="int" name="NGX">    40</i>
   <i type="int" name="NGY">    40</i>
   <i type="int" name="NGZ">    40</i>
   <i type="int" name="NGXF">    80</i>
   <i type="int" name="NGYF">    80</i>
   <i type="int" name="NGZF">    80</i>
   <i type="logical" name="ADDGRID"> T  </i>
  </separator>
  <separator name="ionic" >
   <i type="int" name="NSW">     0</i>
   <i type="int" name="IBRION">    -1</i>
   <i type="int" name="MDALGO">     0</i>
   <i type="int" name="ISIF">     3</i>
   <i name="PSTRESS">      0.00000000</i>
   <i name="EDIFFG">      0.00000100</i>
   <i type="int" name="NFREE">     0</i>
   <i name="POTIM">      0.50000000</i>
   <i name="SMASS">     -3.00000000</i>
   <i name="SCALEE">      1.00000000</i>
  </separator>
  <separator name="ionic md" >
   <i name="TEBEG">      0.00010000</i>
   <i name="TEEND">      0.00010000</i>
   <i type="int" name="NBLOCK">     1</i>
   <i type="int" name="KBLOCK">     1</i>
   <i type="int" name="NPACO">   256</i>
   <i name="APACO">     16.00000000</i>
  </separator>
  <separator name="symmetry" >
   <i type="int" name="ISYM">     2</i>
   <i name="SYMPREC">      0.00001000</i>
  </separator>
  <separator name="dos" >
   <i type="int" name="LORBIT">     0</i>
   <v name="RWIGS">     -1.00000000     -1.00000000     -1.00000000</v>
   <i type="int" name="NEDOS">   301</i>
   <i name="EMIN">     10.00000000</i>
   <i name="EMAX">    -10.00000000</i>
   <i name="EFERMI">      0.00000000</i>
  </separator>
  <separator name="writing" >
   <i type="int" name="NWRITE">     2</i>
   <i type="logical" name="LWAVE"> F  </i>
   <i type="logical" name="LDOWNSAMPLE"> F  </i>
   <i type="logical" name="LCHARG"> F  </i>
   <i type="logical" name="LPARD"> F  </i>
   <i type="logical" name="LVTOT"> F  </i>
   <i type="logical" name="LVHAR"> F  </i>
   <i type="logical" name="LELF"> F  </i>
   <i type="logical" name="LOPTICS"> F  </i>
   <v name="STM">      0.00000000      0.00000000      0.00000000      0.00000000      0.00000000      0.00000000      0.00000000</v>
  </separator>
  <separator name="performance" >
   <i type="int" name="NPAR">     4</i>
   <i type="int" name="NSIM">     4</i>
   <i type="int" name="NBLK">    -1</i>
   <i type="logical" name="LPLANE"> T  </i>
   <i type="logical" name="LSCALAPACK"> T  </i>
   <i type="logical" name="LSCAAWARE"> F  </i>
   <i type="logical" name="LSCALU"> F  </i>
   <i type="logical" name="LASYNC"> F  </i>
   <i type="logical" name="LORBITALREAL"> F  </i>
  </separator>
  <separator name="miscellaneous" >
   <i type="int" name="IDIOT">     3</i>
   <i type="int" name="PHON_NSTRUCT">    -1</i>
   <i type="logical" name="LMUSIC"> F  </i>
   <v name="POMASS">    178.49000000    121.75000000    195.08000000</v>
   <v name="DARWINR">      0.00000000      0.00000000      0.00000000</v>
   <v name="DARWINV">      1.00000000      1.00000000      1.00000000</v>
   <i type="logical" name="LCORR"> T  </i>
  </separator>
  <i type="logical" name="GGA_COMPAT"> T  </i>
  <i type="logical" name="LBERRY"> F  </i>
  <i type="int" name="ICORELEVEL">     0</i>
  <i type="logical" name="LDAU"> F  </i>
  <i type="int" name="I_CONSTRAINED_M">     0</i>
  <separator name="electronic exchange-correlation" >
   <i type="string" name="GGA">PS</i>
   <i type="int" name="VOSKOWN">     0</i>
   <i type="logical" name="LHFCALC"> F  </i>
   <i type="string" name="PRECFOCK"></i>
   <i type="logical" name="LSYMGRAD"> F  </i>
   <i type="logical" name="LHFONE"> F  </i>
   <i type="logical" name="LRHFCALC"> F  </i>
   <i type="logical" name="LTHOMAS"> F  </i>
   <i type="logical" name="LMODELHF"> F  </i>
   <i type="logical" name="LFOCKACE"> F  </i>
   <i name="ENCUT4O">     -1.00000000</i>
   <i type="int" name="EXXOEP">     0</i>
   <i type="int" name="FOURORBIT">     0</i>
   <i name="AEXX">      0.00000000</i>
   <i name="HFALPHA">      0.00000000</i>
   <i name="MCALPHA">      0.00000000</i>
   <i name="ALDAX">      1.00000000</i>
   <i name="AGGAX">      1.00000000</i>
   <i name="ALDAC">      1.00000000</i>
   <i name="AGGAC">      1.00000000</i>
   <i type="int" name="NKREDX">     1</i>
   <i type="int" name="NKREDY">     1</i>
   <i type="int" name="NKREDZ">     1</i>
   <i type="logical" name="SHIFTRED"> F  </i>
   <i type="logical" name="ODDONLY"> F  </i>
   <i type="logical" name="EVENONLY"> F  </i>
   <i type="int" name="LMAXFOCK">     0</i>
   <i type="int" name="NMAXFOCKAE">     0</i>
   <i type="logical" name="LFOCKAEDFT"> F  </i>
   <i name="HFSCREEN">      0.00000000</i>
   <i name="HFSCREENC">      0.00000000</i>
   <i type="int" name="NBANDSGWLOW">     0</i>
  </separator>
  <separator name="vdW DFT" >
   <i type="logical" name="LUSE_VDW"> F  </i>
   <i name="Zab_VDW">     -0.84910000</i>
   <i name="PARAM1">      0.12340000</i>
   <i name="PARAM2">      1.00000000</i>
   <i name="PARAM3">      0.00000000</i>
  </separator>
  <separator name="model GW" >
   <i type="int" name="MODEL_GW">     0</i>
   <i name="MODEL_EPS0">     14.38321985</i>
   <i name="MODEL_ALPHA">      1.00000000</i>
  </separator>
  <separator name="linear response parameters" >
   <i type="logical" name="LEPSILON"> F  </i>
   <i type="logical" name="LRPA"> F  </i>
   <i type="logical" name="LNABLA"> F  </i>
   <i type="logical" name="LVEL"> F  </i>
   <i type="int" name="KINTER">     0</i>
   <i name="CSHIFT">      0.10000000</i>
   <i name="OMEGAMAX">     -1.00000000</i>
   <i name="DEG_THRESHOLD">      0.00200000</i>
   <i name="RTIME">     -0.10000000</i>
   <i name="WPLASMAI">      0.00000000</i>
   <v name="DFIELD">      0.00000000      0.00000000      0.00000000</v>
   <v name="WPLASMA">      0.00000000      0.00000000      0.00000000      0.00000000      0.00000000      0.00000000      0.00000000      0.00000000      0.00000000</v>
  </separator>
  <separator name="orbital magnetization" >
   <i type="logical" name="NUCIND"> F  </i>
   <v name="MAGPOS">      0.00000000      0.00000000      0.00000000</v>
   <i type="logical" name="LNICSALL"> T  </i>
   <i type="logical" name="ORBITALMAG"> F  </i>
   <i type="logical" name="LMAGBLOCH"> F  </i>
   <i type="logical" name="LCHIMAG"> F  </i>
   <i type="logical" name="LGAUGE"> T  </i>
   <i type="int" name="MAGATOM">     0</i>
   <v name="MAGDIPOL">      0.00000000      0.00000000      0.00000000</v>
   <v name="AVECCONST">      0.00000000      0.00000000      0.00000000</v>
  </separator>
  <separator name="response functions" >
   <i type="logical" name="LFINITE_TEMPERATURE"> F  </i>
   <i type="logical" name="LADDER"> F  </i>
   <i type="logical" name="LRPAFORCE"> F  </i>
   <i type="logical" name="LFXC"> F  </i>
   <i type="logical" name="LHARTREE"> T  </i>
   <i type="int" name="IBSE">     0</i>
   <v type="int" name="KPOINT">    -1     0     0     0</v>
   <i type="logical" name="LTCTC"> F  </i>
   <i type="logical" name="LTCTE"> F  </i>
   <i type="logical" name="LTETE"> F  </i>
   <i type="logical" name="LTRIPLET"> F  </i>
   <i type="logical" name="LFXCEPS"> F  </i>
   <i type="logical" name="LFXHEG"> F  </i>
   <i type="int" name="NATURALO">     2</i>
   <i type="logical" name="L2ORDER"> F  </i>
   <i type="logical" name="LDMP1"> F  </i>
   <i type="logical" name="LMP2LT"> F  </i>
   <i type="logical" name="LSMP2LT"> F  </i>
   <i type="logical" name="LUSEW"> F  </i>
   <i name="ENCUTGW">     -2.00000000</i>
   <i name="ENCUTGWSOFT">     -2.00000000</i>
   <i name="ENCUTLF">     -1.00000000</i>
   <i type="int" name="LMAXMP2">    -1</i>
   <i name="SCISSOR">      0.00000000</i>
   <i type="int" name="NOMEGA">     0</i>
   <i type="int" name="NOMEGAR">     0</i>
   <i type="int" name="NBANDSGW">    -1</i>
   <i type="int" name="NBANDSO">    -1</i>
   <i type="int" name="NBANDSV">    -1</i>
   <i type="int" name="NELM">     1</i>
   <i type="int" name="NELMHF">     1</i>
   <i type="int" name="DIM">     3</i>
   <i type="int" name="IESPILON">     4</i>
   <i type="int" name="ANTIRES">     0</i>
   <i name="OMEGAMAX">    -30.00000000</i>
   <i name="OMEGAMIN">    -30.00000000</i>
   <i name="OMEGATL">   -200.00000000</i>
   <i type="int" name="OMEGAGRID">   145</i>
   <i name="CSHIFT">     -0.10000000</i>
   <i type="logical" name="LSELFENERGY"> F  </i>
   <i type="logical" name="LSPECTRAL"> F  </i>
   <i type="logical" name="LSPECTRALGW"> F  </i>
   <i type="logical" name="LSINGLES"> F  </i>
   <i type="logical" name="LFERMIGW"> F  </i>
   <i type="logical" name="ODDONLYGW"> F  </i>
   <i type="logical" name="EVENONLYGW"> F  </i>
   <i type="int" name="NKREDLFX">     1</i>
   <i type="int" name="NKREDLFY">     1</i>
   <i type="int" name="NKREDLFZ">     1</i>
   <i type="int" name="MAXMEM">  2800</i>
   <i type="int" name="TELESCOPE">     0</i>
   <i type="int" name="NTAUPAR">     1</i>
   <i type="int" name="NOMEGAPAR">    -1</i>
   <i name="LAMBDA">      1.00000000</i>
  </separator>
  <separator name="External order field" >
   <i name="OFIELD_KAPPA">      0.00000000</i>
   <v name="OFIELD_K">      0.00000000      0.00000000      0.00000000</v>
   <i name="OFIELD_Q6_NEAR">      0.00000000</i>
   <i name="OFIELD_Q6_FAR">      0.00000000</i>
   <i name="OFIELD_A">      0.00000000</i>
  </separator>
 </parameters>
 <atominfo>
  <atoms>       3 </atoms>
  <types>       3 </types>
  <array name="atoms" >
   <dimension dim="1">ion</dimension>
   <field type="string">element</field>
   <field type="int">atomtype</field>
   <set>
    <rc><c>Hf</c><c>   1</c></rc>
    <rc><c>Sb</c><c>   2</c></rc>
    <rc><c>Pt</c><c>   3</c></rc>
   </set>
  </array>
  <array name="atomtypes" >
   <dimension dim="1">type</dimension>
   <field type="int">atomspertype</field>
   <field type="string">element</field>
   <field>mass</field>
   <field>valence</field>
   <field type="string">pseudopotential</field>
   <set>
    <rc><c>   1</c><c>Hf</c><c>    178.49000000</c><c>     10.00000000</c><c>  PAW_PBE Hf_pv 06Sep2000               </c></rc>
    <rc><c>   1</c><c>Sb</c><c>    121.75000000</c><c>      5.00000000</c><c>  PAW_PBE Sb 06Sep2000                  </c></rc>
    <rc><c>   1</c><c>Pt</c><c>    195.08000000</c><c>     10.00000000</c><c>  PAW_PBE Pt 04Feb2005                  </c></rc>
   </set>
  </array>
 </atominfo>
 <structure name="initialpos" >
  <crystal>
   <varray name="basis" >
    <v>       0.00000000       3.30064418       3.30064418 </v>
    <v>       3.30064418       0.00000000       3.30064418 </v>
    <v>       3.30064418       3.30064418       0.00000000 </v>
   </varray>
   <i name="volume">     71.91609925 </i>
   <varray name="rec_basis" >
    <v>      -0.15148558       0.15148558       0.15148558 </v>
    <v>       0.15148558      -0.15148558       0.15148558 </v>
    <v>       0.15148558       0.15148558      -0.15148558 </v>
   </varray>
  </crystal>
  <varray name="positions" >
   <v>       0.75000000       0.75000000       0.75000000 </v>
   <v>       0.25000000       0.25000000       0.25000000 </v>
   <v>       0.00000000       0.00000000       0.00000000 </v>
  </varray>
 </structure>
 <calculation>
  <scstep>
   <time name="dav">    0.93    0.96</time>
   <time name="total">    1.04    1.16</time>
   <energy>
    <i name="alphaZ">     94.73196678 </i>
    <i name="ewald">  -1506.39065775 </i>
    <i name="hartreedc">   -345.12149896 </i>
    <i name="XCdc">    -19.90895299 </i>
    <i name="pawpsdc">   1514.36848356 </i>
    <i name="pawaedc">  -1421.27055995 </i>
    <i name="eentropy">     -0.00012567 </i>
    <i name="bandstr">     76.95995152 </i>
    <i name="atom">   1741.10451121 </i>
    <i name="e_fr_energy">    134.47311774 </i>
    <i name="e_wo_entrp">    134.47324341 </i>
    <i name="e_0_energy">    134.47318057 </i>
   </energy>
  </scstep>
  <scstep>
   <time name="dav">    1.08    1.10</time>
   <time name="total">    1.08    1.10</time>
   <energy>
    <i name="e_fr_energy">    -19.58732926 </i>
    <i name="e_wo_entrp">    -19.58719488 </i>
    <i name="e_0_energy">    -19.58726207 </i>
   </energy>
  </scstep>
  <scstep>
   <time name="dav">    1.19    1.21</time>
   <time name="total">    1.19    1.21</time>
   <energy>
    <i name="e_fr_energy">    -24.81230315 </i>
    <i name="e_wo_entrp">    -24.81210182 </i>
    <i name="e_0_energy">    -24.81220248 </i>
   </energy>
  </scstep>
  <scstep>
   <time name="dav">    1.07    1.09</time>
   <time name="total">    1.08    1.09</time>
   <energy>
    <i name="e_fr_energy">    -24.88710742 </i>
    <i name="e_wo_entrp">    -24.88681989 </i>
    <i name="e_0_energy">    -24.88696366 </i>
   </energy>
  </scstep>
  <scstep>
   <time name="dav">    1.21    1.23</time>
   <time name="total">    1.44    1.46</time>
   <energy>
    <i name="e_fr_energy">    -24.88900987 </i>
    <i name="e_wo_entrp">    -24.88872087 </i>
    <i name="e_0_energy">    -24.88886537 </i>
   </energy>
  </scstep>
  <scstep>
   <time name="dav">    1.11    1.11</time>
   <time name="total">    1.41    1.44</time>
   <energy>
    <i name="e_fr_energy">    -23.91874132 </i>
    <i name="e_wo_entrp">    -23.91860168 </i>
    <i name="e_0_energy">    -23.91867150 </i>
   </energy>
  </scstep>
  <scstep>
   <time name="dav">    1.17    1.17</time>
   <time name="total">    1.45    1.48</time>
   <energy>
    <i name="e_fr_energy">    -23.76540260 </i>
    <i name="e_wo_entrp">    -23.76505291 </i>
    <i name="e_0_energy">    -23.76522775 </i>
   </energy>
  </scstep>
  <scstep>
   <time name="dav">    1.04    1.04</time>
   <time name="total">    1.36    1.38</time>
   <energy>
    <i name="e_fr_energy">    -23.74096536 </i>
    <i name="e_wo_entrp">    -23.74071951 </i>
    <i name="e_0_energy">    -23.74084244 </i>
   </energy>
  </scstep>
  <scstep>
   <time name="dav">    1.12    1.12</time>
   <time name="total">    1.39    1.41</time>
   <energy>
    <i name="e_fr_energy">    -23.73784497 </i>
    <i name="e_wo_entrp">    -23.73758221 </i>
    <i name="e_0_energy">    -23.73771359 </i>
   </energy>
  </scstep>
  <scstep>
   <time name="dav">    1.12    1.12</time>
   <time name="total">    1.39    1.42</time>
   <energy>
    <i name="e_fr_energy">    -23.73764181 </i>
    <i name="e_wo_entrp">    -23.73732462 </i>
    <i name="e_0_energy">    -23.73748321 </i>
   </energy>
  </scstep>
  <scstep>
   <time name="dav">    1.13    1.13</time>
   <time name="total">    1.41    1.43</time>
   <energy>
    <i name="e_fr_energy">    -23.73753887 </i>
    <i name="e_wo_entrp">    -23.73724662 </i>
    <i name="e_0_energy">    -23.73739275 </i>
   </energy>
  </scstep>
  <scstep>
   <time name="dav">    1.04    1.04</time>
   <time name="total">    1.32    1.33</time>
   <energy>
    <i name="e_fr_energy">    -23.73753658 </i>
    <i name="e_wo_entrp">    -23.73724298 </i>
    <i name="e_0_energy">    -23.73738978 </i>
   </energy>
  </scstep>
  <scstep>
   <time name="dav">    1.16    1.16</time>
   <time name="total">    1.45    1.47</time>
   <energy>
    <i name="e_fr_energy">    -23.73753483 </i>
    <i name="e_wo_entrp">    -23.73724051 </i>
    <i name="e_0_energy">    -23.73738767 </i>
   </energy>
  </scstep>
  <scstep>
   <time name="dav">    1.06    1.06</time>
   <time name="total">    1.35    1.38</time>
   <energy>
    <i name="e_fr_energy">    -23.73753487 </i>
    <i name="e_wo_entrp">    -23.73724086 </i>
    <i name="e_0_energy">    -23.73738786 </i>
   </energy>
  </scstep>
  <scstep>
   <time name="dav">    0.98    0.98</time>
   <time name="total">    1.09    1.13</time>
   <energy>
    <i name="alphaZ">     94.73196678 </i>
    <i name="ewald">  -1506.39065775 </i>
    <i name="hartreedc">   -321.93088116 </i>
    <i name="XCdc">    -20.66336648 </i>
    <i name="pawpsdc">   2259.39096866 </i>
    <i name="pawaedc">  -2171.07239893 </i>
    <i name="eentropy">     -0.00029382 </i>
    <i name="bandstr">    -98.90738339 </i>
    <i name="atom">   1741.10451121 </i>
    <i name="e_fr_energy">    -23.73753489 </i>
    <i name="e_wo_entrp">    -23.73724107 </i>
    <i name="e_0_energy">    -23.73738798 </i>
   </energy>
  </scstep>
  <structure>
   <crystal>
    <varray name="basis" >
     <v>       0.00000000       3.30064418       3.30064418 </v>
     <v>       3.30064418       0.00000000       3.30064418 </v>
     <v>       3.30064418       3.30064418       0.00000000 </v>
    </varray>
    <i name="volume">     71.91609925 </i>
    <varray name="rec_basis" >
     <v>      -0.15148558       0.15148558       0.15148558 </v>
     <v>       0.15148558      -0.15148558       0.15148558 </v>
     <v>       0.15148558       0.15148558      -0.15148558 </v>
    </varray>
   </crystal>
   <varray name="positions" >
    <v>       0.75000000       0.75000000       0.75000000 </v>
    <v>       0.25000000       0.25000000       0.25000000 </v>
    <v>       0.00000000       0.00000000       0.00000000 </v>
   </varray>
  </structure>
  <varray name="forces" >
   <v>       0.00000000       0.00000000       0.00000000 </v>
   <v>       0.00000000       0.00000000       0.00000000 </v>
   <v>      -0.00000000      -0.00000000      -0.00000000 </v>
  </varray>
  <varray name="stress" >
   <v>    -119.02947958      -0.00000000       0.00000000 </v>
   <v>      -0.00000000    -119.02947958       0.00000000 </v>
   <v>       0.00000000      -0.00000000    -119.02947958 </v>
  </varray>
  <energy>
   <i name="e_fr_energy">    -23.73753489 </i>
   <i name="e_wo_entrp">    -23.73738798 </i>
   <i name="e_0_energy">     -0.00029382 </i>
  </energy>
  <time name="totalsc">   22.19   23.02</time>
  <eigenvalues>
   <array>
    <dimension dim="1">band</dimension>
    <dimension dim="2">kpoint</dimension>
    <dimension dim="3">spin</dimension>
    <field>eigene</field>
    <field>occ</field>
    <set>
     <set comment="spin 1">
      <set comment="kpoint 1">
       <r>  -24.9123    1.0000 </r>
       <r>  -24.9123    1.0000 </r>
       <r>  -24.9123    1.0000 </r>
       <r>   -4.3877    1.0000 </r>
       <r>    2.1645    1.0000 </r>
       <r>    2.1645    1.0000 </r>
       <r>    2.1645    1.0000 </r>
       <r>    2.9607    1.0000 </r>
       <r>    2.9607    1.0000 </r>
       <r>    5.9744    1.0000 </r>
       <r>    6.1714    1.0000 </r>
       <r>    6.1714    1.0000 </r>
       <r>    6.1714    1.0000 </r>
       <r>    8.3280    0.0000 </r>
       <r>    8.3280    0.0000 </r>
       <r>    8.3280    0.0000 </r>
      </set>
      <set comment="kpoint 2">
       <r>  -24.9128    1.0000 </r>
       <r>  -24.9123    1.0000 </r>
       <r>  -24.9123    1.0000 </r>
       <r>   -4.3329    1.0000 </r>
       <r>    2.0789    1.0000 </r>
       <r>    2.1473    1.0000 </r>
       <r>    2.1473    1.0000 </r>
       <r>    2.9892    1.0000 </r>
       <r>    2.9892    1.0000 </r>
       <r>    5.4461    1.0000 </r>
       <r>    6.1051    1.0000 </r>
       <r>    6.1051    1.0000 </r>
       <r>    6.4723    1.0000 </r>
       <r>    8.1780    0.0000 </r>
       <r>    8.1780    0.0000 </r>
       <r>    8.6306    0.0000 </r>
      </set>
      <set comment="kpoint 3">
       <r>  -24.9144    1.0000 </r>
       <r>  -24.9123    1.0000 </r>
       <r>  -24.9123    1.0000 </r>
       <r>   -4.1745    1.0000 </r>
       <r>    1.8452    1.0000 </r>
       <r>    2.1096    1.0000 </r>
       <r>    2.1096    1.0000 </r>
       <r>    3.0551    1.0000 </r>
       <r>    3.0551    1.0000 </r>
       <r>    4.7264    1.0000 </r>
       <r>    5.9387    1.0000 </r>
       <r>    5.9387    1.0000 </r>
       <r>    6.7314    1.0000 </r>
       <r>    8.0982    0.0000 </r>
       <r>    8.0982    0.0000 </r>
       <r>    9.2992    0.0000 </r>
      </set>
      <set comment="kpoint 4">
       <r>  -24.9167    1.0000 </r>
       <r>  -24.9123    1.0000 </r>
       <r>  -24.9123    1.0000 </r>
       <r>   -3.9310    1.0000 </r>
       <r>    1.5122    1.0000 </r>
       <r>    2.0754    1.0000 </r>
       <r>    2.0754    1.0000 </r>
       <r>    3.1205    1.0000 </r>
       <r>    3.1205    1.0000 </r>
       <r>    4.0600    1.0000 </r>
       <r>    5.7421    1.0000 </r>
       <r>    5.7421    1.0000 </r>
       <r>    6.9562    1.0000 </r>
       <r>    8.1395    0.0000 </r>
       <r>    8.1395    0.0000 </r>
       <r>    9.8819    0.0000 </r>
      </set>
      <set comment="kpoint 5">
       <r>  -24.9190    1.0000 </r>
       <r>  -24.9122    1.0000 </r>
       <r>  -24.9122    1.0000 </r>
       <r>   -3.6383    1.0000 </r>
       <r>    1.1330    1.0000 </r>
       <r>    2.0580    1.0000 </r>
       <r>    2.0580    1.0000 </r>
       <r>    3.1571    1.0000 </r>
       <r>    3.1571    1.0000 </r>
       <r>    3.5409    1.0000 </r>
       <r>    5.5755    1.0000 </r>
       <r>    5.5755    1.0000 </r>
       <r>    7.1628    1.0000 </r>
       <r>    8.2675    0.0000 </r>
       <r>    8.2675    0.0000 </r>
       <r>    9.5443    0.0000 </r>
      </set>
      <set comment="kpoint 6">
       <r>  -24.9210    1.0000 </r>
       <r>  -24.9122    1.0000 </r>
       <r>  -24.9122    1.0000 </r>
       <r>   -3.3571    1.0000 </r>
       <r>    0.7797    1.0000 </r>
       <r>    2.0567    1.0000 </r>
       <r>    2.0567    1.0000 </r>
       <r>    3.1615    1.0000 </r>
       <r>    3.1615    1.0000 </r>
       <r>    3.2026    1.0000 </r>
       <r>    5.4669    1.0000 </r>
       <r>    5.4669    1.0000 </r>
       <r>    7.3608    1.0000 </r>
       <r>    8.4342    0.0000 </r>
       <r>    8.4342    0.0000 </r>
       <r>    8.9059    0.0000 </r>
      </set>
      <set comment="kpoint 7">
       <r>  -24.9221    1.0000 </r>
       <r>  -24.9122    1.0000 </r>
       <r>  -24.9122    1.0000 </r>
       <r>   -3.1757    1.0000 </r>
       <r>    0.5563    1.0000 </r>
       <r>    2.0614    1.0000 </r>
       <r>    2.0614    1.0000 </r>
       <r>    3.0400    1.0000 </r>
       <r>    3.1528    1.0000 </r>
       <r>    3.1528    1.0000 </r>
       <r>    5.4167    1.0000 </r>
       <r>    5.4167    1.0000 </r>
       <r>    7.5310    0.9863 </r>
       <r>    8.4739    0.0000 </r>
       <r>    8.5618    0.0000 </r>
       <r>    8.5618    0.0000 </r>
      </set>
      <set comment="kpoint 8">
       <r>  -24.9128    1.0000 </r>
       <r>  -24.9124    1.0000 </r>
       <r>  -24.9124    1.0000 </r>
       <r>   -4.3150    1.0000 </r>
       <r>    1.9665    1.0000 </r>
       <r>    2.1917    1.0000 </r>
       <r>    2.1917    1.0000 </r>
       <r>    2.9893    1.0000 </r>
       <r>    2.9962    1.0000 </r>
       <r>    5.4418    1.0000 </r>
       <r>    5.9861    1.0000 </r>
       <r>    5.9861    1.0000 </r>
       <r>    6.6004    1.0000 </r>
       <r>    8.0206    0.0000 </r>
       <r>    8.5131    0.0000 </r>
       <r>    8.5813    0.0000 </r>
      </set>
      <set comment="kpoint 9">
       <r>  -24.9140    1.0000 </r>
       <r>  -24.9124    1.0000 </r>
       <r>  -24.9124    1.0000 </r>
       <r>   -4.1921    1.0000 </r>
       <r>    1.7600    1.0000 </r>
       <r>    2.1740    1.0000 </r>
       <r>    2.2012    1.0000 </r>
       <r>    3.0351    1.0000 </r>
       <r>    3.0397    1.0000 </r>
       <r>    4.9265    1.0000 </r>
       <r>    5.8022    1.0000 </r>
       <r>    5.8325    1.0000 </r>
       <r>    6.8560    1.0000 </r>
       <r>    7.8981    0.0000 </r>
       <r>    8.3264    0.0000 </r>
       <r>    8.9852    0.0000 </r>
      </set>
      <set comment="kpoint 10">
       <r>  -24.9160    1.0000 </r>
       <r>  -24.9125    1.0000 </r>
       <r>  -24.9123    1.0000 </r>
       <r>   -3.9785    1.0000 </r>
       <r>    1.4990    1.0000 </r>
       <r>    2.1058    1.0000 </r>
       <r>    2.1873    1.0000 </r>
       <r>    3.0933    1.0000 </r>
       <r>    3.1077    1.0000 </r>
       <r>    4.2783    1.0000 </r>
       <r>    5.6173    1.0000 </r>
       <r>    5.6522    1.0000 </r>
       <r>    7.1318    1.0000 </r>
       <r>    7.9218    0.0000 </r>
       <r>    8.2418    0.0000 </r>
       <r>    9.4688    0.0000 </r>
      </set>
      <set comment="kpoint 11">
       <r>  -24.9183    1.0000 </r>
       <r>  -24.9125    1.0000 </r>
       <r>  -24.9124    1.0000 </r>
       <r>   -3.7040    1.0000 </r>
       <r>    1.1919    1.0000 </r>
       <r>    2.0459    1.0000 </r>
       <r>    2.1669    1.0000 </r>
       <r>    3.1411    1.0000 </r>
       <r>    3.1544    1.0000 </r>
       <r>    3.7123    1.0000 </r>
       <r>    5.4741    1.0000 </r>
       <r>    5.4814    1.0000 </r>
       <r>    7.2965    1.0000 </r>
       <r>    8.1403    0.0000 </r>
       <r>    8.2721    0.0000 </r>
       <r>    9.5963    0.0000 </r>
      </set>
      <set comment="kpoint 12">
       <r>  -24.9203    1.0000 </r>
       <r>  -24.9124    1.0000 </r>
       <r>  -24.9124    1.0000 </r>
       <r>   -3.4197    1.0000 </r>
       <r>    0.8777    1.0000 </r>
       <r>    2.0200    1.0000 </r>
       <r>    2.1446    1.0000 </r>
       <r>    3.1518    1.0000 </r>
       <r>    3.1679    1.0000 </r>
       <r>    3.3177    1.0000 </r>
       <r>    5.3507    1.0000 </r>
       <r>    5.3891    1.0000 </r>
       <r>    7.4150    1.0000 </r>
       <r>    8.3924    0.0000 </r>
       <r>    8.4211    0.0000 </r>
       <r>    9.0623    0.0000 </r>
      </set>
      <set comment="kpoint 13">
       <r>  -24.9216    1.0000 </r>
       <r>  -24.9126    1.0000 </r>
       <r>  -24.9124    1.0000 </r>
       <r>   -3.2033    1.0000 </r>
       <r>    0.6375    1.0000 </r>
       <r>    2.0285    1.0000 </r>
       <r>    2.1149    1.0000 </r>
       <r>    3.0536    1.0000 </r>
       <r>    3.1665    1.0000 </r>
       <r>    3.1874    1.0000 </r>
       <r>    5.2692    1.0000 </r>
       <r>    5.3572    1.0000 </r>
       <r>    7.5531    0.1811 </r>
       <r>    8.4980    0.0000 </r>
       <r>    8.5346    0.0000 </r>
       <r>    8.7043    0.0000 </r>
      </set>
      <set comment="kpoint 14">
       <r>  -24.9220    1.0000 </r>
       <r>  -24.9127    1.0000 </r>
       <r>  -24.9123    1.0000 </r>
       <r>   -3.1404    1.0000 </r>
       <r>    0.5682    1.0000 </r>
       <r>    2.0612    1.0000 </r>
       <r>    2.0736    1.0000 </r>
       <r>    3.0021    1.0000 </r>
       <r>    3.1727    1.0000 </r>
       <r>    3.1750    1.0000 </r>
       <r>    5.2273    1.0000 </r>
       <r>    5.3706    1.0000 </r>
       <r>    7.6325    0.0000 </r>
       <r>    8.3382    0.0000 </r>
       <r>    8.5849    0.0000 </r>
       <r>    8.7648    0.0000 </r>
      </set>
      <set comment="kpoint 15">
       <r>  -24.9213    1.0000 </r>
       <r>  -24.9128    1.0000 </r>
       <r>  -24.9122    1.0000 </r>
       <r>   -3.2618    1.0000 </r>
       <r>    0.7059    1.0000 </r>
       <r>    2.0287    1.0000 </r>
       <r>    2.1063    1.0000 </r>
       <r>    3.0805    1.0000 </r>
       <r>    3.1867    1.0000 </r>
       <r>    3.2049    1.0000 </r>
       <r>    5.2131    1.0000 </r>
       <r>    5.4339    1.0000 </r>
       <r>    7.5360    0.9332 </r>
       <r>    8.4861    0.0000 </r>
       <r>    8.5215    0.0000 </r>
       <r>    8.7764    0.0000 </r>
      </set>
      <set comment="kpoint 16">
       <r>  -24.9196    1.0000 </r>
       <r>  -24.9128    1.0000 </r>
       <r>  -24.9121    1.0000 </r>
       <r>   -3.5108    1.0000 </r>
       <r>    0.9890    1.0000 </r>
       <r>    1.9972    1.0000 </r>
       <r>    2.1545    1.0000 </r>
       <r>    3.1333    1.0000 </r>
       <r>    3.1885    1.0000 </r>
       <r>    3.4336    1.0000 </r>
       <r>    5.2305    1.0000 </r>
       <r>    5.5583    1.0000 </r>
       <r>    7.4146    1.0000 </r>
       <r>    8.2997    0.0000 </r>
       <r>    8.4006    0.0000 </r>
       <r>    9.2627    0.0000 </r>
      </set>
      <set comment="kpoint 17">
       <r>  -24.9175    1.0000 </r>
       <r>  -24.9128    1.0000 </r>
       <r>  -24.9121    1.0000 </r>
       <r>   -3.7992    1.0000 </r>
       <r>    1.3235    1.0000 </r>
       <r>    1.9940    1.0000 </r>
       <r>    2.1990    1.0000 </r>
       <r>    3.1165    1.0000 </r>
       <r>    3.1605    1.0000 </r>
       <r>    3.8873    1.0000 </r>
       <r>    5.3013    1.0000 </r>
       <r>    5.7413    1.0000 </r>
       <r>    7.2883    1.0000 </r>
       <r>    8.1076    0.0000 </r>
       <r>    8.2449    0.0000 </r>
       <r>    9.4839    0.0000 </r>
      </set>
      <set comment="kpoint 18">
       <r>  -24.9153    1.0000 </r>
       <r>  -24.9127    1.0000 </r>
       <r>  -24.9121    1.0000 </r>
       <r>   -4.0580    1.0000 </r>
       <r>    1.6431    1.0000 </r>
       <r>    2.0244    1.0000 </r>
       <r>    2.2278    1.0000 </r>
       <r>    3.0659    1.0000 </r>
       <r>    3.1036    1.0000 </r>
       <r>    4.4824    1.0000 </r>
       <r>    5.4571    1.0000 </r>
       <r>    5.9459    1.0000 </r>
       <r>    7.0748    1.0000 </r>
       <r>    7.9760    0.0000 </r>
       <r>    8.2187    0.0000 </r>
       <r>    9.0737    0.0000 </r>
      </set>
      <set comment="kpoint 19">
       <r>  -24.9136    1.0000 </r>
       <r>  -24.9125    1.0000 </r>
       <r>  -24.9122    1.0000 </r>
       <r>   -4.2439    1.0000 </r>
       <r>    1.9093    1.0000 </r>
       <r>    2.0822    1.0000 </r>
       <r>    2.2145    1.0000 </r>
       <r>    3.0135    1.0000 </r>
       <r>    3.0367    1.0000 </r>
       <r>    5.0723    1.0000 </r>
       <r>    5.7507    1.0000 </r>
       <r>    6.0932    1.0000 </r>
       <r>    6.7556    1.0000 </r>
       <r>    7.9788    0.0000 </r>
       <r>    8.3025    0.0000 </r>
       <r>    8.6995    0.0000 </r>
      </set>
      <set comment="kpoint 20">
       <r>  -24.9144    1.0000 </r>
       <r>  -24.9126    1.0000 </r>
       <r>  -24.9126    1.0000 </r>
       <r>   -4.1087    1.0000 </r>
       <r>    1.5397    1.0000 </r>
       <r>    2.2695    1.0000 </r>
       <r>    2.2695    1.0000 </r>
       <r>    3.0119    1.0000 </r>
       <r>    3.0708    1.0000 </r>
       <r>    4.8611    1.0000 </r>
       <r>    5.6093    1.0000 </r>
       <r>    5.6093    1.0000 </r>
       <r>    6.9083    1.0000 </r>
       <r>    7.8169    0.0000 </r>
       <r>    8.3824    0.0000 </r>
       <r>    9.1039    0.0000 </r>
      </set>
      <set comment="kpoint 21">
       <r>  -24.9159    1.0000 </r>
       <r>  -24.9128    1.0000 </r>
       <r>  -24.9127    1.0000 </r>
       <r>   -3.9350    1.0000 </r>
       <r>    1.3130    1.0000 </r>
       <r>    2.2665    1.0000 </r>
       <r>    2.3007    1.0000 </r>
       <r>    3.0240    1.0000 </r>
       <r>    3.1332    1.0000 </r>
       <r>    4.4393    1.0000 </r>
       <r>    5.3986    1.0000 </r>
       <r>    5.4262    1.0000 </r>
       <r>    7.1720    1.0000 </r>
       <r>    7.7642    0.0000 </r>
       <r>    8.2751    0.0000 </r>
       <r>    9.3868    0.0000 </r>
      </set>
      <set comment="kpoint 22">
       <r>  -24.9178    1.0000 </r>
       <r>  -24.9129    1.0000 </r>
       <r>  -24.9128    1.0000 </r>
       <r>   -3.6957    1.0000 </r>
       <r>    1.0997    1.0000 </r>
       <r>    2.1870    1.0000 </r>
       <r>    2.3011    1.0000 </r>
       <r>    3.0723    1.0000 </r>
       <r>    3.1874    1.0000 </r>
       <r>    3.9058    1.0000 </r>
       <r>    5.1909    1.0000 </r>
       <r>    5.2949    1.0000 </r>
       <r>    7.4480    1.0000 </r>
       <r>    7.9345    0.0000 </r>
       <r>    8.2336    0.0000 </r>
       <r>    9.5039    0.0000 </r>
      </set>
      <set comment="kpoint 23">
       <r>  -24.9196    1.0000 </r>
       <r>  -24.9131    1.0000 </r>
       <r>  -24.9128    1.0000 </r>
       <r>   -3.4337    1.0000 </r>
       <r>    0.9072    1.0000 </r>
       <r>    2.0917    1.0000 </r>
       <r>    2.2767    1.0000 </r>
       <r>    3.1136    1.0000 </r>
       <r>    3.2098    1.0000 </r>
       <r>    3.4542    1.0000 </r>
       <r>    5.0270    1.0000 </r>
       <r>    5.2278    1.0000 </r>
       <r>    7.4820    1.0000 </r>
       <r>    8.3096    0.0000 </r>
       <r>    8.4182    0.0000 </r>
       <r>    9.1442    0.0000 </r>
      </set>
      <set comment="kpoint 24">
       <r>  -24.9209    1.0000 </r>
       <r>  -24.9135    1.0000 </r>
       <r>  -24.9127    1.0000 </r>
       <r>   -3.2126    1.0000 </r>
       <r>    0.7539    1.0000 </r>
       <r>    2.0279    1.0000 </r>
       <r>    2.2255    1.0000 </r>
       <r>    3.0509    1.0000 </r>
       <r>    3.2141    1.0000 </r>
       <r>    3.2459    1.0000 </r>
       <r>    4.9131    1.0000 </r>
       <r>    5.2122    1.0000 </r>
       <r>    7.5415    0.7676 </r>
       <r>    8.4726    0.0000 </r>
       <r>    8.6305    0.0000 </r>
       <r>    8.8546    0.0000 </r>
      </set>
      <set comment="kpoint 25">
       <r>  -24.9214    1.0000 </r>
       <r>  -24.9138    1.0000 </r>
       <r>  -24.9125    1.0000 </r>
       <r>   -3.1060    1.0000 </r>
       <r>    0.6823    1.0000 </r>
       <r>    2.0241    1.0000 </r>
       <r>    2.1496    1.0000 </r>
       <r>    2.9488    1.0000 </r>
       <r>    3.2232    1.0000 </r>
       <r>    3.2408    1.0000 </r>
       <r>    4.8363    1.0000 </r>
       <r>    5.2359    1.0000 </r>
       <r>    7.6651    0.0000 </r>
       <r>    8.3067    0.0000 </r>
       <r>    8.6005    0.0000 </r>
       <r>    9.1032    0.0000 </r>
      </set>
      <set comment="kpoint 26">
       <r>  -24.9210    1.0000 </r>
       <r>  -24.9140    1.0000 </r>
       <r>  -24.9123    1.0000 </r>
       <r>   -3.1586    1.0000 </r>
       <r>    0.7306    1.0000 </r>
       <r>    2.0650    1.0000 </r>
       <r>    2.0864    1.0000 </r>
       <r>    2.9747    1.0000 </r>
       <r>    3.2375    1.0000 </r>
       <r>    3.2784    1.0000 </r>
       <r>    4.7747    1.0000 </r>
       <r>    5.3049    1.0000 </r>
       <r>    7.7163    0.0000 </r>
       <r>    8.3705    0.0000 </r>
       <r>    8.5641    0.0000 </r>
       <r>    9.1110    0.0000 </r>
      </set>
      <set comment="kpoint 27">
       <r>  -24.9199    1.0000 </r>
       <r>  -24.9140    1.0000 </r>
       <r>  -24.9121    1.0000 </r>
       <r>   -3.3478    1.0000 </r>
       <r>    0.8885    1.0000 </r>
       <r>    1.9957    1.0000 </r>
       <r>    2.1881    1.0000 </r>
       <r>    3.0683    1.0000 </r>
       <r>    3.2387    1.0000 </r>
       <r>    3.4194    1.0000 </r>
       <r>    4.7260    1.0000 </r>
       <r>    5.4327    1.0000 </r>
       <r>    7.7046    0.0000 </r>
       <r>    8.3976    0.0000 </r>
       <r>    8.6403    0.0000 </r>
       <r>    9.0509    0.0000 </r>
      </set>
      <set comment="kpoint 28">
       <r>  -24.9183    1.0000 </r>
       <r>  -24.9138    1.0000 </r>
       <r>  -24.9120    1.0000 </r>
       <r>   -3.6042    1.0000 </r>
       <r>    1.1153    1.0000 </r>
       <r>    1.9609    1.0000 </r>
       <r>    2.2760    1.0000 </r>
       <r>    3.1032    1.0000 </r>
       <r>    3.2131    1.0000 </r>
       <r>    3.7616    1.0000 </r>
       <r>    4.7402    1.0000 </r>
       <r>    5.6155    1.0000 </r>
       <r>    7.7246    0.0000 </r>
       <r>    8.1941    0.0000 </r>
       <r>    8.4143    0.0000 </r>
       <r>    9.2059    0.0000 </r>
      </set>
      <set comment="kpoint 29">
       <r>  -24.9166    1.0000 </r>
       <r>  -24.9133    1.0000 </r>
       <r>  -24.9120    1.0000 </r>
       <r>   -3.8576    1.0000 </r>
       <r>    1.3768    1.0000 </r>
       <r>    1.9707    1.0000 </r>
       <r>    2.2989    1.0000 </r>
       <r>    3.0866    1.0000 </r>
       <r>    3.1631    1.0000 </r>
       <r>    4.1798    1.0000 </r>
       <r>    4.9483    1.0000 </r>
       <r>    5.8133    1.0000 </r>
       <r>    7.5464    0.5131 </r>
       <r>    8.0273    0.0000 </r>
       <r>    8.2279    0.0000 </r>
       <r>    9.0565    0.0000 </r>
      </set>
      <set comment="kpoint 30">
       <r>  -24.9167    1.0000 </r>
       <r>  -24.9130    1.0000 </r>
       <r>  -24.9130    1.0000 </r>
       <r>   -3.8071    1.0000 </r>
       <r>    1.1141    1.0000 </r>
       <r>    2.3859    1.0000 </r>
       <r>    2.3859    1.0000 </r>
       <r>    2.9494    1.0000 </r>
       <r>    3.1928    1.0000 </r>
       <r>    4.3306    1.0000 </r>
       <r>    5.2362    1.0000 </r>
       <r>    5.2362    1.0000 </r>
       <r>    7.0384    1.0000 </r>
       <r>    7.7948    0.0000 </r>
       <r>    8.1906    0.0000 </r>
       <r>    9.4869    0.0000 </r>
      </set>
      <set comment="kpoint 31">
       <r>  -24.9181    1.0000 </r>
       <r>  -24.9133    1.0000 </r>
       <r>  -24.9132    1.0000 </r>
       <r>   -3.6154    1.0000 </r>
       <r>    0.9577    1.0000 </r>
       <r>    2.3777    1.0000 </r>
       <r>    2.4282    1.0000 </r>
       <r>    2.9510    1.0000 </r>
       <r>    3.2547    1.0000 </r>
       <r>    3.9769    1.0000 </r>
       <r>    5.0140    1.0000 </r>
       <r>    5.0982    1.0000 </r>
       <r>    7.2139    1.0000 </r>
       <r>    7.8862    0.0000 </r>
       <r>    8.1118    0.0000 </r>
       <r>    9.4956    0.0000 </r>
      </set>
      <set comment="kpoint 32">
       <r>  -24.9195    1.0000 </r>
       <r>  -24.9137    1.0000 </r>
       <r>  -24.9132    1.0000 </r>
       <r>   -3.3955    1.0000 </r>
       <r>    0.8647    1.0000 </r>
       <r>    2.2622    1.0000 </r>
       <r>    2.4251    1.0000 </r>
       <r>    3.0251    1.0000 </r>
       <r>    3.2863    1.0000 </r>
       <r>    3.5541    1.0000 </r>
       <r>    4.7638    1.0000 </r>
       <r>    5.0328    1.0000 </r>
       <r>    7.3557    1.0000 </r>
       <r>    8.1450    0.0000 </r>
       <r>    8.2948    0.0000 </r>
       <r>    9.2106    0.0000 </r>
      </set>
      <set comment="kpoint 33">
       <r>  -24.9205    1.0000 </r>
       <r>  -24.9143    1.0000 </r>
       <r>  -24.9131    1.0000 </r>
       <r>   -3.1975    1.0000 </r>
       <r>    0.8374    1.0000 </r>
       <r>    2.1199    1.0000 </r>
       <r>    2.3733    1.0000 </r>
       <r>    3.0252    1.0000 </r>
       <r>    3.2845    1.0000 </r>
       <r>    3.2925    1.0000 </r>
       <r>    4.5650    1.0000 </r>
       <r>    5.0253    1.0000 </r>
       <r>    7.4077    1.0000 </r>
       <r>    8.3227    0.0000 </r>
       <r>    8.7515    0.0000 </r>
       <r>    8.8817    0.0000 </r>
      </set>
      <set comment="kpoint 34">
       <r>  -24.9207    1.0000 </r>
       <r>  -24.9150    1.0000 </r>
       <r>  -24.9129    1.0000 </r>
       <r>   -3.0765    1.0000 </r>
       <r>    0.8525    1.0000 </r>
       <r>    2.0115    1.0000 </r>
       <r>    2.2772    1.0000 </r>
       <r>    2.8752    1.0000 </r>
       <r>    3.2977    1.0000 </r>
       <r>    3.3132    1.0000 </r>
       <r>    4.4285    1.0000 </r>
       <r>    5.0555    1.0000 </r>
       <r>    7.5166    1.0000 </r>
       <r>    8.3996    0.0000 </r>
       <r>    8.5681    0.0000 </r>
       <r>    9.2171    0.0000 </r>
      </set>
      <set comment="kpoint 35">
       <r>  -24.9204    1.0000 </r>
       <r>  -24.9155    1.0000 </r>
       <r>  -24.9126    1.0000 </r>
       <r>   -3.0722    1.0000 </r>
       <r>    0.8693    1.0000 </r>
       <r>    2.0069    1.0000 </r>
       <r>    2.1602    1.0000 </r>
       <r>    2.8504    1.0000 </r>
       <r>    3.3038    1.0000 </r>
       <r>    3.3904    1.0000 </r>
       <r>    4.3383    1.0000 </r>
       <r>    5.1269    1.0000 </r>
       <r>    7.6899    0.0000 </r>
       <r>    8.2501    0.0000 </r>
       <r>    8.6531    0.0000 </r>
       <r>    9.2188    0.0000 </r>
      </set>
      <set comment="kpoint 36">
       <r>  -24.9197    1.0000 </r>
       <r>  -24.9155    1.0000 </r>
       <r>  -24.9123    1.0000 </r>
       <r>   -3.1869    1.0000 </r>
       <r>    0.8908    1.0000 </r>
       <r>    2.0535    1.0000 </r>
       <r>    2.1121    1.0000 </r>
       <r>    2.9484    1.0000 </r>
       <r>    3.2952    1.0000 </r>
       <r>    3.4914    1.0000 </r>
       <r>    4.2926    1.0000 </r>
       <r>    5.2534    1.0000 </r>
       <r>    7.7898    0.0000 </r>
       <r>    8.4820    0.0000 </r>
       <r>    8.5374    0.0000 </r>
       <r>    9.1358    0.0000 </r>
      </set>
      <set comment="kpoint 37">
       <r>  -24.9189    1.0000 </r>
       <r>  -24.9149    1.0000 </r>
       <r>  -24.9121    1.0000 </r>
       <r>   -3.3829    1.0000 </r>
       <r>    0.9649    1.0000 </r>
       <r>    1.9822    1.0000 </r>
       <r>    2.2341    1.0000 </r>
       <r>    3.0586    1.0000 </r>
       <r>    3.2628    1.0000 </r>
       <r>    3.6338    1.0000 </r>
       <r>    4.3779    1.0000 </r>
       <r>    5.4295    1.0000 </r>
       <r>    7.8283    0.0000 </r>
       <r>    8.3582    0.0000 </r>
       <r>    8.7946    0.0000 </r>
       <r>    9.0731    0.0000 </r>
      </set>
      <set comment="kpoint 38">
       <r>  -24.9192    1.0000 </r>
       <r>  -24.9134    1.0000 </r>
       <r>  -24.9134    1.0000 </r>
       <r>   -3.4789    1.0000 </r>
       <r>    0.8522    1.0000 </r>
       <r>    2.5189    1.0000 </r>
       <r>    2.5189    1.0000 </r>
       <r>    2.8298    1.0000 </r>
       <r>    3.3329    1.0000 </r>
       <r>    3.7944    1.0000 </r>
       <r>    4.9399    1.0000 </r>
       <r>    4.9399    1.0000 </r>
       <r>    7.0471    1.0000 </r>
       <r>    7.9059    0.0000 </r>
       <r>    7.9757    0.0000 </r>
       <r>    9.4507    0.0000 </r>
      </set>
      <set comment="kpoint 39">
       <r>  -24.9203    1.0000 </r>
       <r>  -24.9138    1.0000 </r>
       <r>  -24.9135    1.0000 </r>
       <r>   -3.3150    1.0000 </r>
       <r>    0.8232    1.0000 </r>
       <r>    2.4606    1.0000 </r>
       <r>    2.5555    1.0000 </r>
       <r>    2.8763    1.0000 </r>
       <r>    3.3821    1.0000 </r>
       <r>    3.4726    1.0000 </r>
       <r>    4.7279    1.0000 </r>
       <r>    4.8564    1.0000 </r>
       <r>    7.1300    1.0000 </r>
       <r>    7.9351    0.0000 </r>
       <r>    8.0975    0.0000 </r>
       <r>    9.2343    0.0000 </r>
      </set>
      <set comment="kpoint 40">
       <r>  -24.9209    1.0000 </r>
       <r>  -24.9145    1.0000 </r>
       <r>  -24.9135    1.0000 </r>
       <r>   -3.1609    1.0000 </r>
       <r>    0.8811    1.0000 </r>
       <r>    2.2891    1.0000 </r>
       <r>    2.5268    1.0000 </r>
       <r>    2.9499    1.0000 </r>
       <r>    3.2088    1.0000 </r>
       <r>    3.3914    1.0000 </r>
       <r>    4.4360    1.0000 </r>
       <r>    4.8439    1.0000 </r>
       <r>    7.2178    1.0000 </r>
       <r>    8.0674    0.0000 </r>
       <r>    8.5966    0.0000 </r>
       <r>    8.9080    0.0000 </r>
      </set>
      <set comment="kpoint 41">
       <r>  -24.9208    1.0000 </r>
       <r>  -24.9155    1.0000 </r>
       <r>  -24.9133    1.0000 </r>
       <r>   -3.0537    1.0000 </r>
       <r>    0.9943    1.0000 </r>
       <r>    2.0980    1.0000 </r>
       <r>    2.4328    1.0000 </r>
       <r>    2.7709    1.0000 </r>
       <r>    3.3077    1.0000 </r>
       <r>    3.3851    1.0000 </r>
       <r>    4.1873    1.0000 </r>
       <r>    4.8769    1.0000 </r>
       <r>    7.3114    1.0000 </r>
       <r>    8.3837    0.0000 </r>
       <r>    8.5241    0.0000 </r>
       <r>    9.1089    0.0000 </r>
      </set>
      <set comment="kpoint 42">
       <r>  -24.9201    1.0000 </r>
       <r>  -24.9165    1.0000 </r>
       <r>  -24.9130    1.0000 </r>
       <r>   -3.0196    1.0000 </r>
       <r>    1.0587    1.0000 </r>
       <r>    1.9563    1.0000 </r>
       <r>    2.2982    1.0000 </r>
       <r>    2.7096    1.0000 </r>
       <r>    3.3723    1.0000 </r>
       <r>    3.4707    1.0000 </r>
       <r>    4.0289    1.0000 </r>
       <r>    4.9521    1.0000 </r>
       <r>    7.4827    1.0000 </r>
       <r>    8.2958    0.0000 </r>
       <r>    8.7158    0.0000 </r>
       <r>    9.0747    0.0000 </r>
      </set>
      <set comment="kpoint 43">
       <r>  -24.9195    1.0000 </r>
       <r>  -24.9167    1.0000 </r>
       <r>  -24.9126    1.0000 </r>
       <r>   -3.0677    1.0000 </r>
       <r>    0.9849    1.0000 </r>
       <r>    1.9898    1.0000 </r>
       <r>    2.1611    1.0000 </r>
       <r>    2.8014    1.0000 </r>
       <r>    3.3432    1.0000 </r>
       <r>    3.5501    1.0000 </r>
       <r>    4.0364    1.0000 </r>
       <r>    5.0803    1.0000 </r>
       <r>    7.6996    0.0000 </r>
       <r>    8.2488    0.0000 </r>
       <r>    8.6790    0.0000 </r>
       <r>    9.0304    0.0000 </r>
      </set>
      <set comment="kpoint 44">
       <r>  -24.9212    1.0000 </r>
       <r>  -24.9138    1.0000 </r>
       <r>  -24.9138    1.0000 </r>
       <r>   -3.2128    1.0000 </r>
       <r>    0.8385    1.0000 </r>
       <r>    2.6373    1.0000 </r>
       <r>    2.6373    1.0000 </r>
       <r>    2.7061    1.0000 </r>
       <r>    3.2256    1.0000 </r>
       <r>    3.4593    1.0000 </r>
       <r>    4.7428    1.0000 </r>
       <r>    4.7428    1.0000 </r>
       <r>    7.0154    1.0000 </r>
       <r>    7.7870    0.0000 </r>
       <r>    7.9802    0.0000 </r>
       <r>    9.1882    0.0000 </r>
      </set>
      <set comment="kpoint 45">
       <r>  -24.9218    1.0000 </r>
       <r>  -24.9141    1.0000 </r>
       <r>  -24.9138    1.0000 </r>
       <r>   -3.1142    1.0000 </r>
       <r>    0.9265    1.0000 </r>
       <r>    2.4818    1.0000 </r>
       <r>    2.6492    1.0000 </r>
       <r>    2.8160    1.0000 </r>
       <r>    2.9906    1.0000 </r>
       <r>    3.4848    1.0000 </r>
       <r>    4.5584    1.0000 </r>
       <r>    4.7090    1.0000 </r>
       <r>    7.0564    1.0000 </r>
       <r>    7.8051    0.0000 </r>
       <r>    8.1720    0.0000 </r>
       <r>    8.9874    0.0000 </r>
      </set>
      <set comment="kpoint 46">
       <r>  -24.9217    1.0000 </r>
       <r>  -24.9149    1.0000 </r>
       <r>  -24.9137    1.0000 </r>
       <r>   -3.0419    1.0000 </r>
       <r>    1.0568    1.0000 </r>
       <r>    2.2874    1.0000 </r>
       <r>    2.5817    1.0000 </r>
       <r>    2.6520    1.0000 </r>
       <r>    3.1401    1.0000 </r>
       <r>    3.4683    1.0000 </r>
       <r>    4.2628    1.0000 </r>
       <r>    4.7379    1.0000 </r>
       <r>    7.1386    1.0000 </r>
       <r>    8.0386    0.0000 </r>
       <r>    8.5603    0.0000 </r>
       <r>    8.8887    0.0000 </r>
      </set>
      <set comment="kpoint 47">
       <r>  -24.9209    1.0000 </r>
       <r>  -24.9160    1.0000 </r>
       <r>  -24.9134    1.0000 </r>
       <r>   -3.0089    1.0000 </r>
       <r>    1.1399    1.0000 </r>
       <r>    2.0612    1.0000 </r>
       <r>    2.4517    1.0000 </r>
       <r>    2.6081    1.0000 </r>
       <r>    3.3620    1.0000 </r>
       <r>    3.4294    1.0000 </r>
       <r>    4.0277    1.0000 </r>
       <r>    4.8181    1.0000 </r>
       <r>    7.2751    1.0000 </r>
       <r>    8.4440    0.0000 </r>
       <r>    8.4542    0.0000 </r>
       <r>    8.9090    0.0000 </r>
      </set>
      <set comment="kpoint 48">
       <r>  -24.9224    1.0000 </r>
       <r>  -24.9140    1.0000 </r>
       <r>  -24.9140    1.0000 </r>
       <r>   -3.0724    1.0000 </r>
       <r>    0.9913    1.0000 </r>
       <r>    2.6229    1.0000 </r>
       <r>    2.7077    1.0000 </r>
       <r>    2.7077    1.0000 </r>
       <r>    2.7697    1.0000 </r>
       <r>    3.5355    1.0000 </r>
       <r>    4.6467    1.0000 </r>
       <r>    4.6467    1.0000 </r>
       <r>    6.9895    1.0000 </r>
       <r>    7.6753    0.0000 </r>
       <r>    7.9544    0.0000 </r>
       <r>    8.9923    0.0000 </r>
      </set>
      <set comment="kpoint 49">
       <r>  -24.9224    1.0000 </r>
       <r>  -24.9143    1.0000 </r>
       <r>  -24.9139    1.0000 </r>
       <r>   -3.0470    1.0000 </r>
       <r>    1.0480    1.0000 </r>
       <r>    2.5080    1.0000 </r>
       <r>    2.5959    1.0000 </r>
       <r>    2.6835    1.0000 </r>
       <r>    2.9167    1.0000 </r>
       <r>    3.5259    1.0000 </r>
       <r>    4.5033    1.0000 </r>
       <r>    4.6588    1.0000 </r>
       <r>    7.0290    1.0000 </r>
       <r>    7.7581    0.0000 </r>
       <r>    8.1558    0.0000 </r>
       <r>    8.9023    0.0000 </r>
      </set>
      <set comment="kpoint 50">
       <r>  -24.9152    1.0000 </r>
       <r>  -24.9128    1.0000 </r>
       <r>  -24.9123    1.0000 </r>
       <r>   -4.0427    1.0000 </r>
       <r>    1.5270    1.0000 </r>
       <r>    2.1264    1.0000 </r>
       <r>    2.2783    1.0000 </r>
       <r>    3.0511    1.0000 </r>
       <r>    3.0982    1.0000 </r>
       <r>    4.5817    1.0000 </r>
       <r>    5.3500    1.0000 </r>
       <r>    5.8023    1.0000 </r>
       <r>    7.1689    1.0000 </r>
       <r>    7.8218    0.0000 </r>
       <r>    8.2988    0.0000 </r>
       <r>    9.0570    0.0000 </r>
      </set>
      <set comment="kpoint 51">
       <r>  -24.9170    1.0000 </r>
       <r>  -24.9131    1.0000 </r>
       <r>  -24.9123    1.0000 </r>
       <r>   -3.8154    1.0000 </r>
       <r>    1.2768    1.0000 </r>
       <r>    2.0659    1.0000 </r>
       <r>    2.2900    1.0000 </r>
       <r>    3.0898    1.0000 </r>
       <r>    3.1594    1.0000 </r>
       <r>    4.0805    1.0000 </r>
       <r>    5.0720    1.0000 </r>
       <r>    5.6544    1.0000 </r>
       <r>    7.5044    1.0000 </r>
       <r>    7.8989    0.0000 </r>
       <r>    8.2616    0.0000 </r>
       <r>    9.2931    0.0000 </r>
      </set>
      <set comment="kpoint 52">
       <r>  -24.9189    1.0000 </r>
       <r>  -24.9133    1.0000 </r>
       <r>  -24.9123    1.0000 </r>
       <r>   -3.5466    1.0000 </r>
       <r>    1.0261    1.0000 </r>
       <r>    2.0274    1.0000 </r>
       <r>    2.2491    1.0000 </r>
       <r>    3.1191    1.0000 </r>
       <r>    3.1965    1.0000 </r>
       <r>    3.5962    1.0000 </r>
       <r>    4.9685    1.0000 </r>
       <r>    5.4821    1.0000 </r>
       <r>    7.5655    0.0038 </r>
       <r>    8.2023    0.0000 </r>
       <r>    8.3986    0.0000 </r>
       <r>    9.3186    0.0000 </r>
      </set>
      <set comment="kpoint 53">
       <r>  -24.9205    1.0000 </r>
       <r>  -24.9134    1.0000 </r>
       <r>  -24.9124    1.0000 </r>
       <r>   -3.2944    1.0000 </r>
       <r>    0.8031    1.0000 </r>
       <r>    2.0174    1.0000 </r>
       <r>    2.1874    1.0000 </r>
       <r>    3.0835    1.0000 </r>
       <r>    3.2034    1.0000 </r>
       <r>    3.3008    1.0000 </r>
       <r>    4.9438    1.0000 </r>
       <r>    5.3532    1.0000 </r>
       <r>    7.5943    0.0000 </r>
       <r>    8.3982    0.0000 </r>
       <r>    8.6529    0.0000 </r>
       <r>    8.8851    0.0000 </r>
      </set>
      <set comment="kpoint 54">
       <r>  -24.9215    1.0000 </r>
       <r>  -24.9134    1.0000 </r>
       <r>  -24.9124    1.0000 </r>
       <r>   -3.1360    1.0000 </r>
       <r>    0.6628    1.0000 </r>
       <r>    2.0261    1.0000 </r>
       <r>    2.1368    1.0000 </r>
       <r>    2.9824    1.0000 </r>
       <r>    3.1914    1.0000 </r>
       <r>    3.2399    1.0000 </r>
       <r>    4.9428    1.0000 </r>
       <r>    5.2899    1.0000 </r>
       <r>    7.6766    0.0000 </r>
       <r>    8.3189    0.0000 </r>
       <r>    8.5961    0.0000 </r>
       <r>    8.9892    0.0000 </r>
      </set>
      <set comment="kpoint 55">
       <r>  -24.9172    1.0000 </r>
       <r>  -24.9133    1.0000 </r>
       <r>  -24.9127    1.0000 </r>
       <r>   -3.7503    1.0000 </r>
       <r>    1.1132    1.0000 </r>
       <r>    2.2432    1.0000 </r>
       <r>    2.3712    1.0000 </r>
       <r>    3.0232    1.0000 </r>
       <r>    3.1916    1.0000 </r>
       <r>    4.1405    1.0000 </r>
       <r>    4.9952    1.0000 </r>
       <r>    5.3921    1.0000 </r>
       <r>    7.4003    1.0000 </r>
       <r>    7.7903    0.0000 </r>
       <r>    8.2159    0.0000 </r>
       <r>    9.4110    0.0000 </r>
      </set>
      <set comment="kpoint 56">
       <r>  -24.9187    1.0000 </r>
       <r>  -24.9137    1.0000 </r>
       <r>  -24.9127    1.0000 </r>
       <r>   -3.5196    1.0000 </r>
       <r>    0.9565    1.0000 </r>
       <r>    2.1734    1.0000 </r>
       <r>    2.3714    1.0000 </r>
       <r>    3.0677    1.0000 </r>
       <r>    3.2271    1.0000 </r>
       <r>    3.7363    1.0000 </r>
       <r>    4.7437    1.0000 </r>
       <r>    5.2771    1.0000 </r>
       <r>    7.5536    0.1616 </r>
       <r>    8.0269    0.0000 </r>
       <r>    8.3287    0.0000 </r>
       <r>    9.3568    0.0000 </r>
      </set>
      <set comment="kpoint 57">
       <r>  -24.9200    1.0000 </r>
       <r>  -24.9141    1.0000 </r>
       <r>  -24.9128    1.0000 </r>
       <r>   -3.2904    1.0000 </r>
       <r>    0.8533    1.0000 </r>
       <r>    2.0849    1.0000 </r>
       <r>    2.3273    1.0000 </r>
       <r>    3.0859    1.0000 </r>
       <r>    3.2167    1.0000 </r>
       <r>    3.4055    1.0000 </r>
       <r>    4.6249    1.0000 </r>
       <r>    5.1790    1.0000 </r>
       <r>    7.5563    0.0866 </r>
       <r>    8.2428    0.0000 </r>
       <r>    8.7598    0.0000 </r>
       <r>    8.9162    0.0000 </r>
      </set>
      <set comment="kpoint 58">
       <r>  -24.9208    1.0000 </r>
       <r>  -24.9145    1.0000 </r>
       <r>  -24.9128    1.0000 </r>
       <r>   -3.1241    1.0000 </r>
       <r>    0.8024    1.0000 </r>
       <r>    2.0061    1.0000 </r>
       <r>    2.2683    1.0000 </r>
       <r>    2.9563    1.0000 </r>
       <r>    3.2177    1.0000 </r>
       <r>    3.3272    1.0000 </r>
       <r>    4.5558    1.0000 </r>
       <r>    5.1402    1.0000 </r>
       <r>    7.6135    0.0000 </r>
       <r>    8.3493    0.0000 </r>
       <r>    8.5650    0.0000 </r>
       <r>    9.1407    0.0000 </r>
      </set>
      <set comment="kpoint 59">
       <r>  -24.9209    1.0000 </r>
       <r>  -24.9148    1.0000 </r>
       <r>  -24.9127    1.0000 </r>
       <r>   -3.0762    1.0000 </r>
       <r>    0.7958    1.0000 </r>
       <r>    1.9829    1.0000 </r>
       <r>    2.2121    1.0000 </r>
       <r>    2.8923    1.0000 </r>
       <r>    3.2357    1.0000 </r>
       <r>    3.3379    1.0000 </r>
       <r>    4.5085    1.0000 </r>
       <r>    5.1561    1.0000 </r>
       <r>    7.7271    0.0000 </r>
       <r>    8.1924    0.0000 </r>
       <r>    8.6176    0.0000 </r>
       <r>    9.2614    0.0000 </r>
      </set>
      <set comment="kpoint 60">
       <r>  -24.9203    1.0000 </r>
       <r>  -24.9148    1.0000 </r>
       <r>  -24.9125    1.0000 </r>
       <r>   -3.1651    1.0000 </r>
       <r>    0.8325    1.0000 </r>
       <r>    2.0133    1.0000 </r>
       <r>    2.1962    1.0000 </r>
       <r>    2.9653    1.0000 </r>
       <r>    3.2492    1.0000 </r>
       <r>    3.3854    1.0000 </r>
       <r>    4.4750    1.0000 </r>
       <r>    5.2266    1.0000 </r>
       <r>    7.7497    0.0000 </r>
       <r>    8.3311    0.0000 </r>
       <r>    8.5734    0.0000 </r>
       <r>    9.2132    0.0000 </r>
      </set>
      <set comment="kpoint 61">
       <r>  -24.9193    1.0000 </r>
       <r>  -24.9146    1.0000 </r>
       <r>  -24.9123    1.0000 </r>
       <r>   -3.3581    1.0000 </r>
       <r>    0.9233    1.0000 </r>
       <r>    2.0206    1.0000 </r>
       <r>    2.2626    1.0000 </r>
       <r>    3.0729    1.0000 </r>
       <r>    3.2397    1.0000 </r>
       <r>    3.5516    1.0000 </r>
       <r>    4.4784    1.0000 </r>
       <r>    5.3578    1.0000 </r>
       <r>    7.7724    0.0000 </r>
       <r>    8.2402    0.0000 </r>
       <r>    8.7582    0.0000 </r>
       <r>    9.0898    0.0000 </r>
      </set>
      <set comment="kpoint 62">
       <r>  -24.9181    1.0000 </r>
       <r>  -24.9139    1.0000 </r>
       <r>  -24.9122    1.0000 </r>
       <r>   -3.5944    1.0000 </r>
       <r>    1.0747    1.0000 </r>
       <r>    2.0280    1.0000 </r>
       <r>    2.3217    1.0000 </r>
       <r>    3.0980    1.0000 </r>
       <r>    3.2088    1.0000 </r>
       <r>    3.8429    1.0000 </r>
       <r>    4.6329    1.0000 </r>
       <r>    5.5255    1.0000 </r>
       <r>    7.8138    0.0000 </r>
       <r>    8.0106    0.0000 </r>
       <r>    8.4035    0.0000 </r>
       <r>    9.2341    0.0000 </r>
      </set>
      <set comment="kpoint 63">
       <r>  -24.9193    1.0000 </r>
       <r>  -24.9138    1.0000 </r>
       <r>  -24.9132    1.0000 </r>
       <r>   -3.4359    1.0000 </r>
       <r>    0.8645    1.0000 </r>
       <r>    2.3479    1.0000 </r>
       <r>    2.4863    1.0000 </r>
       <r>    2.9606    1.0000 </r>
       <r>    3.3016    1.0000 </r>
       <r>    3.6965    1.0000 </r>
       <r>    4.7144    1.0000 </r>
       <r>    5.0436    1.0000 </r>
       <r>    7.2914    1.0000 </r>
       <r>    7.9582    0.0000 </r>
       <r>    8.1855    0.0000 </r>
       <r>    9.3556    0.0000 </r>
      </set>
      <set comment="kpoint 64">
       <r>  -24.9202    1.0000 </r>
       <r>  -24.9144    1.0000 </r>
       <r>  -24.9133    1.0000 </r>
       <r>   -3.2502    1.0000 </r>
       <r>    0.8547    1.0000 </r>
       <r>    2.2249    1.0000 </r>
       <r>    2.4881    1.0000 </r>
       <r>    3.0360    1.0000 </r>
       <r>    3.2519    1.0000 </r>
       <r>    3.4336    1.0000 </r>
       <r>    4.4439    1.0000 </r>
       <r>    4.9902    1.0000 </r>
       <r>    7.3805    1.0000 </r>
       <r>    8.0290    0.0000 </r>
       <r>    8.6385    0.0000 </r>
       <r>    8.9681    0.0000 </r>
      </set>
      <set comment="kpoint 65">
       <r>  -24.9205    1.0000 </r>
       <r>  -24.9151    1.0000 </r>
       <r>  -24.9132    1.0000 </r>
       <r>   -3.1031    1.0000 </r>
       <r>    0.9178    1.0000 </r>
       <r>    2.0709    1.0000 </r>
       <r>    2.4396    1.0000 </r>
       <r>    2.9156    1.0000 </r>
       <r>    3.2292    1.0000 </r>
       <r>    3.3866    1.0000 </r>
       <r>    4.2423    1.0000 </r>
       <r>    4.9793    1.0000 </r>
       <r>    7.4433    1.0000 </r>
       <r>    8.2591    0.0000 </r>
       <r>    8.5458    0.0000 </r>
       <r>    9.0828    0.0000 </r>
      </set>
      <set comment="kpoint 66">
       <r>  -24.9203    1.0000 </r>
       <r>  -24.9159    1.0000 </r>
       <r>  -24.9131    1.0000 </r>
       <r>   -3.0340    1.0000 </r>
       <r>    0.9869    1.0000 </r>
       <r>    1.9471    1.0000 </r>
       <r>    2.3527    1.0000 </r>
       <r>    2.7784    1.0000 </r>
       <r>    3.2987    1.0000 </r>
       <r>    3.4208    1.0000 </r>
       <r>    4.1126    1.0000 </r>
       <r>    5.0081    1.0000 </r>
       <r>    7.5744    0.0000 </r>
       <r>    8.2596    0.0000 </r>
       <r>    8.5420    0.0000 </r>
       <r>    9.0982    0.0000 </r>
      </set>
      <set comment="kpoint 67">
       <r>  -24.9198    1.0000 </r>
       <r>  -24.9163    1.0000 </r>
       <r>  -24.9128    1.0000 </r>
       <r>   -3.0627    1.0000 </r>
       <r>    0.9704    1.0000 </r>
       <r>    1.9489    1.0000 </r>
       <r>    2.2588    1.0000 </r>
       <r>    2.8149    1.0000 </r>
       <r>    3.3101    1.0000 </r>
       <r>    3.4941    1.0000 </r>
       <r>    4.0702    1.0000 </r>
       <r>    5.0786    1.0000 </r>
       <r>    7.7536    0.0000 </r>
       <r>    8.1869    0.0000 </r>
       <r>    8.5431    0.0000 </r>
       <r>    9.1373    0.0000 </r>
      </set>
      <set comment="kpoint 68">
       <r>  -24.9195    1.0000 </r>
       <r>  -24.9158    1.0000 </r>
       <r>  -24.9125    1.0000 </r>
       <r>   -3.1816    1.0000 </r>
       <r>    0.9146    1.0000 </r>
       <r>    2.0145    1.0000 </r>
       <r>    2.2217    1.0000 </r>
       <r>    2.9540    1.0000 </r>
       <r>    3.2825    1.0000 </r>
       <r>    3.5422    1.0000 </r>
       <r>    4.1669    1.0000 </r>
       <r>    5.2012    1.0000 </r>
       <r>    7.8165    0.0000 </r>
       <r>    8.3303    0.0000 </r>
       <r>    8.5361    0.0000 </r>
       <r>    9.1398    0.0000 </r>
      </set>
      <set comment="kpoint 69">
       <r>  -24.9210    1.0000 </r>
       <r>  -24.9142    1.0000 </r>
       <r>  -24.9137    1.0000 </r>
       <r>   -3.1853    1.0000 </r>
       <r>    0.8658    1.0000 </r>
       <r>    2.3812    1.0000 </r>
       <r>    2.6107    1.0000 </r>
       <r>    2.9226    1.0000 </r>
       <r>    3.1789    1.0000 </r>
       <r>    3.4296    1.0000 </r>
       <r>    4.4941    1.0000 </r>
       <r>    4.8284    1.0000 </r>
       <r>    7.1652    1.0000 </r>
       <r>    7.8598    0.0000 </r>
       <r>    8.3727    0.0000 </r>
       <r>    9.0076    0.0000 </r>
      </set>
      <set comment="kpoint 70">
       <r>  -24.9212    1.0000 </r>
       <r>  -24.9149    1.0000 </r>
       <r>  -24.9137    1.0000 </r>
       <r>   -3.0773    1.0000 </r>
       <r>    0.9863    1.0000 </r>
       <r>    2.2159    1.0000 </r>
       <r>    2.5950    1.0000 </r>
       <r>    2.8464    1.0000 </r>
       <r>    3.1182    1.0000 </r>
       <r>    3.4308    1.0000 </r>
       <r>    4.1936    1.0000 </r>
       <r>    4.8453    1.0000 </r>
       <r>    7.2505    1.0000 </r>
       <r>    7.9614    0.0000 </r>
       <r>    8.6462    0.0000 </r>
       <r>    8.9691    0.0000 </r>
      </set>
      <set comment="kpoint 71">
       <r>  -24.9207    1.0000 </r>
       <r>  -24.9159    1.0000 </r>
       <r>  -24.9135    1.0000 </r>
       <r>   -3.0145    1.0000 </r>
       <r>    1.1209    1.0000 </r>
       <r>    2.0221    1.0000 </r>
       <r>    2.5146    1.0000 </r>
       <r>    2.6613    1.0000 </r>
       <r>    3.3175    1.0000 </r>
       <r>    3.4182    1.0000 </r>
       <r>    3.9468    1.0000 </r>
       <r>    4.8881    1.0000 </r>
       <r>    7.3662    1.0000 </r>
       <r>    8.2440    0.0000 </r>
       <r>    8.4690    0.0000 </r>
       <r>    8.8694    0.0000 </r>
      </set>
      <set comment="kpoint 72">
       <r>  -24.9199    1.0000 </r>
       <r>  -24.9168    1.0000 </r>
       <r>  -24.9131    1.0000 </r>
       <r>   -3.0092    1.0000 </r>
       <r>    1.1261    1.0000 </r>
       <r>    1.9029    1.0000 </r>
       <r>    2.3842    1.0000 </r>
       <r>    2.6776    1.0000 </r>
       <r>    3.3643    1.0000 </r>
       <r>    3.5223    1.0000 </r>
       <r>    3.8459    1.0000 </r>
       <r>    4.9618    1.0000 </r>
       <r>    7.5561    0.0912 </r>
       <r>    8.2223    0.0000 </r>
       <r>    8.5854    0.0000 </r>
       <r>    8.9208    0.0000 </r>
      </set>
      <set comment="kpoint 73">
       <r>  -24.9220    1.0000 </r>
       <r>  -24.9144    1.0000 </r>
       <r>  -24.9139    1.0000 </r>
       <r>   -3.0555    1.0000 </r>
       <r>    1.0297    1.0000 </r>
       <r>    2.3883    1.0000 </r>
       <r>    2.6314    1.0000 </r>
       <r>    2.7717    1.0000 </r>
       <r>    2.9477    1.0000 </r>
       <r>    3.4969    1.0000 </r>
       <r>    4.3597    1.0000 </r>
       <r>    4.7401    1.0000 </r>
       <r>    7.0943    1.0000 </r>
       <r>    7.7700    0.0000 </r>
       <r>    8.4199    0.0000 </r>
       <r>    8.8918    0.0000 </r>
      </set>
      <set comment="kpoint 74">
       <r>  -24.9216    1.0000 </r>
       <r>  -24.9151    1.0000 </r>
       <r>  -24.9138    1.0000 </r>
       <r>   -3.0211    1.0000 </r>
       <r>    1.1205    1.0000 </r>
       <r>    2.2103    1.0000 </r>
       <r>    2.5619    1.0000 </r>
       <r>    2.6985    1.0000 </r>
       <r>    3.1210    1.0000 </r>
       <r>    3.4642    1.0000 </r>
       <r>    4.0899    1.0000 </r>
       <r>    4.8049    1.0000 </r>
       <r>    7.2045    1.0000 </r>
       <r>    7.9234    0.0000 </r>
       <r>    8.6511    0.0000 </r>
       <r>    8.8281    0.0000 </r>
      </set>
      <set comment="kpoint 75">
       <r>  -24.9194    1.0000 </r>
       <r>  -24.9146    1.0000 </r>
       <r>  -24.9128    1.0000 </r>
       <r>   -3.3224    1.0000 </r>
       <r>    0.8893    1.0000 </r>
       <r>    2.1155    1.0000 </r>
       <r>    2.3841    1.0000 </r>
       <r>    3.0871    1.0000 </r>
       <r>    3.2165    1.0000 </r>
       <r>    3.5704    1.0000 </r>
       <r>    4.3774    1.0000 </r>
       <r>    5.1867    1.0000 </r>
       <r>    7.6739    0.0000 </r>
       <r>    8.0305    0.0000 </r>
       <r>    8.7341    0.0000 </r>
       <r>    9.0387    0.0000 </r>
      </set>
      <set comment="kpoint 76">
       <r>  -24.9200    1.0000 </r>
       <r>  -24.9154    1.0000 </r>
       <r>  -24.9129    1.0000 </r>
       <r>   -3.1505    1.0000 </r>
       <r>    0.9043    1.0000 </r>
       <r>    2.0227    1.0000 </r>
       <r>    2.3720    1.0000 </r>
       <r>    2.9791    1.0000 </r>
       <r>    3.2194    1.0000 </r>
       <r>    3.4615    1.0000 </r>
       <r>    4.1917    1.0000 </r>
       <r>    5.1002    1.0000 </r>
       <r>    7.7065    0.0000 </r>
       <r>    8.1692    0.0000 </r>
       <r>    8.5225    0.0000 </r>
       <r>    9.1504    0.0000 </r>
      </set>
      <set comment="kpoint 77">
       <r>  -24.9202    1.0000 </r>
       <r>  -24.9158    1.0000 </r>
       <r>  -24.9130    1.0000 </r>
       <r>   -3.0498    1.0000 </r>
       <r>    0.9570    1.0000 </r>
       <r>    1.9280    1.0000 </r>
       <r>    2.3696    1.0000 </r>
       <r>    2.8327    1.0000 </r>
       <r>    3.2423    1.0000 </r>
       <r>    3.4320    1.0000 </r>
       <r>    4.1142    1.0000 </r>
       <r>    5.0608    1.0000 </r>
[...]
       <r>    7.9848    0.0000 </r>
       <r>    8.5707    0.0000 </r>
       <r>    9.0325    0.0000 </r>
      </set>
      <set comment="kpoint 79">
       <r>  -24.9202    1.0000 </r>
       <r>  -24.9160    1.0000 </r>
       <r>  -24.9135    1.0000 </r>
       <r>   -3.0291    1.0000 </r>
       <r>    1.0849    1.0000 </r>
       <r>    1.9566    1.0000 </r>
       <r>    2.5446    1.0000 </r>
       <r>    2.7981    1.0000 </r>
       <r>    3.2205    1.0000 </r>
       <r>    3.4384    1.0000 </r>
       <r>    3.8468    1.0000 </r>
       <r>    4.9827    1.0000 </r>
       <r>    7.6145    0.0000 </r>
       <r>    8.1316    0.0000 </r>
       <r>    8.2802    0.0000 </r>
       <r>    8.9074    0.0000 </r>
      </set>
      <set comment="kpoint 80">
       <r>  -24.9198    1.0000 </r>
       <r>  -24.9167    1.0000 </r>
       <r>  -24.9134    1.0000 </r>
       <r>   -3.0038    1.0000 </r>
       <r>    1.1534    1.0000 </r>
       <r>    1.8637    1.0000 </r>
       <r>    2.5108    1.0000 </r>
       <r>    2.7124    1.0000 </r>
       <r>    3.2913    1.0000 </r>
       <r>    3.4961    1.0000 </r>
       <r>    3.7179    1.0000 </r>
       <r>    5.0022    1.0000 </r>
       <r>    7.7632    0.0000 </r>
       <r>    8.0709    0.0000 </r>
       <r>    8.3190    0.0000 </r>
       <r>    8.8001    0.0000 </r>
      </set>
      <set comment="kpoint 81">
       <r>  -24.9197    1.0000 </r>
       <r>  -24.9164    1.0000 </r>
       <r>  -24.9132    1.0000 </r>
       <r>   -3.0472    1.0000 </r>
       <r>    1.0434    1.0000 </r>
       <r>    1.9194    1.0000 </r>
       <r>    2.4411    1.0000 </r>
       <r>    2.8079    1.0000 </r>
       <r>    3.2677    1.0000 </r>
       <r>    3.5136    1.0000 </r>
       <r>    3.8527    1.0000 </r>
       <r>    5.0355    1.0000 </r>
       <r>    7.8342    0.0000 </r>
       <r>    8.1110    0.0000 </r>
       <r>    8.2545    0.0000 </r>
       <r>    9.0511    0.0000 </r>
      </set>
      <set comment="kpoint 82">
       <r>  -24.9209    1.0000 </r>
       <r>  -24.9155    1.0000 </r>
       <r>  -24.9138    1.0000 </r>
       <r>   -3.0178    1.0000 </r>
       <r>    1.1358    1.0000 </r>
       <r>    2.0732    1.0000 </r>
       <r>    2.5750    1.0000 </r>
       <r>    2.8300    1.0000 </r>
       <r>    3.1101    1.0000 </r>
       <r>    3.4235    1.0000 </r>
       <r>    3.8809    1.0000 </r>
       <r>    4.9091    1.0000 </r>
       <r>    7.3998    1.0000 </r>
       <r>    7.9036    0.0000 </r>
       <r>    8.5216    0.0000 </r>
       <r>    8.8010    0.0000 </r>
      </set>
      <set comment="kpoint 83">
       <r>  -24.9203    1.0000 </r>
       <r>  -24.9163    1.0000 </r>
       <r>  -24.9137    1.0000 </r>
       <r>   -2.9925    1.0000 </r>
       <r>    1.2327    1.0000 </r>
       <r>    1.9214    1.0000 </r>
       <r>    2.5407    1.0000 </r>
       <r>    2.7584    1.0000 </r>
       <r>    3.2783    1.0000 </r>
       <r>    3.3867    1.0000 </r>
       <r>    3.6743    1.0000 </r>
       <r>    4.9610    1.0000 </r>
       <r>    7.5734    0.0001 </r>
       <r>    8.0449    0.0000 </r>
       <r>    8.3598    0.0000 </r>
       <r>    8.6516    0.0000 </r>
      </set>
      <set comment="kpoint 84">
       <r>  -24.9198    1.0000 </r>
       <r>  -24.9167    1.0000 </r>
       <r>  -24.9137    1.0000 </r>
       <r>   -2.9893    1.0000 </r>
       <r>    1.2543    1.0000 </r>
       <r>    1.8556    1.0000 </r>
       <r>    2.5439    1.0000 </r>
       <r>    2.8251    1.0000 </r>
       <r>    3.2398    1.0000 </r>
       <r>    3.4064    1.0000 </r>
       <r>    3.5695    1.0000 </r>
       <r>    5.0013    1.0000 </r>
       <r>    7.8414    0.0000 </r>
       <r>    8.0199    0.0000 </r>
       <r>    8.1197    0.0000 </r>
       <r>    8.6408    0.0000 </r>
      </set>
     </set>
    </set>
   </array>
  </eigenvalues>
  <separator name="orbital magnetization" >
   <v name="MAGDIPOLOUT">      0.00000000      0.00000000      0.00000000</v>
  </separator>
  <dos>
   <i name="efermi">      7.54662479 </i>
   <total>
    <array>
     <dimension dim="1">gridpoints</dimension>
     <dimension dim="2">spin</dimension>
     <field>energy</field>
     <field>total</field>
     <field>integrated</field>
     <set>
      <set comment="spin 1">
       <r>   -26.6626     0.0000     0.0000 </r>
       <r>   -26.5350     0.0000     0.0000 </r>
       <r>   -26.4074     0.0000     0.0000 </r>
       <r>   -26.2798     0.0000     0.0000 </r>
       <r>   -26.1522     0.0000     0.0000 </r>
       <r>   -26.0246     0.0000     0.0000 </r>
       <r>   -25.8970     0.0000     0.0000 </r>
       <r>   -25.7693     0.0000     0.0000 </r>
       <r>   -25.6417     0.0000     0.0000 </r>
       <r>   -25.5141     0.0000     0.0000 </r>
       <r>   -25.3865     0.0000     0.0000 </r>
       <r>   -25.2589     0.0000     0.0000 </r>
       <r>   -25.1313     0.0000     0.0000 </r>
       <r>   -25.0036     0.0000     0.0000 </r>
       <r>   -24.8760    47.0161     6.0000 </r>
       <r>   -24.7484     0.0000     6.0000 </r>
       <r>   -24.6208     0.0000     6.0000 </r>
       <r>   -24.4932     0.0000     6.0000 </r>
       <r>   -24.3656     0.0000     6.0000 </r>
       <r>   -24.2379     0.0000     6.0000 </r>
       <r>   -24.1103     0.0000     6.0000 </r>
       <r>   -23.9827     0.0000     6.0000 </r>
       <r>   -23.8551     0.0000     6.0000 </r>
       <r>   -23.7275     0.0000     6.0000 </r>
       <r>   -23.5999     0.0000     6.0000 </r>
       <r>   -23.4723     0.0000     6.0000 </r>
       <r>   -23.3446     0.0000     6.0000 </r>
       <r>   -23.2170     0.0000     6.0000 </r>
       <r>   -23.0894     0.0000     6.0000 </r>
       <r>   -22.9618     0.0000     6.0000 </r>
       <r>   -22.8342     0.0000     6.0000 </r>
       <r>   -22.7066     0.0000     6.0000 </r>
       <r>   -22.5789     0.0000     6.0000 </r>
       <r>   -22.4513     0.0000     6.0000 </r>
       <r>   -22.3237     0.0000     6.0000 </r>
       <r>   -22.1961     0.0000     6.0000 </r>
       <r>   -22.0685     0.0000     6.0000 </r>
       <r>   -21.9409     0.0000     6.0000 </r>
       <r>   -21.8132     0.0000     6.0000 </r>
       <r>   -21.6856     0.0000     6.0000 </r>
       <r>   -21.5580     0.0000     6.0000 </r>
       <r>   -21.4304     0.0000     6.0000 </r>
       <r>   -21.3028     0.0000     6.0000 </r>
       <r>   -21.1752     0.0000     6.0000 </r>
       <r>   -21.0476     0.0000     6.0000 </r>
       <r>   -20.9199     0.0000     6.0000 </r>
       <r>   -20.7923     0.0000     6.0000 </r>
       <r>   -20.6647     0.0000     6.0000 </r>
       <r>   -20.5371     0.0000     6.0000 </r>
       <r>   -20.4095     0.0000     6.0000 </r>
       <r>   -20.2819     0.0000     6.0000 </r>
       <r>   -20.1542     0.0000     6.0000 </r>
       <r>   -20.0266     0.0000     6.0000 </r>
       <r>   -19.8990     0.0000     6.0000 </r>
       <r>   -19.7714     0.0000     6.0000 </r>
       <r>   -19.6438     0.0000     6.0000 </r>
       <r>   -19.5162     0.0000     6.0000 </r>
       <r>   -19.3885     0.0000     6.0000 </r>
       <r>   -19.2609     0.0000     6.0000 </r>
       <r>   -19.1333     0.0000     6.0000 </r>
       <r>   -19.0057     0.0000     6.0000 </r>
       <r>   -18.8781     0.0000     6.0000 </r>
       <r>   -18.7505     0.0000     6.0000 </r>
       <r>   -18.6229     0.0000     6.0000 </r>
       <r>   -18.4952     0.0000     6.0000 </r>
       <r>   -18.3676     0.0000     6.0000 </r>
       <r>   -18.2400     0.0000     6.0000 </r>
       <r>   -18.1124     0.0000     6.0000 </r>
       <r>   -17.9848     0.0000     6.0000 </r>
       <r>   -17.8572     0.0000     6.0000 </r>
       <r>   -17.7295     0.0000     6.0000 </r>
       <r>   -17.6019     0.0000     6.0000 </r>
       <r>   -17.4743     0.0000     6.0000 </r>
       <r>   -17.3467     0.0000     6.0000 </r>
       <r>   -17.2191     0.0000     6.0000 </r>
       <r>   -17.0915     0.0000     6.0000 </r>
       <r>   -16.9638     0.0000     6.0000 </r>
       <r>   -16.8362     0.0000     6.0000 </r>
       <r>   -16.7086     0.0000     6.0000 </r>
       <r>   -16.5810     0.0000     6.0000 </r>
       <r>   -16.4534     0.0000     6.0000 </r>
       <r>   -16.3258     0.0000     6.0000 </r>
       <r>   -16.1982     0.0000     6.0000 </r>
       <r>   -16.0705     0.0000     6.0000 </r>
       <r>   -15.9429     0.0000     6.0000 </r>
       <r>   -15.8153     0.0000     6.0000 </r>
       <r>   -15.6877     0.0000     6.0000 </r>
       <r>   -15.5601     0.0000     6.0000 </r>
       <r>   -15.4325     0.0000     6.0000 </r>
       <r>   -15.3048     0.0000     6.0000 </r>
       <r>   -15.1772     0.0000     6.0000 </r>
       <r>   -15.0496     0.0000     6.0000 </r>
       <r>   -14.9220     0.0000     6.0000 </r>
       <r>   -14.7944     0.0000     6.0000 </r>
       <r>   -14.6668     0.0000     6.0000 </r>
       <r>   -14.5391     0.0000     6.0000 </r>
       <r>   -14.4115     0.0000     6.0000 </r>
       <r>   -14.2839     0.0000     6.0000 </r>
       <r>   -14.1563     0.0000     6.0000 </r>
       <r>   -14.0287     0.0000     6.0000 </r>
       <r>   -13.9011     0.0000     6.0000 </r>
       <r>   -13.7735     0.0000     6.0000 </r>
       <r>   -13.6458     0.0000     6.0000 </r>
       <r>   -13.5182     0.0000     6.0000 </r>
       <r>   -13.3906     0.0000     6.0000 </r>
       <r>   -13.2630     0.0000     6.0000 </r>
       <r>   -13.1354     0.0000     6.0000 </r>
       <r>   -13.0078     0.0000     6.0000 </r>
       <r>   -12.8801     0.0000     6.0000 </r>
       <r>   -12.7525     0.0000     6.0000 </r>
       <r>   -12.6249     0.0000     6.0000 </r>
       <r>   -12.4973     0.0000     6.0000 </r>
       <r>   -12.3697     0.0000     6.0000 </r>
       <r>   -12.2421     0.0000     6.0000 </r>
       <r>   -12.1144     0.0000     6.0000 </r>
       <r>   -11.9868     0.0000     6.0000 </r>
       <r>   -11.8592     0.0000     6.0000 </r>
       <r>   -11.7316     0.0000     6.0000 </r>
       <r>   -11.6040     0.0000     6.0000 </r>
       <r>   -11.4764     0.0000     6.0000 </r>
       <r>   -11.3488     0.0000     6.0000 </r>
       <r>   -11.2211     0.0000     6.0000 </r>
       <r>   -11.0935     0.0000     6.0000 </r>
       <r>   -10.9659     0.0000     6.0000 </r>
       <r>   -10.8383     0.0000     6.0000 </r>
       <r>   -10.7107     0.0000     6.0000 </r>
       <r>   -10.5831     0.0000     6.0000 </r>
       <r>   -10.4554     0.0000     6.0000 </r>
       <r>   -10.3278     0.0000     6.0000 </r>
       <r>   -10.2002     0.0000     6.0000 </r>
       <r>   -10.0726     0.0000     6.0000 </r>
       <r>    -9.9450     0.0000     6.0000 </r>
       <r>    -9.8174     0.0000     6.0000 </r>
       <r>    -9.6897     0.0000     6.0000 </r>
       <r>    -9.5621     0.0000     6.0000 </r>
       <r>    -9.4345     0.0000     6.0000 </r>
       <r>    -9.3069     0.0000     6.0000 </r>
       <r>    -9.1793     0.0000     6.0000 </r>
       <r>    -9.0517     0.0000     6.0000 </r>
       <r>    -8.9240     0.0000     6.0000 </r>
       <r>    -8.7964     0.0000     6.0000 </r>
       <r>    -8.6688     0.0000     6.0000 </r>
       <r>    -8.5412     0.0000     6.0000 </r>
       <r>    -8.4136     0.0000     6.0000 </r>
       <r>    -8.2860     0.0000     6.0000 </r>
       <r>    -8.1584     0.0000     6.0000 </r>
       <r>    -8.0307     0.0000     6.0000 </r>
       <r>    -7.9031     0.0000     6.0000 </r>
       <r>    -7.7755     0.0000     6.0000 </r>
       <r>    -7.6479     0.0000     6.0000 </r>
       <r>    -7.5203     0.0000     6.0000 </r>
       <r>    -7.3927     0.0000     6.0000 </r>
       <r>    -7.2650     0.0000     6.0000 </r>
       <r>    -7.1374     0.0000     6.0000 </r>
       <r>    -7.0098     0.0000     6.0000 </r>
       <r>    -6.8822     0.0000     6.0000 </r>
       <r>    -6.7546     0.0000     6.0000 </r>
       <r>    -6.6270     0.0000     6.0000 </r>
       <r>    -6.4993     0.0000     6.0000 </r>
       <r>    -6.3717     0.0000     6.0000 </r>
       <r>    -6.2441     0.0000     6.0000 </r>
       <r>    -6.1165     0.0000     6.0000 </r>
       <r>    -5.9889     0.0000     6.0000 </r>
       <r>    -5.8613     0.0000     6.0000 </r>
       <r>    -5.7337     0.0000     6.0000 </r>
       <r>    -5.6060     0.0000     6.0000 </r>
       <r>    -5.4784     0.0000     6.0000 </r>
       <r>    -5.3508     0.0000     6.0000 </r>
       <r>    -5.2232     0.0000     6.0000 </r>
       <r>    -5.0956     0.0000     6.0000 </r>
       <r>    -4.9680     0.0000     6.0000 </r>
       <r>    -4.8403     0.0000     6.0000 </r>
       <r>    -4.7127     0.0000     6.0000 </r>
       <r>    -4.5851     0.0000     6.0000 </r>
       <r>    -4.4575     0.0000     6.0000 </r>
       <r>    -4.3299     0.0460     6.0059 </r>
       <r>    -4.2023     0.0985     6.0262 </r>
       <r>    -4.0746     0.0444     6.0594 </r>
       <r>    -3.9470     0.1794     6.1258 </r>
       <r>    -3.8194     0.1855     6.1775 </r>
       <r>    -3.6918     0.4563     6.2940 </r>
       <r>    -3.5642     0.5729     6.3744 </r>
       <r>    -3.4366     0.3537     6.5067 </r>
       <r>    -3.3090     0.9688     6.6999 </r>
       <r>    -3.1813     1.2579     6.9735 </r>
       <r>    -3.0537     2.9993     7.5798 </r>
       <r>    -2.9261     0.6848     8.0000 </r>
       <r>    -2.7985     0.0000     8.0000 </r>
       <r>    -2.6709     0.0000     8.0000 </r>
       <r>    -2.5433     0.0000     8.0000 </r>
       <r>    -2.4156     0.0000     8.0000 </r>
       <r>    -2.2880     0.0000     8.0000 </r>
       <r>    -2.1604     0.0000     8.0000 </r>
       <r>    -2.0328     0.0000     8.0000 </r>
       <r>    -1.9052     0.0000     8.0000 </r>
       <r>    -1.7776     0.0000     8.0000 </r>
       <r>    -1.6499     0.0000     8.0000 </r>
       <r>    -1.5223     0.0000     8.0000 </r>
       <r>    -1.3947     0.0000     8.0000 </r>
       <r>    -1.2671     0.0000     8.0000 </r>
       <r>    -1.1395     0.0000     8.0000 </r>
       <r>    -1.0119     0.0000     8.0000 </r>
       <r>    -0.8843     0.0000     8.0000 </r>
       <r>    -0.7566     0.0000     8.0000 </r>
       <r>    -0.6290     0.0000     8.0000 </r>
       <r>    -0.5014     0.0000     8.0000 </r>
       <r>    -0.3738     0.0000     8.0000 </r>
       <r>    -0.2462     0.0000     8.0000 </r>
       <r>    -0.1186     0.0000     8.0000 </r>
       <r>     0.0091     0.0000     8.0000 </r>
       <r>     0.1367     0.0000     8.0000 </r>
       <r>     0.2643     0.0000     8.0000 </r>
       <r>     0.3919     0.0000     8.0000 </r>
       <r>     0.5195     0.0000     8.0000 </r>
       <r>     0.6471     0.3324     8.0497 </r>
       <r>     0.7748     0.5276     8.1839 </r>
       <r>     0.9024     3.3370     8.7463 </r>
       <r>     1.0300     2.7757     9.2973 </r>
       <r>     1.1576     2.1443     9.6919 </r>
       <r>     1.2852     0.6449     9.8083 </r>
       <r>     1.4128     0.0856     9.8680 </r>
       <r>     1.5404     0.4179     9.9213 </r>
       <r>     1.6681     0.1712     9.9463 </r>
       <r>     1.7957     0.1712     9.9681 </r>
       <r>     1.9233     1.1368    10.1132 </r>
       <r>     2.0509     5.7482    11.0859 </r>
       <r>     2.1785     3.3762    11.8974 </r>
       <r>     2.3061     4.0769    12.8380 </r>
       <r>     2.4338     2.7882    13.3399 </r>
       <r>     2.5614     2.7853    13.7983 </r>
       <r>     2.6890     1.4012    14.1023 </r>
       <r>     2.8166     1.8025    14.4376 </r>
       <r>     2.9442     1.5356    14.8186 </r>
       <r>     3.0718     3.5419    15.6373 </r>
       <r>     3.1995     4.8571    16.7828 </r>
       <r>     3.3271     5.1963    18.2243 </r>
       <r>     3.4547     5.2264    19.0311 </r>
       <r>     3.5823     1.6349    19.5286 </r>
       <r>     3.7099     0.5297    19.6407 </r>
       <r>     3.8375     0.3075    19.7761 </r>
       <r>     3.9651     0.6914    19.9835 </r>
       <r>     4.0928     1.1961    20.1572 </r>
       <r>     4.2204     1.2843    20.4379 </r>
       <r>     4.3480     0.5497    20.5736 </r>
       <r>     4.4756     1.1870    20.7805 </r>
       <r>     4.6032     0.8562    21.0333 </r>
       <r>     4.7308     0.7859    21.2100 </r>
       <r>     4.8585     1.2201    21.5349 </r>
       <r>     4.9861     3.0255    22.0001 </r>
       <r>     5.1137     2.2187    22.5526 </r>
       <r>     5.2413     2.2346    22.9479 </r>
       <r>     5.3689     2.0901    23.3118 </r>
       <r>     5.4965     1.7734    23.6209 </r>
       <r>     5.6242     0.6642    23.7288 </r>
       <r>     5.7518     0.3118    23.8404 </r>
       <r>     5.8794     0.5992    23.9244 </r>
       <r>     6.0070     0.3779    23.9727 </r>
       <r>     6.1346     0.1997    23.9982 </r>
       <r>     6.2622     0.0000    24.0009 </r>
       <r>     6.3898     0.0000    24.0009 </r>
       <r>     6.5175     0.0571    24.0082 </r>
       <r>     6.6451     0.0428    24.0137 </r>
       <r>     6.7727     0.1420    24.0318 </r>
       <r>     6.9003     0.1767    24.0544 </r>
       <r>     7.0279     0.1820    24.0824 </r>
       <r>     7.1555     0.7135    24.2340 </r>
       <r>     7.2832     0.9965    24.4303 </r>
       <r>     7.4108     1.4449    24.6951 </r>
       <r>     7.5384     1.2633    24.9632 </r>
       <r>     7.6660     1.3420    25.4066 </r>
       <r>     7.7936     3.1249    25.9782 </r>
       <r>     7.9212     1.3938    26.2980 </r>
       <r>     8.0489     2.1195    26.7074 </r>
       <r>     8.1765     2.7069    27.1265 </r>
       <r>     8.3041     4.6052    27.9750 </r>
       <r>     8.4317     3.0581    28.7234 </r>
       <r>     8.5593     3.2044    29.2829 </r>
       <r>     8.6869     2.5328    29.8999 </r>
       <r>     8.8146     1.7904    30.2057 </r>
       <r>     8.9422     2.4537    30.5635 </r>
       <r>     9.0698     1.5085    30.9308 </r>
       <r>     9.1974     1.9518    31.4243 </r>
       <r>     9.3250     1.1933    31.7481 </r>
       <r>     9.4526     0.3704    31.8688 </r>
       <r>     9.5802     0.2302    31.9711 </r>
       <r>     9.7079     0.0000    31.9927 </r>
       <r>     9.8355     0.0000    31.9927 </r>
       <r>     9.9631     0.0000    32.0000 </r>
       <r>    10.0907     0.0000    32.0000 </r>
       <r>    10.2183     0.0000    32.0000 </r>
       <r>    10.3459     0.0000    32.0000 </r>
       <r>    10.4736     0.0000    32.0000 </r>
       <r>    10.6012     0.0000    32.0000 </r>
       <r>    10.7288     0.0000    32.0000 </r>
       <r>    10.8564     0.0000    32.0000 </r>
       <r>    10.9840     0.0000    32.0000 </r>
       <r>    11.1116     0.0000    32.0000 </r>
       <r>    11.2393     0.0000    32.0000 </r>
       <r>    11.3669     0.0000    32.0000 </r>
       <r>    11.4945     0.0000    32.0000 </r>
       <r>    11.6221     0.0000    32.0000 </r>
      </set>
     </set>
    </array>
   </total>
  </dos>
 </calculation>
 <structure name="finalpos" >
  <crystal>
   <varray name="basis" >
    <v>       0.00000000       3.30064418       3.30064418 </v>
    <v>       3.30064418       0.00000000       3.30064418 </v>
    <v>       3.30064418       3.30064418       0.00000000 </v>
   </varray>
   <i name="volume">     71.91609925 </i>
   <varray name="rec_basis" >
    <v>      -0.15148558       0.15148558       0.15148558 </v>
    <v>       0.15148558      -0.15148558       0.15148558 </v>
    <v>       0.15148558       0.15148558      -0.15148558 </v>
   </varray>
  </crystal>
  <varray name="positions" >
   <v>       0.75000000       0.75000000       0.75000000 </v>
   <v>       0.25000000       0.25000000       0.25000000 </v>
   <v>       0.00000000       0.00000000       0.00000000 </v>
  </varray>
 </structure>
</modeling>
