   2   2   0   0
  0.1677234E+02  0.3620036E-09  0.3620036E-09  0.3620036E-09  0.0000000E+00
  1.000000000000000E-004
  CAR 
 unknown system                          
     14.71321483    -10.75426136  301      4.10707214      1.00000000
    -10.754  0.0000E+00  0.0000E+00
    -10.669  0.0000E+00  0.0000E+00
    -10.584  0.0000E+00  0.0000E+00
    -10.500  0.0000E+00  0.0000E+00
    -10.415  0.0000E+00  0.0000E+00
    -10.330  0.0000E+00  0.0000E+00
    -10.245  0.0000E+00  0.0000E+00
    -10.160  0.0000E+00  0.0000E+00
    -10.075  0.0000E+00  0.0000E+00
     -9.990  0.0000E+00  0.0000E+00
     -9.905  0.0000E+00  0.0000E+00
     -9.820  0.0000E+00  0.0000E+00
     -9.736  0.0000E+00  0.0000E+00
     -9.651  0.0000E+00  0.0000E+00
     -9.566  0.5454E-01  0.7401E-03
     -9.481  0.1064E+00  0.7717E-02
     -9.396  0.1472E+00  0.1867E-01
     -9.311  0.1794E+00  0.3245E-01
     -9.226  0.2046E+00  0.4880E-01
     -9.141  0.2321E+00  0.6730E-01
     -9.056  0.2531E+00  0.8790E-01
     -8.972  0.2767E+00  0.1104E+00
     -8.887  0.2982E+00  0.1348E+00
     -8.802  0.3191E+00  0.1610E+00
     -8.717  0.3418E+00  0.1891E+00
     -8.632  0.3617E+00  0.2189E+00
     -8.547  0.3831E+00  0.2505E+00
     -8.462  0.4059E+00  0.2840E+00
     -8.377  0.4276E+00  0.3194E+00
     -8.292  0.4510E+00  0.3566E+00
     -8.208  0.4758E+00  0.3960E+00
     -8.123  0.5018E+00  0.4375E+00
     -8.038  0.5300E+00  0.4812E+00
     -7.953  0.5605E+00  0.5275E+00
     -7.868  0.5946E+00  0.5765E+00
     -7.783  0.6342E+00  0.6286E+00
     -7.698  0.6802E+00  0.6844E+00
     -7.613  0.7349E+00  0.7443E+00
     -7.528  0.8127E+00  0.8098E+00
     -7.443  0.9460E+00  0.8838E+00
     -7.359  0.1057E+01  0.9730E+00
     -7.274  0.1046E+01  0.1062E+01
     -7.189  0.1032E+01  0.1150E+01
     -7.104  0.1011E+01  0.1237E+01
     -7.019  0.9999E+00  0.1322E+01
     -6.934  0.9922E+00  0.1407E+01
     -6.849  0.9805E+00  0.1490E+01
     -6.764  0.9881E+00  0.1574E+01
     -6.679  0.9914E+00  0.1658E+01
     -6.595  0.1028E+01  0.1743E+01
     -6.510  0.1099E+01  0.1833E+01
     -6.425  0.1594E+01  0.1939E+01
     -6.340  0.2852E-01  0.2000E+01
     -6.255  0.0000E+00  0.2000E+01
     -6.170  0.0000E+00  0.2000E+01
     -6.085  0.0000E+00  0.2000E+01
     -6.000  0.0000E+00  0.2000E+01
     -5.915  0.0000E+00  0.2000E+01
     -5.831  0.0000E+00  0.2000E+01
     -5.746  0.0000E+00  0.2000E+01
     -5.661  0.0000E+00  0.2000E+01
     -5.576  0.0000E+00  0.2000E+01
     -5.491  0.0000E+00  0.2000E+01
     -5.406  0.0000E+00  0.2000E+01
     -5.321  0.0000E+00  0.2000E+01
     -5.236  0.0000E+00  0.2000E+01
     -5.151  0.0000E+00  0.2000E+01
     -5.067  0.0000E+00  0.2000E+01
     -4.982  0.0000E+00  0.2000E+01
     -4.897  0.0000E+00  0.2000E+01
     -4.812  0.0000E+00  0.2000E+01
     -4.727  0.0000E+00  0.2000E+01
     -4.642  0.0000E+00  0.2000E+01
     -4.557  0.0000E+00  0.2000E+01
     -4.472  0.0000E+00  0.2000E+01
     -4.387  0.0000E+00  0.2000E+01
     -4.303  0.0000E+00  0.2000E+01
     -4.218  0.0000E+00  0.2000E+01
     -4.133  0.0000E+00  0.2000E+01
     -4.048  0.0000E+00  0.2000E+01
     -3.963  0.0000E+00  0.2000E+01
     -3.878  0.0000E+00  0.2000E+01
     -3.793  0.0000E+00  0.2000E+01
     -3.708  0.0000E+00  0.2000E+01
     -3.623  0.0000E+00  0.2000E+01
     -3.538  0.0000E+00  0.2000E+01
     -3.454  0.0000E+00  0.2000E+01
     -3.369  0.6528E-01  0.2001E+01
     -3.284  0.4787E+00  0.2024E+01
     -3.199  0.8982E+00  0.2083E+01
     -3.114  0.1485E+01  0.2179E+01
     -3.029  0.2244E+01  0.2341E+01
     -2.944  0.1988E+01  0.2569E+01
     -2.859  0.1366E+01  0.2707E+01
     -2.774  0.1074E+01  0.2809E+01
     -2.690  0.9175E+00  0.2893E+01
     -2.605  0.7923E+00  0.2965E+01
     -2.520  0.7071E+00  0.3028E+01
     -2.435  0.6463E+00  0.3086E+01
     -2.350  0.5860E+00  0.3138E+01
     -2.265  0.5344E+00  0.3186E+01
     -2.180  0.5015E+00  0.3229E+01
     -2.095  0.4689E+00  0.3271E+01
     -2.010  0.4372E+00  0.3309E+01
     -1.926  0.4041E+00  0.3345E+01
     -1.841  0.3846E+00  0.3378E+01
     -1.756  0.3653E+00  0.3410E+01
     -1.671  0.3459E+00  0.3440E+01
     -1.586  0.3247E+00  0.3469E+01
     -1.501  0.3046E+00  0.3495E+01
     -1.416  0.2924E+00  0.3521E+01
     -1.331  0.2800E+00  0.3545E+01
     -1.246  0.2667E+00  0.3568E+01
     -1.162  0.2531E+00  0.3590E+01
     -1.077  0.2374E+00  0.3611E+01
     -0.992  0.2273E+00  0.3631E+01
     -0.907  0.2186E+00  0.3650E+01
     -0.822  0.2099E+00  0.3668E+01
     -0.737  0.2010E+00  0.3685E+01
     -0.652  0.5417E+00  0.3718E+01
     -0.567  0.7090E+00  0.3772E+01
     -0.482  0.9887E+00  0.3843E+01
     -0.397  0.1187E+01  0.3940E+01
     -0.313  0.1123E+01  0.4038E+01
     -0.228  0.1025E+01  0.4129E+01
     -0.143  0.9873E+00  0.4214E+01
     -0.058  0.9457E+00  0.4296E+01
      0.027  0.9185E+00  0.4375E+01
      0.112  0.9279E+00  0.4453E+01
      0.197  0.9733E+00  0.4535E+01
      0.282  0.9794E+00  0.4618E+01
      0.367  0.1018E+01  0.4702E+01
      0.451  0.1121E+01  0.4789E+01
      0.536  0.1087E+01  0.4880E+01
      0.621  0.1131E+01  0.4975E+01
      0.706  0.1253E+01  0.5075E+01
      0.791  0.1404E+01  0.5187E+01
      0.876  0.1440E+01  0.5309E+01
      0.961  0.1411E+01  0.5431E+01
      1.046  0.1391E+01  0.5550E+01
      1.131  0.1369E+01  0.5667E+01
      1.215  0.1350E+01  0.5782E+01
      1.300  0.1339E+01  0.5896E+01
      1.385  0.1316E+01  0.6009E+01
      1.470  0.1297E+01  0.6120E+01
      1.555  0.1282E+01  0.6230E+01
      1.640  0.1258E+01  0.6337E+01
      1.725  0.1246E+01  0.6444E+01
      1.810  0.1232E+01  0.6549E+01
      1.895  0.1207E+01  0.6653E+01
      1.979  0.1190E+01  0.6754E+01
      2.064  0.1177E+01  0.6855E+01
      2.149  0.1164E+01  0.6954E+01
      2.234  0.1151E+01  0.7052E+01
      2.319  0.1136E+01  0.7149E+01
      2.404  0.1132E+01  0.7245E+01
      2.489  0.1110E+01  0.7341E+01
      2.574  0.1057E+01  0.7434E+01
      2.659  0.8186E+00  0.7512E+01
      2.744  0.7121E+00  0.7576E+01
      2.828  0.6344E+00  0.7633E+01
      2.913  0.5631E+00  0.7684E+01
      2.998  0.5094E+00  0.7730E+01
      3.083  0.4604E+00  0.7771E+01
      3.168  0.4130E+00  0.7808E+01
      3.253  0.3686E+00  0.7841E+01
      3.338  0.3293E+00  0.7871E+01
      3.423  0.2916E+00  0.7897E+01
      3.508  0.2592E+00  0.7920E+01
      3.592  0.2222E+00  0.7941E+01
      3.677  0.1883E+00  0.7958E+01
      3.762  0.1632E+00  0.7973E+01
      3.847  0.1263E+00  0.7985E+01
      3.932  0.7869E-01  0.7994E+01
      4.017  0.3313E-01  0.8000E+01
      4.102  0.0000E+00  0.8000E+01
      4.187  0.0000E+00  0.8000E+01
      4.272  0.0000E+00  0.8000E+01
      4.356  0.0000E+00  0.8000E+01
      4.441  0.0000E+00  0.8000E+01
      4.526  0.0000E+00  0.8000E+01
      4.611  0.0000E+00  0.8000E+01
      4.696  0.0000E+00  0.8000E+01
      4.781  0.0000E+00  0.8000E+01
      4.866  0.0000E+00  0.8000E+01
      4.951  0.0000E+00  0.8000E+01
      5.036  0.0000E+00  0.8000E+01
      5.120  0.0000E+00  0.8000E+01
      5.205  0.0000E+00  0.8000E+01
      5.290  0.0000E+00  0.8000E+01
      5.375  0.0000E+00  0.8000E+01
      5.460  0.1700E-01  0.8000E+01
      5.545  0.1138E+00  0.8006E+01
      5.630  0.1730E+00  0.8018E+01
      5.715  0.2504E+00  0.8036E+01
      5.800  0.3736E+00  0.8062E+01
      5.884  0.4971E+00  0.8100E+01
      5.969  0.5679E+00  0.8145E+01
      6.054  0.6504E+00  0.8196E+01
      6.139  0.7375E+00  0.8255E+01
      6.224  0.8354E+00  0.8322E+01
      6.309  0.9466E+00  0.8397E+01
      6.394  0.1071E+01  0.8483E+01
      6.479  0.1210E+01  0.8579E+01
      6.564  0.1424E+01  0.8691E+01
      6.649  0.1780E+01  0.8824E+01
      6.733  0.2227E+01  0.9005E+01
      6.818  0.1680E+01  0.9177E+01
      6.903  0.1512E+01  0.9311E+01
      6.988  0.1440E+01  0.9436E+01
      7.073  0.1333E+01  0.9553E+01
      7.158  0.1347E+01  0.9666E+01
      7.243  0.1110E+01  0.9770E+01
      7.328  0.1024E+01  0.9860E+01
      7.413  0.9911E+00  0.9945E+01
      7.497  0.9591E+00  0.1003E+02
      7.582  0.9223E+00  0.1011E+02
      7.667  0.9369E+00  0.1019E+02
      7.752  0.9120E+00  0.1026E+02
      7.837  0.9901E+00  0.1034E+02
      7.922  0.1060E+01  0.1043E+02
      8.007  0.1189E+01  0.1053E+02
      8.092  0.1403E+01  0.1064E+02
      8.177  0.1157E+01  0.1075E+02
      8.261  0.1186E+01  0.1085E+02
      8.346  0.1387E+01  0.1095E+02
      8.431  0.2022E+01  0.1110E+02
      8.516  0.2306E+01  0.1128E+02
      8.601  0.1459E+01  0.1143E+02
      8.686  0.1411E+01  0.1155E+02
      8.771  0.1372E+01  0.1167E+02
      8.856  0.1511E+01  0.1179E+02
      8.941  0.1219E+01  0.1191E+02
      9.025  0.1158E+01  0.1201E+02
      9.110  0.1102E+01  0.1210E+02
      9.195  0.1059E+01  0.1220E+02
      9.280  0.1008E+01  0.1228E+02
      9.365  0.9752E+00  0.1237E+02
      9.450  0.9798E+00  0.1245E+02
      9.535  0.1067E+01  0.1254E+02
      9.620  0.1214E+01  0.1263E+02
      9.705  0.1422E+01  0.1275E+02
      9.790  0.1529E+01  0.1288E+02
      9.874  0.1517E+01  0.1301E+02
      9.959  0.1435E+01  0.1313E+02
     10.044  0.1425E+01  0.1325E+02
     10.129  0.1400E+01  0.1338E+02
     10.214  0.1311E+01  0.1349E+02
     10.299  0.1284E+01  0.1360E+02
     10.384  0.1195E+01  0.1371E+02
     10.469  0.1141E+01  0.1381E+02
     10.554  0.1196E+01  0.1390E+02
     10.638  0.8706E+00  0.1400E+02
     10.723  0.8507E+00  0.1407E+02
     10.808  0.8530E+00  0.1414E+02
     10.893  0.8311E+00  0.1421E+02
     10.978  0.8219E+00  0.1428E+02
     11.063  0.8238E+00  0.1435E+02
     11.148  0.8466E+00  0.1442E+02
     11.233  0.9159E+00  0.1450E+02
     11.318  0.9669E+00  0.1458E+02
     11.402  0.1021E+01  0.1466E+02
     11.487  0.1123E+01  0.1475E+02
     11.572  0.1290E+01  0.1486E+02
     11.657  0.1690E+01  0.1498E+02
     11.742  0.1655E+01  0.1513E+02
     11.827  0.1209E+01  0.1524E+02
     11.912  0.9893E+00  0.1533E+02
     11.997  0.9449E+00  0.1542E+02
     12.082  0.8759E+00  0.1549E+02
     12.166  0.7964E+00  0.1556E+02
     12.251  0.7398E+00  0.1563E+02
     12.336  0.7421E+00  0.1569E+02
     12.421  0.4143E+00  0.1575E+02
     12.506  0.3857E+00  0.1578E+02
     12.591  0.3567E+00  0.1581E+02
     12.676  0.3263E+00  0.1584E+02
     12.761  0.2939E+00  0.1587E+02
     12.846  0.2650E+00  0.1589E+02
     12.930  0.2402E+00  0.1591E+02
     13.015  0.2195E+00  0.1593E+02
     13.100  0.1963E+00  0.1595E+02
     13.185  0.1643E+00  0.1597E+02
     13.270  0.1302E+00  0.1598E+02
     13.355  0.1019E+00  0.1599E+02
     13.440  0.8449E-01  0.1600E+02
     13.525  0.6600E-02  0.1600E+02
     13.610  0.0000E+00  0.1600E+02
     13.695  0.0000E+00  0.1600E+02
     13.779  0.0000E+00  0.1600E+02
     13.864  0.0000E+00  0.1600E+02
     13.949  0.0000E+00  0.1600E+02
     14.034  0.0000E+00  0.1600E+02
     14.119  0.0000E+00  0.1600E+02
     14.204  0.0000E+00  0.1600E+02
     14.289  0.0000E+00  0.1600E+02
     14.374  0.0000E+00  0.1600E+02
     14.459  0.0000E+00  0.1600E+02
     14.543  0.0000E+00  0.1600E+02
     14.628  0.0000E+00  0.1600E+02
     14.713  0.0000E+00  0.1600E+02
