    2    2    1    1
  0.1677234E+02  0.3620036E-09  0.3620036E-09  0.3620036E-09  0.0000000E+00
  1.000000000000000E-004
  CAR 
 unknown system                          
      8    328      8
 
  0.0000000E+00  0.0000000E+00  0.0000000E+00  0.9391435E-04
    1       -9.596649   1.000000
    2        4.069410   1.000000
    3        4.069410   1.000000
    4        4.069410   1.000000
    5        6.331520   0.000000
    6        7.103190   0.000000
    7        7.103190   0.000000
    8        7.103190   0.000000
 
  0.4545455E-01  0.0000000E+00  0.0000000E+00  0.7513148E-03
    1       -9.568861   1.000000
    2        3.699833   1.000000
    3        4.015485   1.000000
    4        4.015485   1.000000
    5        6.477847   0.000000
    6        7.174907   0.000000
    7        7.174907   0.000000
    8        7.269466   0.000000
 
  0.9090909E-01  0.0000000E+00  0.0000000E+00  0.7513148E-03
    1       -9.485808   1.000000
    2        2.908862   1.000000
    3        3.871363   1.000000
    4        3.871363   1.000000
    5        6.533181   0.000000
    6        7.368201   0.000000
    7        7.368201   0.000000
    8        7.844303   0.000000
 
  0.1363636E+00  0.0000000E+00  0.0000000E+00  0.7513148E-03
    1       -9.348773   1.000000
    2        1.994362   1.000000
    3        3.674190   1.000000
    4        3.674191   1.000000
    5        6.443949   0.000000
    6        7.633046   0.000000
    7        7.633047   0.000000
    8        8.608730   0.000000
 
  0.1818182E+00  0.0000000E+00  0.0000000E+00  0.7513148E-03
    1       -9.160042   1.000000
    2        1.058106   1.000000
    3        3.458089   1.000000
    4        3.458089   1.000000
    5        6.307249   0.000000
    6        7.915273   0.000000
    7        7.915273   0.000000
    8        9.396071   0.000000
 
  0.2272727E+00  0.0000000E+00  0.0000000E+00  0.7513148E-03
    1       -8.923584   1.000000
    2        0.142055   1.000000
    3        3.246509   1.000000
    4        3.246509   1.000000
    5        6.160497   0.000000
    6        8.168575   0.000000
    7        8.168575   0.000000
    8       10.156161   0.000000
 
  0.2727273E+00  0.0000000E+00  0.0000000E+00  0.7513148E-03
    1       -8.645947   1.000000
    2       -0.728480   1.000000
    3        3.053980   1.000000
    4        3.053981   1.000000
    5        6.021554   0.000000
    6        8.361687   0.000000
    7        8.361687   0.000000
    8       10.862387   0.000000
 
  0.3181818E+00  0.0000000E+00  0.0000000E+00  0.7513148E-03
    1       -8.338195   1.000000
    2       -1.531535   1.000000
    3        2.889212   1.000000
    4        2.889212   1.000000
    5        5.900210   0.000000
    6        8.484460   0.000000
    7        8.484460   0.000000
    8       11.477149   0.000000
 
  0.3636364E+00  0.0000000E+00  0.0000000E+00  0.7513148E-03
    1       -8.019425   1.000000
    2       -2.241167   1.000000
    3        2.757369   1.000000
    4        2.757369   1.000000
    5        5.802111   0.000000
    6        8.546940   0.000000
    7        8.546940   0.000000
    8       11.943783   0.000000
 
  0.4090909E+00  0.0000000E+00  0.0000000E+00  0.7513148E-03
    1       -7.722528   1.000000
    2       -2.819951   1.000000
    3        2.661557   1.000000
    4        2.661557   1.000000
    5        5.730452   0.000000
    6        8.570083   0.000000
    7        8.570083   0.000000
    8       12.224415   0.000000
 
  0.4545455E+00  0.0000000E+00  0.0000000E+00  0.7513148E-03
    1       -7.500086   1.000000
    2       -3.212605   1.000000
    3        2.603480   1.000000
    4        2.603480   1.000000
    5        5.686919   0.000000
    6        8.574590   0.000000
    7        8.574590   0.000000
    8       12.350876   0.000000
 
  0.5000000E+00  0.0000000E+00  0.0000000E+00  0.3756574E-03
    1       -7.415276   1.000000
    2       -3.354282   1.000000
    3        2.584053   1.000000
    4        2.584053   1.000000
    5        5.672335   0.000000
    6        8.574505   0.000000
    7        8.574505   0.000000
    8       12.384424   0.000000
 
  0.4545455E-01  0.4545455E-01  0.0000000E+00  0.5634861E-03
    1       -9.559580   1.000000
    2        3.745479   1.000000
    3        3.908689   1.000000
    4        3.908690   1.000000
    5        6.573752   0.000000
    6        7.075759   0.000000
    7        7.304537   0.000000
    8        7.304537   0.000000
 
  0.9090909E-01  0.4545455E-01  0.0000000E+00  0.2253944E-02
    1       -9.494903   1.000000
    2        3.125439   1.000000
    3        3.727534   1.000000
    4        3.837842   1.000000
    5        6.686546   0.000000
    6        7.127677   0.000000
    7        7.541475   0.000000
    8        7.727077   0.000000
 
  0.1363636E+00  0.4545455E-01  0.0000000E+00  0.2253944E-02
    1       -9.375800   1.000000
    2        2.266098   1.000000
    3        3.510028   1.000000
    4        3.707123   1.000000
    5        6.652961   0.000000
    6        7.281501   0.000000
    7        7.835817   0.000000
    8        8.428307   0.000000
 
  0.1818182E+00  0.4545455E-01  0.0000000E+00  0.2253944E-02
    1       -9.204140   1.000000
    2        1.349754   1.000000
    3        3.286395   1.000000
    4        3.515945   1.000000
    5        6.541241   0.000000
    6        7.529377   0.000000
    7        8.137757   0.000000
    8        9.175711   0.000000
 
  0.2272727E+00  0.4545455E-01  0.0000000E+00  0.2253944E-02
    1       -8.983302   1.000000
    2        0.435789   1.000000
    3        3.076488   1.000000
    4        3.299982   1.000000
    5        6.402066   0.000000
    6        7.804607   0.000000
    7        8.403685   0.000000
    8        9.896066   0.000000
 
  0.2727273E+00  0.4545455E-01  0.0000000E+00  0.2253944E-02
    1       -8.718785   1.000000
    2       -0.444205   1.000000
    3        2.892498   1.000000
    4        3.084341   1.000000
    5        6.261976   0.000000
    6        8.050535   0.000000
    7        8.601763   0.000000
    8       10.566673   0.000000
 
  0.3181818E+00  0.4545455E-01  0.0000000E+00  0.2253944E-02
    1       -8.419902   1.000000
    2       -1.266573   1.000000
    3        2.741700   1.000000
    4        2.884503   1.000000
    5        6.134768   0.000000
    6        8.235892   0.000000
    7        8.719195   0.000000
    8       11.173392   0.000000
 
  0.3636364E+00  0.4545455E-01  0.0000000E+00  0.2253944E-02
    1       -8.102511   1.000000
    2       -2.006605   1.000000
    3        2.628299   1.000000
    4        2.709838   1.000000
    5        6.028163   0.000000
    6        8.357478   0.000000
    7        8.764159   0.000000
    8       11.689004   0.000000
 
  0.4090909E+00  0.4545455E-01  0.0000000E+00  0.2253944E-02
    1       -7.794140   1.000000
    2       -2.631169   1.000000
    3        2.554536   1.000000
    4        2.566188   1.000000
    5        5.946528   0.000000
    6        8.432170   0.000000
    7        8.758042   0.000000
    8       12.069850   0.000000
 
  0.4545455E+00  0.4545455E-01  0.0000000E+00  0.2253944E-02
    1       -7.540460   1.000000
    2       -3.091030   1.000000
    3        2.457346   1.000000
    4        2.521296   1.000000
    5        5.892251   0.000000
    6        8.482514   0.000000
    7        8.724084   0.000000
    8       12.293231   0.000000
 
  0.5000000E+00  0.4545455E-01  0.0000000E+00  0.2253944E-02
    1       -7.403926   1.000000
    2       -3.321629   1.000000
    3        2.385873   1.000000
    4        2.528564   1.000000
    5        5.866565   0.000000
    6        8.526139   0.000000
    7        8.679725   0.000000
    8       12.384700   0.000000
 
 -0.4545455E+00  0.4545455E-01  0.0000000E+00  0.2253944E-02
    1       -7.432649   1.000000
    2       -3.273982   1.000000
    3        2.353574   1.000000
    4        2.575603   1.000000
    5        5.869951   0.000000
    6        8.571464   0.000000
    7        8.633467   0.000000
    8       12.374819   0.000000
 
 -0.4090909E+00  0.4545455E-01  0.0000000E+00  0.2253944E-02
    1       -7.615437   1.000000
    2       -2.959425   1.000000
    3        2.361639   1.000000
    4        2.661001   1.000000
    5        5.902301   0.000000
    6        8.584169   0.000000
    7        8.616560   0.000000
    8       12.256247   0.000000
 
 -0.3636364E+00  0.4545455E-01  0.0000000E+00  0.2253944E-02
    1       -7.893768   1.000000
    2       -2.437842   1.000000
    3        2.410666   1.000000
    4        2.782656   1.000000
    5        5.962918   0.000000
    6        8.521456   0.000000
    7        8.649025   0.000000
    8       11.989958   0.000000
 
 -0.3181818E+00  0.4545455E-01  0.0000000E+00  0.2253944E-02
    1       -8.209190   1.000000
    2       -1.770219   1.000000
    3        2.500610   1.000000
    4        2.937476   1.000000
    5        6.050235   0.000000
    6        8.427791   0.000000
    7        8.646613   0.000000
    8       11.558597   0.000000
 
 -0.2727273E+00  0.4545455E-01  0.0000000E+00  0.2253944E-02
    1       -8.522758   1.000000
    2       -0.999830   1.000000
    3        2.630527   1.000000
    4        3.120860   1.000000
    5        6.161364   0.000000
    6        8.284436   0.000000
    7        8.581191   0.000000
    8       10.999146   0.000000
 
 -0.2272727E+00  0.4545455E-01  0.0000000E+00  0.2253944E-02
    1       -8.811506   1.000000
    2       -0.156367   1.000000
    3        2.798202   1.000000
    4        3.325716   1.000000
    5        6.291027   0.000000
    6        8.081949   0.000000
    7        8.429203   0.000000
    8       10.362013   0.000000
 
 -0.1818182E+00  0.4545455E-01  0.0000000E+00  0.2253944E-02
    1       -9.062244   1.000000
    2        0.735895   1.000000
    3        2.999621   1.000000
    4        3.540742   1.000000
    5        6.429878   0.000000
    6        7.830633   0.000000
    7        8.186805   0.000000
    8        9.677313   0.000000
 
 -0.1363636E+00  0.4545455E-01  0.0000000E+00  0.2253944E-02
    1       -9.267136   1.000000
    2        1.649866   1.000000
    3        3.228448   1.000000
    4        3.747844   1.000000
    5        6.560479   0.000000
    6        7.563234   0.000000
    7        7.878343   0.000000
    8        8.962202   0.000000
 
 -0.9090909E-01  0.4545455E-01  0.0000000E+00  0.2253944E-02
    1       -9.421533   1.000000
    2        2.540680   1.000000
    3        3.476966   1.000000
    4        3.919184   1.000000
    5        6.646201   0.000000
    6        7.329402   0.000000
    7        7.555321   0.000000
    8        8.248642   0.000000
 
 -0.4545455E-01  0.4545455E-01  0.0000000E+00  0.1126972E-02
    1       -9.522620   1.000000
    2        3.297674   1.000000
    3        3.749969   1.000000
    4        4.018512   1.000000
    5        6.609423   0.000000
    6        7.185395   0.000000
    7        7.306501   0.000000
    8        7.625850   0.000000
 
  0.9090909E-01  0.9090909E-01  0.0000000E+00  0.5634861E-03
    1       -9.448693   1.000000
    2        3.041798   1.000000
    3        3.521856   1.000000
    4        3.521856   1.000000
    5        6.691576   0.000000
    6        7.340340   0.000000
    7        7.812397   0.000000
    8        7.812397   0.000000
 
  0.1363636E+00  0.9090909E-01  0.0000000E+00  0.2253944E-02
    1       -9.347823   1.000000
    2        2.403957   1.000000
    3        3.290422   1.000000
    4        3.388079   1.000000
    5        6.671463   0.000000
    6        7.421104   0.000000
    7        8.134025   0.000000
    8        8.353802   0.000000
 
  0.1818182E+00  0.9090909E-01  0.0000000E+00  0.2253944E-02
    1       -9.193849   1.000000
    2        1.569890   1.000000
    3        3.060372   1.000000
    4        3.239707   1.000000
    5        6.735108   0.000000
    6        7.420789   0.000000
    7        8.460402   0.000000
    8        9.028129   0.000000
 
  0.2272727E+00  0.9090909E-01  0.0000000E+00  0.2253944E-02
    1       -8.989622   1.000000
    2        0.694829   1.000000
    3        2.849531   1.000000
    4        3.036637   1.000000
    5        6.753458   0.000000
    6        7.535202   0.000000
    7        8.749445   0.000000
    8        9.647873   0.000000
 
  0.2727273E+00  0.9090909E-01  0.0000000E+00  0.2253944E-02
    1       -8.739808   1.000000
    2       -0.169774   1.000000
    3        2.669006   1.000000
    4        2.808925   1.000000
    5        6.683274   0.000000
    6        7.759590   0.000000
    7        8.967366   0.000000
    8       10.185565   0.000000
 
  0.3181818E+00  0.9090909E-01  0.0000000E+00  0.2253944E-02
    1       -8.452276   1.000000
    2       -0.993108   1.000000
    3        2.525568   1.000000
    4        2.581541   1.000000
    5        6.578560   0.000000
    6        7.990818   0.000000
    7        9.096726   0.000000
    8       10.672559   0.000000
 
  0.3636364E+00  0.9090909E-01  0.0000000E+00  0.2253944E-02
    1       -8.140260   1.000000
    2       -1.748545   1.000000
    3        2.370269   1.000000
    4        2.423118   1.000000
    5        6.475056   0.000000
    6        8.169402   0.000000
    7        9.141327   0.000000
    8       11.151362   0.000000
 
  0.4090909E+00  0.9090909E-01  0.0000000E+00  0.2253944E-02
    1       -7.826712   1.000000
    2       -2.404943   1.000000
    3        2.184901   1.000000
    4        2.363675   1.000000
    5        6.388265   0.000000
    6        8.290067   0.000000
    7        9.121112   0.000000
    8       11.620764   0.000000
 
  0.4545455E+00  0.9090909E-01  0.0000000E+00  0.2253944E-02
    1       -7.550471   1.000000
    2       -2.918226   1.000000
    3        2.031808   1.000000
    4        2.347857   1.000000
    5        6.325233   0.000000
    6        8.374740   0.000000
    7        9.060828   0.000000
    8       12.024561   0.000000
 
  0.5000000E+00  0.9090909E-01  0.0000000E+00  0.2253944E-02
    1       -7.369533   1.000000
    2       -3.227338   1.000000
    3        1.915439   1.000000
    4        2.375226   1.000000
    5        6.289250   0.000000
    6        8.447595   0.000000
    7        8.980872   0.000000
    8       12.289495   0.000000
 
 -0.4545455E+00  0.9090909E-01  0.0000000E+00  0.2253944E-02
    1       -7.341650   1.000000
    2       -3.272966   1.000000
    3        1.839094   1.000000
    4        2.444444   1.000000
    5        6.281601   0.000000
    6        8.523676   0.000000
    7        8.893078   0.000000
    8       12.373037   0.000000
 
 -0.4090909E+00  0.9090909E-01  0.0000000E+00  0.2253944E-02
    1       -7.477601   1.000000
    2       -3.044221   1.000000
    3        1.805325   1.000000
    4        2.553270   1.000000
    5        6.302305   0.000000
    6        8.606402   0.000000
    7        8.799630   0.000000
    8       12.262027   0.000000
 
 -0.3636364E+00  0.9090909E-01  0.0000000E+00  0.2253944E-02
    1       -7.729725   1.000000
    2       -2.590003   1.000000
    3        1.816179   1.000000
    4        2.698472   1.000000
    5        6.350385   0.000000
    6        8.686976   0.000000
    7        8.693475   0.000000
    8       11.958792   0.000000
 
 -0.3181818E+00  0.9090909E-01  0.0000000E+00  0.2253944E-02
    1       -8.036239   1.000000
    2       -1.975054   1.000000
    3        1.873324   1.000000
    4        2.875497   1.000000
    5        6.423690   0.000000
    6        8.560376   0.000000
    7        8.742622   0.000000
    8       11.505501   0.000000
 
 -0.2727273E+00  0.9090909E-01  0.0000000E+00  0.2253944E-02
    1       -8.351842   1.000000
    2       -1.249948   1.000000
    3        1.978278   1.000000
    4        3.077841   1.000000
    5        6.518322   0.000000
    6        8.384710   0.000000
    7        8.735368   0.000000
    8       10.978365   0.000000
 
 -0.2272727E+00  0.9090909E-01  0.0000000E+00  0.2253944E-02
    1       -8.649166   1.000000
    2       -0.451244   1.000000
    3        2.132978   1.000000
    4        3.295938   1.000000
    5        6.627055   0.000000
    6        8.159939   0.000000
    7        8.619499   0.000000
    8       10.443497   0.000000
 
 -0.1818182E+00  0.9090909E-01  0.0000000E+00  0.2253944E-02
    1       -8.912372   1.000000
    2        0.388373   1.000000
    3        2.341599   1.000000
    4        3.515231   1.000000
    5        6.735872   0.000000
    6        7.899296   0.000000
    7        8.373262   0.000000
    8        9.923270   0.000000
 
 -0.1363636E+00  0.9090909E-01  0.0000000E+00  0.2253944E-02
    1       -9.132168   1.000000
    2        1.225264   1.000000
    3        2.616263   1.000000
    4        3.713607   1.000000
    5        6.814649   0.000000
    6        7.638808   0.000000
    7        8.040828   0.000000
    8        9.391021   0.000000
 
 -0.9090909E-01  0.9090909E-01  0.0000000E+00  0.1126972E-02
    1       -9.303005   1.000000
    2        1.978919   1.000000
    3        2.989747   1.000000
    4        3.859867   1.000000
    5        6.799590   0.000000
    6        7.430744   0.000000
    7        7.735630   0.000000
    8        8.820152   0.000000
 
  0.1363636E+00  0.1363636E+00  0.0000000E+00  0.5634861E-03
    1       -9.265230   1.000000
    2        2.215159   1.000000
    3        3.049756   1.000000
    4        3.049756   1.000000
    5        6.463300   0.000000
    6        7.851199   0.000000
    7        8.483163   0.000000
    8        8.483163   0.000000
 
  0.1818182E+00  0.1363636E+00  0.0000000E+00  0.2253944E-02
    1       -9.129292   1.000000
    2        1.617939   1.000000
    3        2.813718   1.000000
    4        2.862480   1.000000
    5        6.422403   0.000000
    6        7.900705   0.000000
    7        8.839674   0.000000
    8        8.990145   0.000000
 
  0.2272727E+00  0.1363636E+00  0.0000000E+00  0.2253944E-02
    1       -8.942380   1.000000
    2        0.853095   1.000000
    3        2.599406   1.000000
    4        2.668787   1.000000
    5        6.529877   0.000000
    6        7.857292   0.000000
    7        9.162126   0.000000
    8        9.497732   0.000000
 
  0.2727273E+00  0.1363636E+00  0.0000000E+00  0.2253944E-02
    1       -8.708505   1.000000
    2        0.047367   1.000000
    3        2.417730   1.000000
    4        2.433358   1.000000
    5        6.671555   0.000000
    6        7.880778   0.000000
    7        9.414278   0.000000
    8        9.870901   0.000000
 
  0.3181818E+00  0.1363636E+00  0.0000000E+00  0.2253944E-02
    1       -8.434358   1.000000
    2       -0.746650   1.000000
    3        2.180532   1.000000
    4        2.275465   1.000000
    5        6.741352   0.000000
    6        8.015586   0.000000
    7        9.572879   0.000000
    8       10.163491   0.000000
 
  0.3636364E+00  0.1363636E+00  0.0000000E+00  0.2253944E-02
    1       -8.131092   1.000000
    2       -1.494465   1.000000
    3        1.933377   1.000000
    4        2.176632   1.000000
    5        6.731913   0.000000
    6        8.200260   0.000000
    7        9.635308   0.000000
    8       10.489853   0.000000
 
  0.4090909E+00  0.1363636E+00  0.0000000E+00  0.2253944E-02
    1       -7.817879   1.000000
    2       -2.163244   1.000000
    3        1.707061   1.000000
    4        2.123358   1.000000
    5        6.690615   0.000000
    6        8.352151   0.000000
    7        9.618007   0.000000
    8       10.917887   0.000000
 
  0.4545455E+00  0.1363636E+00  0.0000000E+00  0.2253944E-02
    1       -7.527416   1.000000
    2       -2.711825   1.000000
    3        1.511258   1.000000
    4        2.116336   1.000000
    5        6.651491   0.000000
    6        8.454277   0.000000
    7        9.546017   0.000000
    8       11.422588   0.000000
 
  0.5000000E+00  0.1363636E+00  0.0000000E+00  0.2253944E-02
    1       -7.311302   1.000000
    2       -3.083575   1.000000
    3        1.352535   1.000000
    4        2.155082   1.000000
    5        6.630484   0.000000
    6        8.530718   0.000000
    7        9.442178   0.000000
    8       11.905128   0.000000
 
 -0.4545455E+00  0.1363636E+00  0.0000000E+00  0.2253944E-02
    1       -7.230494   1.000000
    2       -3.214821   1.000000
    3        1.235789   1.000000
    4        2.238047   1.000000
    5        6.633727   0.000000
    6        8.606412   0.000000
    7        9.321278   0.000000
    8       12.217146   0.000000
 
 -0.4090909E+00  0.1363636E+00  0.0000000E+00  0.2253944E-02
    1       -7.314938   1.000000
    2       -3.075077   1.000000
    3        1.165008   1.000000
    4        2.362557   1.000000
    5        6.662318   0.000000
    6        8.694100   0.000000
    7        9.188356   0.000000
    8       12.218773   0.000000
 
 -0.3636364E+00  0.1363636E+00  0.0000000E+00  0.2253944E-02
    1       -7.533271   1.000000
    2       -2.697108   1.000000
    3        1.143914   1.000000
    4        2.524670   1.000000
    5        6.714450   0.000000
    6        8.792962   0.000000
    7        9.039004   0.000000
    8       11.906103   0.000000
 
 -0.3181818E+00  0.1363636E+00  0.0000000E+00  0.2253944E-02
    1       -7.824465   1.000000
    2       -2.146161   1.000000
    3        1.176594   1.000000
    4        2.718719   1.000000
    5        6.786005   0.000000
    6        8.861782   0.000000
    7        8.885785   0.000000
    8       11.407605   0.000000
 
 -0.2727273E+00  0.1363636E+00  0.0000000E+00  0.2253944E-02
    1       -8.137472   1.000000
    2       -1.481655   1.000000
    3        1.268784   1.000000
    4        2.936542   1.000000
    5        6.869793   0.000000
    6        8.644475   0.000000
    7        8.930546   0.000000
    8       10.864262   0.000000
 
 -0.2272727E+00  0.1363636E+00  0.0000000E+00  0.2253944E-02
    1       -8.440062   1.000000
    2       -0.752232   1.000000
    3        1.430835   1.000000
    4        3.166312   1.000000
    5        6.952736   0.000000
    6        8.385013   0.000000
    7        8.853839   0.000000
    8       10.393364   0.000000
 
 -0.1818182E+00  0.1363636E+00  0.0000000E+00  0.2253944E-02
    1       -8.713322   1.000000
    2       -0.009691   1.000000
    3        1.684463   1.000000
    4        3.390532   1.000000
    5        7.008418   0.000000
    6        8.101750   0.000000
    7        8.606926   0.000000
    8       10.051502   0.000000
 
 -0.1363636E+00  0.1363636E+00  0.0000000E+00  0.1126972E-02
    1       -8.946235   1.000000
    2        0.673562   1.000000
    3        2.070765   1.000000
    4        3.583915   1.000000
    5        6.983274   0.000000
    6        7.835098   0.000000
    7        8.284047   0.000000
    8        9.755370   0.000000
 
  0.1818182E+00  0.1818182E+00  0.0000000E+00  0.5634861E-03
    1       -9.011429   1.000000
    2        1.351123   1.000000
    3        2.571907   1.000000
    4        2.571907   1.000000
    5        6.184377   0.000000
    6        8.160215   0.000000
    7        9.232976   0.000000
    8        9.232976   0.000000
 
  0.2272727E+00  0.1818182E+00  0.0000000E+00  0.2253944E-02
    1       -8.842254   1.000000
    2        0.801457   1.000000
    3        2.352243   1.000000
    4        2.352532   1.000000
    5        6.149779   0.000000
    6        8.142165   0.000000
    7        9.598994   0.000000
    8        9.630134   0.000000
 
  0.2727273E+00  0.1818182E+00  0.0000000E+00  0.2253944E-02
    1       -8.625259   1.000000
    2        0.123416   1.000000
    3        2.105122   1.000000
    4        2.165949   1.000000
    5        6.279416   0.000000
    6        8.099068   0.000000
    7        9.895972   0.000000
    8        9.898984   0.000000
 
  0.3181818E+00  0.1818182E+00  0.0000000E+00  0.2253944E-02
    1       -8.366172   1.000000
    2       -0.592031   1.000000
    3        1.822828   1.000000
    4        2.020162   1.000000
    5        6.458827   0.000000
    6        8.155975   0.000000
    7       10.015237   0.000000
    8       10.103603   0.000000
 
  0.3636364E+00  0.1818182E+00  0.0000000E+00  0.2253944E-02
    1       -8.074535   1.000000
    2       -1.294800   1.000000
    3        1.532820   1.000000
    4        1.919208   1.000000
    5        6.582978   0.000000
    6        8.353555   0.000000
    7       10.105263   0.000000
    8       10.202127   0.000000
 
  0.4090909E+00  0.1818182E+00  0.0000000E+00  0.2253944E-02
    1       -7.766502   1.000000
    2       -1.945869   1.000000
    3        1.258015   1.000000
    4        1.865511   1.000000
    5        6.634085   0.000000
    6        8.613174   0.000000
    7       10.205253   0.000000
    8       10.300007   0.000000
 
  0.4545455E+00  0.1818182E+00  0.0000000E+00  0.2253944E-02
    1       -7.469599   1.000000
    2       -2.503667   1.000000
    3        1.013116   1.000000
    4        1.859971   1.000000
    5        6.652442   0.000000
    6        8.809575   0.000000
    7       10.136621   0.000000
    8       10.688404   0.000000
 
  0.5000000E+00  0.1818182E+00  0.0000000E+00  0.2253944E-02
    1       -7.228547   1.000000
    2       -2.914842   1.000000
    3        0.807577   1.000000
    4        1.902260   1.000000
    5        6.673000   0.000000
    6        8.917310   0.000000
    7       10.020838   0.000000
    8       11.230371   0.000000
 
 -0.4545455E+00  0.1818182E+00  0.0000000E+00  0.2253944E-02
    1       -7.102477   1.000000
    2       -3.115514   1.000000
    3        0.648156   1.000000
    4        1.990874   1.000000
    5        6.712546   0.000000
    6        8.984241   0.000000
    7        9.875397   0.000000
    8       11.769883   0.000000
 
 -0.4090909E+00  0.1818182E+00  0.0000000E+00  0.2253944E-02
    1       -7.134687   1.000000
    2       -3.060987   1.000000
    3        0.540580   1.000000
    4        2.123045   1.000000
    5        6.775771   0.000000
    6        9.049576   0.000000
    7        9.707733   0.000000
    8       12.044659   0.000000
 
 -0.3636364E+00  0.1818182E+00  0.0000000E+00  0.2253944E-02
    1       -7.312795   1.000000
    2       -2.765757   1.000000
    3        0.490924   1.000000
    4        2.294517   1.000000
    5        6.860055   0.000000
    6        9.130157   0.000000
    7        9.515364   0.000000
    8       11.835633   0.000000
 
 -0.3181818E+00  0.1818182E+00  0.0000000E+00  0.2253944E-02
    1       -7.581635   1.000000
    2       -2.292019   1.000000
    3        0.507395   1.000000
    4        2.499011   1.000000
    5        6.957414   0.000000
    6        9.223353   0.000000
    7        9.288976   0.000000
    8       11.313093   0.000000
 
 -0.2727273E+00  0.1818182E+00  0.0000000E+00  0.2253944E-02
    1       -7.886388   1.000000
    2       -1.710079   1.000000
    3        0.603805   1.000000
    4        2.727397   1.000000
    5        7.054012   0.000000
    6        9.019960   0.000000
    7        9.295925   0.000000
    8       10.725329   0.000000
 
 -0.2272727E+00  0.1818182E+00  0.0000000E+00  0.2253944E-02
    1       -8.189870   1.000000
    2       -1.088121   1.000000
    3        0.806057   1.000000
    4        2.966317   1.000000
    5        7.126314   0.000000
    6        8.712167   0.000000
    7        9.240035   0.000000
    8       10.273524   0.000000
 
 -0.1818182E+00  0.1818182E+00  0.0000000E+00  0.1126972E-02
    1       -8.469890   1.000000
    2       -0.500869   1.000000
    3        1.156523   1.000000
    4        3.196411   1.000000
    5        7.132127   0.000000
    6        8.390955   0.000000
    7        8.947989   0.000000
    8       10.104863   0.000000
 
  0.2272727E+00  0.2272727E+00  0.0000000E+00  0.5634861E-03
    1       -8.690934   1.000000
    2        0.481165   1.000000
    3        2.126113   1.000000
    4        2.126113   1.000000
    5        5.918767   0.000000
    6        8.108966   0.000000
    7       10.018254   0.000000
    8       10.018254   0.000000
 
  0.2727273E+00  0.2272727E+00  0.0000000E+00  0.2253944E-02
    1       -8.491442   1.000000
    2       -0.024691   1.000000
    3        1.893810   1.000000
    4        1.932933   1.000000
    5        5.903648   0.000000
    6        7.984207   0.000000
    7       10.331080   0.000000
    8       10.378957   0.000000
 
  0.3181818E+00  0.2272727E+00  0.0000000E+00  0.2253944E-02
    1       -8.248793   1.000000
    2       -0.614480   1.000000
    3        1.599739   1.000000
    4        1.780398   1.000000
    5        6.054676   0.000000
    6        7.929952   0.000000
    7       10.444517   0.000000
    8       10.645829   0.000000
 
  0.3636364E+00  0.2272727E+00  0.0000000E+00  0.2253944E-02
    1       -7.971306   1.000000
    2       -1.226793   1.000000
    3        1.266569   1.000000
    4        1.673326   1.000000
    5        6.247276   0.000000
    6        8.048106   0.000000
    7       10.435546   0.000000
    8       10.798963   0.000000
 
  0.4090909E+00  0.2272727E+00  0.0000000E+00  0.2253944E-02
    1       -7.672827   1.000000
    2       -1.818684   1.000000
    3        0.932556   1.000000
    4        1.614466   1.000000
    5        6.380003   0.000000
    6        8.380993   0.000000
    7       10.404908   0.000000
    8       10.840595   0.000000
 
  0.4545455E+00  0.2272727E+00  0.0000000E+00  0.2253944E-02
    1       -7.376765   1.000000
    2       -2.348311   1.000000
    3        0.624963   1.000000
    4        1.605044   1.000000
    5        6.451296   0.000000
    6        8.847660   0.000000
    7       10.442107   0.000000
    8       10.790710   0.000000
 
  0.5000000E+00  0.2272727E+00  0.0000000E+00  0.2253944E-02
    1       -7.121505   1.000000
    2       -2.765140   1.000000
    3        0.360241   1.000000
    4        1.644962   1.000000
    5        6.505771   0.000000
    6        9.266717   0.000000
    7       10.667356   0.000000
    8       10.674515   0.000000
 