 running on   48 total cores
 distrk:  each k-point on   12 cores,    4 groups
 distr:  one band on   12 cores,    1 groups
 using from now: INCAR     
 vasp.5.4.4.18Apr17-6-g9f103f2a35 (build Nov 04 2020 14:40:39) complex          
  
 POSCAR found type information on POSCAR  B  As
 POSCAR found :  2 types and       2 ions
 scaLAPACK will be used

 ----------------------------------------------------------------------------- 
|                                                                             |
|           W    W    AA    RRRRR   N    N  II  N    N   GGGG   !!!           |
|           W    W   A  A   R    R  NN   N  II  NN   N  G    G  !!!           |
|           W    W  A    A  R    R  N N  N  II  N N  N  G       !!!           |
|           W WW W  AAAAAA  RRRRR   N  N N  II  N  N N  G  GGG   !            |
|           WW  WW  A    A  R   R   N   NN  II  N   NN  G    G                |
|           W    W  A    A  R    R  N    N  II  N    N   GGGG   !!!           |
|                                                                             |
|      You have enabled k-point parallelism (KPAR>1).                         |
|      This developmental code was originally  written by Paul Kent at ORNL,  |
|      and carefully double checked in Vienna.                                |
|      GW as well as linear response parallelism added by Martijn Marsman     |
|      and Georg Kresse.                                                      |
|      Carefully verify results versus KPAR=1.                                |
|      Report problems to Paul Kent and Vienna.                               |
|                                                                             |
 ----------------------------------------------------------------------------- 

 LDA part: xc-table for Pade appr. of Perdew
 POSCAR found type information on POSCAR  B  As
 POSCAR found :  2 types and       2 ions
 generate k-points for:   22   22   22
 POSCAR, INCAR and KPOINTS ok, starting setup
 FFT: planning ...
 WAVECAR not read
 entering main loop
       N       E                     dE             d eps       ncg     rms          rms(c)
DAV:   1     0.956951001166E+01    0.95695E+01   -0.36911E+03  5264   0.845E+02
DAV:   2    -0.110621264459E+02   -0.20632E+02   -0.20266E+02  8480   0.981E+01
DAV:   3    -0.113698379185E+02   -0.30771E+00   -0.30771E+00  6104   0.142E+01
DAV:   4    -0.113703213743E+02   -0.48346E-03   -0.48346E-03  7824   0.609E-01
DAV:   5    -0.113703215855E+02   -0.21123E-06   -0.21123E-06  5992   0.931E-03    0.305E+00
RMM:   6    -0.110703459492E+02    0.29998E+00   -0.34559E-01  5299   0.356E+00    0.141E+00
RMM:   7    -0.110457283334E+02    0.24618E-01   -0.41567E-02  5630   0.132E+00    0.696E-01
RMM:   8    -0.110421623729E+02    0.35660E-02   -0.16237E-02  5491   0.100E+00    0.790E-02
RMM:   9    -0.110426819586E+02   -0.51959E-03   -0.16982E-03  5747   0.277E-01    0.664E-02
RMM:  10    -0.110424685564E+02    0.21340E-03   -0.15397E-04  5675   0.831E-02    0.186E-02
RMM:  11    -0.110424705682E+02   -0.20118E-05   -0.10084E-04  5650   0.596E-02    0.122E-02
RMM:  12    -0.110424616250E+02    0.89431E-05   -0.85169E-06  5609   0.197E-02    0.108E-03
RMM:  13    -0.110424616375E+02   -0.12449E-07   -0.27813E-07  3871   0.385E-03
   1 F= -.11042462E+02 E0= -.11042462E+02  d E =0.000000E+00
