   3   3   0   0
  0.2311589E+02  0.4611572E-09  0.4611572E-09  0.4611572E-09  0.5000000E-15
  1.000000000000000E-004
  CAR
 unknown system
     12.19669338    -26.14833757  301      8.00404160      1.00000000
    -26.148  0.0000E+00  0.0000E+00
    -26.021  0.0000E+00  0.0000E+00
    -25.893  0.0000E+00  0.0000E+00
    -25.765  0.0000E+00  0.0000E+00
    -25.637  0.0000E+00  0.0000E+00
    -25.509  0.0000E+00  0.0000E+00
    -25.381  0.0000E+00  0.0000E+00
    -25.254  0.0000E+00  0.0000E+00
    -25.126  0.0000E+00  0.0000E+00
    -24.998  0.0000E+00  0.0000E+00
    -24.870  0.0000E+00  0.0000E+00
    -24.742  0.0000E+00  0.0000E+00
    -24.615  0.0000E+00  0.0000E+00
    -24.487  0.0000E+00  0.0000E+00
    -24.359  0.4694E+02  0.6000E+01
    -24.231  0.0000E+00  0.6000E+01
    -24.103  0.0000E+00  0.6000E+01
    -23.975  0.0000E+00  0.6000E+01
    -23.848  0.0000E+00  0.6000E+01
    -23.720  0.0000E+00  0.6000E+01
    -23.592  0.0000E+00  0.6000E+01
    -23.464  0.0000E+00  0.6000E+01
    -23.336  0.0000E+00  0.6000E+01
    -23.209  0.0000E+00  0.6000E+01
    -23.081  0.0000E+00  0.6000E+01
    -22.953  0.0000E+00  0.6000E+01
    -22.825  0.0000E+00  0.6000E+01
    -22.697  0.0000E+00  0.6000E+01
    -22.569  0.0000E+00  0.6000E+01
    -22.442  0.0000E+00  0.6000E+01
    -22.314  0.0000E+00  0.6000E+01
    -22.186  0.0000E+00  0.6000E+01
    -22.058  0.0000E+00  0.6000E+01
    -21.930  0.0000E+00  0.6000E+01
    -21.803  0.0000E+00  0.6000E+01
    -21.675  0.0000E+00  0.6000E+01
    -21.547  0.0000E+00  0.6000E+01
    -21.419  0.0000E+00  0.6000E+01
    -21.291  0.0000E+00  0.6000E+01
    -21.163  0.0000E+00  0.6000E+01
    -21.036  0.0000E+00  0.6000E+01
    -20.908  0.0000E+00  0.6000E+01
    -20.780  0.0000E+00  0.6000E+01
    -20.652  0.0000E+00  0.6000E+01
    -20.524  0.0000E+00  0.6000E+01
    -20.397  0.0000E+00  0.6000E+01
    -20.269  0.0000E+00  0.6000E+01
    -20.141  0.0000E+00  0.6000E+01
    -20.013  0.0000E+00  0.6000E+01
    -19.885  0.0000E+00  0.6000E+01
    -19.757  0.0000E+00  0.6000E+01
    -19.630  0.0000E+00  0.6000E+01
    -19.502  0.0000E+00  0.6000E+01
    -19.374  0.0000E+00  0.6000E+01
    -19.246  0.0000E+00  0.6000E+01
    -19.118  0.0000E+00  0.6000E+01
    -18.991  0.0000E+00  0.6000E+01
    -18.863  0.0000E+00  0.6000E+01
    -18.735  0.0000E+00  0.6000E+01
    -18.607  0.0000E+00  0.6000E+01
    -18.479  0.0000E+00  0.6000E+01
    -18.352  0.0000E+00  0.6000E+01
    -18.224  0.0000E+00  0.6000E+01
    -18.096  0.0000E+00  0.6000E+01
    -17.968  0.0000E+00  0.6000E+01
    -17.840  0.0000E+00  0.6000E+01
    -17.712  0.0000E+00  0.6000E+01
    -17.585  0.0000E+00  0.6000E+01
    -17.457  0.0000E+00  0.6000E+01
    -17.329  0.0000E+00  0.6000E+01
    -17.201  0.0000E+00  0.6000E+01
    -17.073  0.0000E+00  0.6000E+01
    -16.946  0.0000E+00  0.6000E+01
    -16.818  0.0000E+00  0.6000E+01
    -16.690  0.0000E+00  0.6000E+01
    -16.562  0.0000E+00  0.6000E+01
    -16.434  0.0000E+00  0.6000E+01
    -16.306  0.0000E+00  0.6000E+01
    -16.179  0.0000E+00  0.6000E+01
    -16.051  0.0000E+00  0.6000E+01
    -15.923  0.0000E+00  0.6000E+01
    -15.795  0.0000E+00  0.6000E+01
    -15.667  0.0000E+00  0.6000E+01
    -15.540  0.0000E+00  0.6000E+01
    -15.412  0.0000E+00  0.6000E+01
    -15.284  0.0000E+00  0.6000E+01
    -15.156  0.0000E+00  0.6000E+01
    -15.028  0.0000E+00  0.6000E+01
    -14.900  0.0000E+00  0.6000E+01
    -14.773  0.0000E+00  0.6000E+01
    -14.645  0.0000E+00  0.6000E+01
    -14.517  0.0000E+00  0.6000E+01
    -14.389  0.0000E+00  0.6000E+01
    -14.261  0.0000E+00  0.6000E+01
    -14.134  0.0000E+00  0.6000E+01
    -14.006  0.0000E+00  0.6000E+01
    -13.878  0.0000E+00  0.6000E+01
    -13.750  0.0000E+00  0.6000E+01
    -13.622  0.0000E+00  0.6000E+01
    -13.494  0.0000E+00  0.6000E+01
    -13.367  0.0000E+00  0.6000E+01
    -13.239  0.0000E+00  0.6000E+01
    -13.111  0.0000E+00  0.6000E+01
    -12.983  0.0000E+00  0.6000E+01
    -12.855  0.0000E+00  0.6000E+01
    -12.728  0.0000E+00  0.6000E+01
    -12.600  0.0000E+00  0.6000E+01
    -12.472  0.0000E+00  0.6000E+01
    -12.344  0.0000E+00  0.6000E+01
    -12.216  0.0000E+00  0.6000E+01
    -12.088  0.0000E+00  0.6000E+01
    -11.961  0.0000E+00  0.6000E+01
    -11.833  0.0000E+00  0.6000E+01
    -11.705  0.0000E+00  0.6000E+01
    -11.577  0.0000E+00  0.6000E+01
    -11.449  0.0000E+00  0.6000E+01
    -11.322  0.0000E+00  0.6000E+01
    -11.194  0.0000E+00  0.6000E+01
    -11.066  0.0000E+00  0.6000E+01
    -10.938  0.0000E+00  0.6000E+01
    -10.810  0.0000E+00  0.6000E+01
    -10.683  0.0000E+00  0.6000E+01
    -10.555  0.0000E+00  0.6000E+01
    -10.427  0.0000E+00  0.6000E+01
    -10.299  0.0000E+00  0.6000E+01
    -10.171  0.0000E+00  0.6000E+01
    -10.043  0.0000E+00  0.6000E+01
     -9.916  0.0000E+00  0.6000E+01
     -9.788  0.0000E+00  0.6000E+01
     -9.660  0.0000E+00  0.6000E+01
     -9.532  0.0000E+00  0.6000E+01
     -9.404  0.0000E+00  0.6000E+01
     -9.277  0.0000E+00  0.6000E+01
     -9.149  0.0000E+00  0.6000E+01
     -9.021  0.0000E+00  0.6000E+01
     -8.893  0.0000E+00  0.6000E+01
     -8.765  0.0000E+00  0.6000E+01
     -8.637  0.0000E+00  0.6000E+01
     -8.510  0.0000E+00  0.6000E+01
     -8.382  0.0000E+00  0.6000E+01
     -8.254  0.0000E+00  0.6000E+01
     -8.126  0.0000E+00  0.6000E+01
     -7.998  0.0000E+00  0.6000E+01
     -7.871  0.0000E+00  0.6000E+01
     -7.743  0.0000E+00  0.6000E+01
     -7.615  0.0000E+00  0.6000E+01
     -7.487  0.0000E+00  0.6000E+01
     -7.359  0.0000E+00  0.6000E+01
     -7.231  0.0000E+00  0.6000E+01
     -7.104  0.0000E+00  0.6000E+01
     -6.976  0.0000E+00  0.6000E+01
     -6.848  0.0000E+00  0.6000E+01
     -6.720  0.0000E+00  0.6000E+01
     -6.592  0.0000E+00  0.6000E+01
     -6.465  0.0000E+00  0.6000E+01
     -6.337  0.0000E+00  0.6000E+01
     -6.209  0.0000E+00  0.6000E+01
     -6.081  0.0000E+00  0.6000E+01
     -5.953  0.0000E+00  0.6000E+01
     -5.825  0.0000E+00  0.6000E+01
     -5.698  0.0000E+00  0.6000E+01
     -5.570  0.0000E+00  0.6000E+01
     -5.442  0.0000E+00  0.6000E+01
     -5.314  0.0000E+00  0.6000E+01
     -5.186  0.0000E+00  0.6000E+01
     -5.059  0.0000E+00  0.6000E+01
     -4.931  0.0000E+00  0.6000E+01
     -4.803  0.0000E+00  0.6000E+01
     -4.675  0.0000E+00  0.6000E+01
     -4.547  0.0000E+00  0.6000E+01
     -4.419  0.0000E+00  0.6000E+01
     -4.292  0.0000E+00  0.6000E+01
     -4.164  0.4662E-01  0.6006E+01
     -4.036  0.8651E-01  0.6025E+01
     -3.908  0.4269E-01  0.6059E+01
     -3.780  0.3339E+00  0.6124E+01
     -3.653  0.8126E-01  0.6164E+01
     -3.525  0.3419E+00  0.6258E+01
     -3.397  0.2976E+00  0.6339E+01
     -3.269  0.8647E+00  0.6485E+01
     -3.141  0.8326E+00  0.6595E+01
     -3.014  0.1327E+01  0.6851E+01
     -2.886  0.2539E+01  0.7230E+01
     -2.758  0.4320E+01  0.7951E+01
     -2.630  0.0000E+00  0.8000E+01
     -2.502  0.0000E+00  0.8000E+01
     -2.374  0.0000E+00  0.8000E+01
     -2.247  0.0000E+00  0.8000E+01
     -2.119  0.0000E+00  0.8000E+01
     -1.991  0.0000E+00  0.8000E+01
     -1.863  0.0000E+00  0.8000E+01
     -1.735  0.0000E+00  0.8000E+01
     -1.608  0.0000E+00  0.8000E+01
     -1.480  0.0000E+00  0.8000E+01
     -1.352  0.0000E+00  0.8000E+01
     -1.224  0.0000E+00  0.8000E+01
     -1.096  0.0000E+00  0.8000E+01
     -0.968  0.0000E+00  0.8000E+01
     -0.841  0.0000E+00  0.8000E+01
     -0.713  0.0000E+00  0.8000E+01
     -0.585  0.0000E+00  0.8000E+01
     -0.457  0.0000E+00  0.8000E+01
     -0.329  0.0000E+00  0.8000E+01
     -0.202  0.0000E+00  0.8000E+01
     -0.074  0.0000E+00  0.8000E+01
      0.054  0.0000E+00  0.8000E+01
      0.182  0.0000E+00  0.8000E+01
      0.310  0.0000E+00  0.8000E+01
      0.438  0.0000E+00  0.8000E+01
      0.565  0.0000E+00  0.8000E+01
      0.693  0.0000E+00  0.8000E+01
      0.821  0.2279E+00  0.8029E+01
      0.949  0.7467E+00  0.8146E+01
      1.077  0.2990E+01  0.8564E+01
      1.204  0.2598E+01  0.9122E+01
      1.332  0.1511E+01  0.9513E+01
      1.460  0.5272E+00  0.9728E+01
      1.588  0.3431E+00  0.9857E+01
      1.716  0.3006E-01  0.9872E+01
      1.844  0.4513E-05  0.9924E+01
      1.971  0.2388E-01  0.9949E+01
      2.099  0.6331E+00  0.1005E+02
      2.227  0.5040E+01  0.1081E+02
      2.355  0.4039E+01  0.1171E+02
      2.483  0.4381E+01  0.1251E+02
      2.610  0.2930E+01  0.1323E+02
      2.738  0.2031E+01  0.1358E+02
      2.866  0.1573E+01  0.1393E+02
      2.994  0.1515E+01  0.1420E+02
      3.122  0.2658E+01  0.1460E+02
      3.250  0.3117E+01  0.1512E+02
      3.377  0.5503E+01  0.1614E+02
      3.505  0.7023E+01  0.1744E+02
      3.633  0.4185E+01  0.1833E+02
      3.761  0.4306E+01  0.1913E+02
      3.889  0.1475E+01  0.1952E+02
      4.016  0.4579E+00  0.1963E+02
      4.144  0.2788E+00  0.1977E+02
      4.272  0.8136E+00  0.1998E+02
      4.400  0.7465E+00  0.2010E+02
      4.528  0.1190E+01  0.2043E+02
      4.656  0.5156E+00  0.2055E+02
      4.783  0.8867E+00  0.2071E+02
      4.911  0.1232E+01  0.2101E+02
      5.039  0.7274E+00  0.2113E+02
      5.167  0.7370E+00  0.2142E+02
      5.295  0.1401E+01  0.2172E+02
      5.422  0.2859E+01  0.2244E+02
      5.550  0.1696E+01  0.2276E+02
      5.678  0.1541E+01  0.2315E+02
      5.806  0.1464E+01  0.2349E+02
      5.934  0.5029E+00  0.2367E+02
      6.061  0.5128E+00  0.2380E+02
      6.189  0.4807E+00  0.2391E+02
      6.317  0.2782E+00  0.2396E+02
      6.445  0.1900E-01  0.2397E+02
      6.573  0.2144E-01  0.2400E+02
      6.701  0.0000E+00  0.2400E+02
      6.828  0.0000E+00  0.2400E+02
      6.956  0.8454E-07  0.2400E+02
      7.084  0.1202E-03  0.2401E+02
      7.212  0.5095E-11  0.2401E+02
      7.340  0.8547E-01  0.2403E+02
      7.467  0.2664E+00  0.2409E+02
      7.595  0.5623E+00  0.2421E+02
      7.723  0.1292E+01  0.2444E+02
      7.851  0.1569E+01  0.2467E+02
      7.979  0.1216E+01  0.2489E+02
      8.107  0.1743E+01  0.2537E+02
      8.234  0.2739E+01  0.2591E+02
      8.362  0.1180E+01  0.2621E+02
      8.490  0.1809E+01  0.2659E+02
      8.618  0.2002E+01  0.2703E+02
      8.746  0.5089E+01  0.2785E+02
      8.873  0.2523E+01  0.2852E+02
      9.001  0.2596E+01  0.2902E+02
      9.129  0.2508E+01  0.2967E+02
      9.257  0.9448E+00  0.2998E+02
      9.385  0.1018E+01  0.3028E+02
      9.513  0.1365E+01  0.3069E+02
      9.640  0.2323E+01  0.3115E+02
      9.768  0.2142E+01  0.3160E+02
      9.896  0.9059E+00  0.3182E+02
     10.024  0.4171E+00  0.3192E+02
     10.152  0.1709E+00  0.3199E+02
     10.279  0.0000E+00  0.3199E+02
     10.407  0.1404E-11  0.3199E+02
     10.535  0.0000E+00  0.3200E+02
     10.663  0.0000E+00  0.3200E+02
     10.791  0.0000E+00  0.3200E+02
     10.919  0.0000E+00  0.3200E+02
     11.046  0.0000E+00  0.3200E+02
     11.174  0.0000E+00  0.3200E+02
     11.302  0.0000E+00  0.3200E+02
     11.430  0.0000E+00  0.3200E+02
     11.558  0.0000E+00  0.3200E+02
     11.685  0.0000E+00  0.3200E+02
     11.813  0.0000E+00  0.3200E+02
     11.941  0.0000E+00  0.3200E+02
     12.069  0.0000E+00  0.3200E+02
     12.197  0.0000E+00  0.3200E+02
