    3    3    1    1
  0.2311589E+02  0.4611572E-09  0.4611572E-09  0.4611572E-09  0.5000000E-15
  1.000000000000000E-004
  CAR
 unknown system
     25     84     16

  0.0000000E+00  0.0000000E+00  0.0000000E+00  0.4551661E-03
    1      -24.392960   1.000000
    2      -24.392960   1.000000
    3      -24.392960   1.000000
    4       -4.225073   1.000000
    5        2.390016   1.000000
    6        2.390016   1.000000
    7        2.390016   1.000000
    8        3.197308   1.000000
    9        3.197308   1.000000
   10        6.526088   1.000000
   11        6.526088   1.000000
   12        6.526088   1.000000
   13        6.589140   1.000000
   14        8.799466   0.000000
   15        8.799466   0.000000
   16        8.799466   0.000000

  0.7692308E-01 -0.1412710E-17  0.2178281E-17  0.3641329E-02
    1      -24.393665   1.000000
    2      -24.392958   1.000000
    3      -24.392958   1.000000
    4       -4.167219   1.000000
    5        2.306724   1.000000
    6        2.369885   1.000000
    7        2.369885   1.000000
    8        3.229114   1.000000
    9        3.229114   1.000000
   10        5.875030   1.000000
   11        6.459712   1.000000
   12        6.459712   1.000000
   13        6.989249   1.000000
   14        8.648255   0.000000
   15        8.648255   0.000000
   16        9.124163   0.000000

  0.1538462E+00 -0.2528032E-17  0.4059174E-17  0.3641329E-02
    1      -24.395602   1.000000
    2      -24.392916   1.000000
    3      -24.392916   1.000000
    4       -3.999670   1.000000
    5        2.077887   1.000000
    6        2.326143   1.000000
    7        2.326143   1.000000
    8        3.301898   1.000000
    9        3.301898   1.000000
   10        5.095954   1.000000
   11        6.293211   1.000000
   12        6.293211   1.000000
   13        7.256942   1.000000
   14        8.563837   0.000000
   15        8.563837   0.000000
   16        9.879058   0.000000

  0.2307692E+00  0.1715972E-17  0.5807408E-18  0.3641329E-02
    1      -24.398339   1.000000
    2      -24.392877   1.000000
    3      -24.392877   1.000000
    4       -3.741872   1.000000
    5        1.747781   1.000000
    6        2.286455   1.000000
    7        2.286455   1.000000
    8        3.372716   1.000000
    9        3.372716   1.000000
   10        4.387066   1.000000
   11        6.097262   1.000000
   12        6.097262   1.000000
   13        7.473474   1.000000
   14        8.603244   0.000000
   15        8.603244   0.000000
   16       10.453737   0.000000

  0.3076923E+00 -0.5056064E-17  0.8118348E-17  0.3641329E-02
    1      -24.401206   1.000000
    2      -24.392820   1.000000
    3      -24.392820   1.000000
    4       -3.431171   1.000000
    5        1.366001   1.000000
    6        2.265669   1.000000
    7        2.265669   1.000000
    8        3.411089   1.000000
    9        3.411089   1.000000
   10        3.839352   1.000000
   11        5.932853   1.000000
   12        5.932853   1.000000
   13        7.669305   1.000000
   14        8.733020   0.000000
   15        8.733020   0.000000
   16       10.067392   0.000000

  0.3846154E+00 -0.1212549E-16  0.1595334E-16  0.3641329E-02
    1      -24.403565   1.000000
    2      -24.392778   1.000000
    3      -24.392778   1.000000
    4       -3.131271   1.000000
    5        1.004634   1.000000
    6        2.263081   1.000000
    7        2.263081   1.000000
    8        3.413914   1.000000
    9        3.413914   1.000000
   10        3.484678   1.000000
   11        5.827592   1.000000
   12        5.827592   1.000000
   13        7.859232   1.000000
   14        8.904554   0.000000
   15        8.904554   0.000000
   16        9.395188   0.000000

  0.4615385E+00  0.8858052E-17 -0.4264627E-17  0.3641329E-02
    1      -24.404899   1.000000
    2      -24.392764   1.000000
    3      -24.392764   1.000000
    4       -2.936729   1.000000
    5        0.773153   1.000000
    6        2.267489   1.000000
    7        2.267489   1.000000
    8        3.315192   1.000000
    9        3.403303   1.000000
   10        3.403303   1.000000
   11        5.779883   1.000000
   12        5.779883   1.000000
   13        8.027583   0.000435
   14        8.944450   0.000000
   15        9.036966   0.000000
   16        9.036966   0.000000

  0.7692308E-01  0.7692308E-01  0.4098680E-17  0.2730997E-02
    1      -24.393650   1.000000
    2      -24.393073   1.000000
    3      -24.393073   1.000000
    4       -4.148260   1.000000
    5        2.186490   1.000000
    6        2.418319   1.000000
    7        2.418319   1.000000
    8        3.227310   1.000000
    9        3.238771   1.000000
   10        5.882986   1.000000
   11        6.336872   1.000000
   12        6.336872   1.000000
   13        7.103601   1.000000
   14        8.494556   0.000000
   15        9.062072   0.000000
   16        9.062963   0.000000

  0.1538462E+00  0.7692308E-01  0.4694215E-17  0.1092399E-01
    1      -24.395096   1.000000
    2      -24.393157   1.000000
    3      -24.393033   1.000000
    4       -4.018314   1.000000
    5        1.979000   1.000000
    6        2.398757   1.000000
    7        2.426149   1.000000
    8        3.281910   1.000000
    9        3.283027   1.000000
   10        5.313881   1.000000
   11        6.150136   1.000000
   12        6.192695   1.000000
   13        7.367859   1.000000
   14        8.365564   0.000000
   15        8.803363   0.000000
   16        9.492163   0.000000

  0.2307692E+00  0.7692308E-01  0.8154676E-17  0.1092399E-01
    1      -24.397513   1.000000
    2      -24.393183   1.000000
    3      -24.392973   1.000000
    4       -3.792280   1.000000
    5        1.722303   1.000000
    6        2.323412   1.000000
    7        2.407821   1.000000
    8        3.346651   1.000000
    9        3.355650   1.000000
   10        4.619099   1.000000
   11        5.965003   1.000000
   12        6.014556   1.000000
   13        7.647521   1.000000
   14        8.382517   0.000000
   15        8.710292   0.000000
   16       10.003346   0.000000

  0.3076923E+00  0.7692308E-01  0.6943215E-17  0.1092399E-01
    1      -24.400276   1.000000
    2      -24.393147   1.000000
    3      -24.392984   1.000000
    4       -3.501182   1.000000
    5        1.418678   1.000000
    6        2.255418   1.000000
    7        2.383047   1.000000
    8        3.397405   1.000000
    9        3.405522   1.000000
   10        4.021079   1.000000
   11        5.824950   1.000000
   12        5.842040   1.000000
   13        7.799219   1.000000
   14        8.611497   0.000000
   15        8.736422   0.000000
   16       10.128272   0.000000

  0.3846154E+00  0.7692308E-01  0.4520769E-17  0.1092399E-01
    1      -24.402740   1.000000
    2      -24.393063   1.000000
    3      -24.393060   1.000000
    4       -3.198676   1.000000
    5        1.102296   1.000000
    6        2.224818   1.000000
    7        2.357252   1.000000
    8        3.409017   1.000000
    9        3.419078   1.000000
   10        3.605247   1.000000
   11        5.711150   1.000000
   12        5.744992   1.000000
   13        7.904105   1.000000
   14        8.858153   0.000000
   15        8.903719   0.000000
   16        9.558999   0.000000

  0.4615385E+00  0.7692308E-01  0.1205838E-16  0.1092399E-01
    1      -24.404354   1.000000
    2      -24.393172   1.000000
    3      -24.392937   1.000000
    4       -2.967157   1.000000
    5        0.856244   1.000000
    6        2.232590   1.000000
    7        2.324241   1.000000
    8        3.325527   1.000000
    9        3.417261   1.000000
   10        3.448046   1.000000
   11        5.630827   1.000000
   12        5.717028   1.000000
   13        8.037689   0.000001
   14        8.954320   0.000000
   15        9.006461   0.000000
   16        9.211776   0.000000

 -0.4615385E+00  0.7692308E-01 -0.1742539E-16  0.1092399E-01
    1      -24.404780   1.000000
    2      -24.393311   1.000000
    3      -24.392811   1.000000
    4       -2.899578   1.000000
    5        0.784710   1.000000
    6        2.267480   1.000000
    7        2.279513   1.000000
    8        3.273979   1.000000
    9        3.425017   1.000000
   10        3.431181   1.000000
   11        5.589158   1.000000
   12        5.731668   1.000000
   13        8.120917   0.000000
   14        8.785172   0.000000
   15        9.061837   0.000000
   16        9.271318   0.000000

 -0.3846154E+00  0.7692308E-01 -0.9887780E-17  0.1092399E-01
    1      -24.403911   1.000000
    2      -24.393422   1.000000
    3      -24.392707   1.000000
    4       -3.029879   1.000000
    5        0.927204   1.000000
    6        2.231763   1.000000
    7        2.316432   1.000000
    8        3.343847   1.000000
    9        3.442246   1.000000
   10        3.473394   1.000000
   11        5.572734   1.000000
   12        5.793857   1.000000
   13        8.024143   0.002236
   14        8.961116   0.000000
   15        8.982495   0.000000
   16        9.275691   0.000000

 -0.3076923E+00  0.7692308E-01 -0.1442220E-16  0.1092399E-01
    1      -24.401946   1.000000
    2      -24.393488   1.000000
    3      -24.392645   1.000000
    4       -3.295695   1.000000
    5        1.216781   1.000000
    6        2.199138   1.000000
    7        2.369710   1.000000
    8        3.384124   1.000000
    9        3.446575   1.000000
   10        3.727482   1.000000
   11        5.585879   1.000000
   12        5.916759   1.000000
   13        7.912088   1.000000
   14        8.768306   0.000000
   15        8.873291   0.000000
   16        9.768834   0.000000

 -0.2307692E+00  0.7692308E-01 -0.6884594E-17  0.1092399E-01
    1      -24.399327   1.000000
    2      -24.393481   1.000000
    3      -24.392646   1.000000
    4       -3.602171   1.000000
    5        1.553926   1.000000
    6        2.197389   1.000000
    7        2.420084   1.000000
    8        3.365502   1.000000
    9        3.418037   1.000000
   10        4.205354   1.000000
   11        5.653000   1.000000
   12        6.099608   1.000000
   13        7.802008   1.000000
   14        8.569839   0.000000
   15        8.711832   0.000000
   16       10.014572   0.000000

 -0.1538462E+00  0.7692308E-01 -0.4178319E-17  0.1092399E-01
    1      -24.396672   1.000000
    2      -24.393398   1.000000
    3      -24.392716   1.000000
    4       -3.876386   1.000000
    5        1.872122   1.000000
    6        2.232441   1.000000
    7        2.454078   1.000000
    8        3.311217   1.000000
    9        3.356813   1.000000
   10        4.836710   1.000000
   11        5.806857   1.000000
   12        6.304737   1.000000
   13        7.598010   1.000000
   14        8.435038   0.000000
   15        8.688329   0.000000
   16        9.580979   0.000000

 -0.7692308E-01  0.7692308E-01 -0.2825420E-17  0.5461994E-02
    1      -24.394619   1.000000
    2      -24.393196   1.000000
    3      -24.392818   1.000000
    4       -4.073122   1.000000
    5        2.136218   1.000000
    6        2.297284   1.000000
    7        2.441995   1.000000
    8        3.254594   1.000000
    9        3.283064   1.000000
   10        5.472096   1.000000
   11        6.100501   1.000000
   12        6.450944   1.000000
   13        7.275007   1.000000
   14        8.440213   0.000000
   15        8.783156   0.000000
   16        9.186562   0.000000

  0.1538462E+00  0.1538462E+00  0.8197360E-17  0.2730997E-02
    1      -24.395589   1.000000
    2      -24.393367   1.000000
    3      -24.393367   1.000000
    4       -3.930160   1.000000
    5        1.750666   1.000000
    6        2.499055   1.000000
    7        2.499055   1.000000
    8        3.260886   1.000000
    9        3.313132   1.000000
   10        5.250494   1.000000
   11        5.951314   1.000000
   12        5.951314   1.000000
   13        7.402053   1.000000
   14        8.307858   0.000000
   15        8.860489   0.000000
   16        9.612318   0.000000

  0.2307692E+00  0.1538462E+00  0.1217946E-16  0.1092399E-01
    1      -24.397371   1.000000
    2      -24.393516   1.000000
    3      -24.393469   1.000000
    4       -3.746291   1.000000
    5        1.522138   1.000000
    6        2.494620   1.000000
    7        2.529662   1.000000
    8        3.275212   1.000000
    9        3.379782   1.000000
   10        4.794746   1.000000
   11        5.747189   1.000000
   12        5.765831   1.000000
   13        7.655334   1.000000
   14        8.262782   0.000000
   15        8.743322   0.000000
   16        9.914835   0.000000

  0.3076923E+00  0.1538462E+00  0.7121457E-17  0.1092399E-01
    1      -24.399692   1.000000
    2      -24.393610   1.000000
    3      -24.393560   1.000000
    4       -3.492726   1.000000
    5        1.311196   1.000000
    6        2.408083   1.000000
    7        2.526504   1.000000
    8        3.326787   1.000000
    9        3.437842   1.000000
   10        4.228897   1.000000
   11        5.544508   1.000000
   12        5.636992   1.000000
   13        7.917176   1.000000
   14        8.446590   0.000000
   15        8.693808   0.000000
   16       10.036845   0.000000

  0.3846154E+00  0.1538462E+00  0.8771745E-17  0.1092399E-01
    1      -24.401896   1.000000
    2      -24.393906   1.000000
    3      -24.393483   1.000000
    4       -3.214553   1.000000
    5        1.122738   1.000000
    6        2.303746   1.000000
    7        2.497443   1.000000
    8        3.370860   1.000000
    9        3.461833   1.000000
   10        3.754583   1.000000
   11        5.380923   1.000000
   12        5.575499   1.000000
   13        7.943963   1.000000
   14        8.768161   0.000000
   15        8.939574   0.000000
   16        9.645340   0.000000

  0.4615385E+00  0.1538462E+00  0.1118063E-16  0.1092399E-01
    1      -24.403465   1.000000
    2      -24.394288   1.000000
    3      -24.393322   1.000000
    4       -2.978995   1.000000
    5        0.972045   1.000000
    6        2.233252   1.000000
    7        2.440678   1.000000
    8        3.319617   1.000000
    9        3.467220   1.000000
   10        3.522106   1.000000
   11        5.266636   1.000000
   12        5.564774   1.000000
   13        7.999425   0.743104
   14        8.937745   0.000000
   15        9.096113   0.000000
   16        9.392024   0.000000

 -0.4615385E+00  0.1538462E+00 -0.1317441E-16  0.1092399E-01
    1      -24.404067   1.000000
    2      -24.394663   1.000000
    3      -24.393099   1.000000
    4       -2.865062   1.000000
    5        0.901403   1.000000
    6        2.228405   1.000000
    7        2.358418   1.000000
    8        3.219579   1.000000
    9        3.479097   1.000000
   10        3.508936   1.000000
   11        5.189235   1.000000
   12        5.590410   1.000000
   13        8.128465   0.000000
   14        8.753059   0.000000
   15        9.076824   0.000000
   16        9.645505   0.000000

 -0.3846154E+00  0.1538462E+00 -0.1589425E-16  0.1092399E-01
    1      -24.403598   1.000000
    2      -24.394921   1.000000
    3      -24.392861   1.000000
    4       -2.921196   1.000000
    5        0.951184   1.000000
    6        2.268189   1.000000
    7        2.295207   1.000000
    8        3.241070   1.000000
    9        3.497279   1.000000
   10        3.552104   1.000000
   11        5.125085   1.000000
   12        5.659225   1.000000
   13        8.186797   0.000000
   14        8.816031   0.000000
   15        9.044454   0.000000
   16        9.645086   0.000000

 -0.3076923E+00  0.1538462E+00  0.7326910E-17  0.1092399E-01
    1      -24.402208   1.000000
    2      -24.394959   1.000000
    3      -24.392680   1.000000
    4       -3.122937   1.000000
    5        1.111421   1.000000
    6        2.195169   1.000000
    7        2.405166   1.000000
    8        3.323043   1.000000
    9        3.501368   1.000000
   10        3.712855   1.000000
   11        5.071463   1.000000
   12        5.787046   1.000000
   13        8.181558   0.000000
   14        8.872775   0.000000
   15        9.122703   0.000000
   16        9.556657   0.000000

 -0.2307692E+00  0.1538462E+00 -0.1289106E-16  0.1092399E-01
    1      -24.400257   1.000000
    2      -24.394694   1.000000
    3      -24.392578   1.000000
    4       -3.395455   1.000000
    5        1.340193   1.000000
    6        2.159813   1.000000
    7        2.501746   1.000000
    8        3.351016   1.000000
    9        3.475647   1.000000
   10        4.076755   1.000000
   11        5.080194   1.000000
   12        5.971790   1.000000
   13        8.226980   0.000000
   14        8.660873   0.000000
   15        8.902760   0.000000
   16        9.718058   0.000000

 -0.1538462E+00  0.1538462E+00 -0.5056064E-17  0.5461994E-02
    1      -24.398264   1.000000
    2      -24.394125   1.000000
    3      -24.392592   1.000000
    4       -3.664275   1.000000
    5        1.603449   1.000000
    6        2.172507   1.000000
    7        2.528954   1.000000
    8        3.331987   1.000000
    9        3.422155   1.000000
   10        4.517371   1.000000
   11        5.287084   1.000000
   12        6.172088   1.000000
   13        8.080463   0.000000
   14        8.487389   0.000000
   15        8.690939   0.000000
   16        9.559545   0.000000

  0.2307692E+00  0.2307692E+00  0.1229604E-16  0.2730997E-02
    1      -24.398368   1.000000
    2      -24.393796   1.000000
    3      -24.393796   1.000000
    4       -3.610945   1.000000
    5        1.316769   1.000000
    6        2.619042   1.000000
    7        2.619042   1.000000
    8        3.197045   1.000000
    9        3.441712   1.000000
   10        4.685061   1.000000
   11        5.570850   1.000000
   12        5.570850   1.000000
   13        7.497484   1.000000
   14        8.322859   0.000000
   15        8.650952   0.000000
   16       10.022906   0.000000

  0.3076923E+00  0.2307692E+00  0.1341321E-16  0.1092399E-01
    1      -24.400106   1.000000
    2      -24.394067   1.000000
    3      -24.393962   1.000000
    4       -3.408030   1.000000
    5        1.159622   1.000000
    6        2.607979   1.000000
    7        2.660958   1.000000
    8        3.199191   1.000000
    9        3.507473   1.000000
   10        4.311529   1.000000
   11        5.352616   1.000000
   12        5.433067   1.000000
   13        7.653411   1.000000
   14        8.434442   0.000000
   15        8.563088   0.000000
   16       10.032214   0.000000

  0.3846154E+00  0.2307692E+00  0.2509475E-16  0.1092399E-01
    1      -24.401791   1.000000
    2      -24.394577   1.000000
    3      -24.393967   1.000000
    4       -3.175228   1.000000
    5        1.070720   1.000000
    6        2.483337   1.000000
    7        2.654006   1.000000
    8        3.278470   1.000000
    9        3.541508   1.000000
   10        3.867920   1.000000
   11        5.105861   1.000000
   12        5.372422   1.000000
   13        7.790671   1.000000
   14        8.592326   0.000000
   15        8.851263   0.000000
   16        9.722320   0.000000

  0.4615385E+00  0.2307692E+00  0.1362585E-16  0.1092399E-01
    1      -24.402937   1.000000
    2      -24.395337   1.000000
    3      -24.393818   1.000000
    4       -2.965279   1.000000
    5        1.051345   1.000000
    6        2.331421   1.000000
    7        2.595605   1.000000
    8        3.291315   1.000000
    9        3.549944   1.000000
   10        3.575431   1.000000
   11        4.905614   1.000000
   12        5.369847   1.000000
   13        7.844236   1.000000
   14        8.775641   0.000000
   15        9.241397   0.000000
   16        9.432901   0.000000

 -0.4615385E+00  0.2307692E+00  0.1340603E-16  0.1092399E-01
    1      -24.403267   1.000000
    2      -24.396178   1.000000
    3      -24.393543   1.000000
    4       -2.836644   1.000000
    5        1.074906   1.000000
    6        2.216317   1.000000
    7        2.491411   1.000000
    8        3.146818   1.000000
    9        3.558478   1.000000
   10        3.594004   1.000000
   11        4.765364   1.000000
   12        5.402147   1.000000
   13        7.954921   1.000000
   14        8.862423   0.000000
   15        9.037846   0.000000
   16        9.760296   0.000000

 -0.3846154E+00  0.2307692E+00  0.2094364E-16  0.1092399E-01
    1      -24.402838   1.000000
    2      -24.396803   1.000000
    3      -24.393210   1.000000
    4       -2.831710   1.000000
    5        1.094871   1.000000
    6        2.211446   1.000000
    7        2.366657   1.000000
    8        3.118384   1.000000
    9        3.568363   1.000000
   10        3.677528   1.000000
   11        4.670615   1.000000
   12        5.473788   1.000000
   13        8.136301   0.000000
   14        8.702741   0.000000
   15        9.138152   0.000000
   16        9.742489   0.000000

 -0.3076923E+00  0.2307692E+00 -0.1436310E-16  0.1092399E-01
    1      -24.401964   1.000000
    2      -24.396829   1.000000
    3      -24.392887   1.000000
    4       -2.953018   1.000000
    5        1.114077   1.000000
    6        2.254241   1.000000
    7        2.323426   1.000000
    8        3.211019   1.000000
    9        3.561840   1.000000
   10        3.791374   1.000000
   11        4.620384   1.000000
   12        5.601397   1.000000
   13        8.245700   0.000000
   14        8.946116   0.000000
   15        9.020891   0.000000
   16        9.652480   0.000000

 -0.2307692E+00  0.2307692E+00  0.3431943E-17  0.5461994E-02
    1      -24.401078   1.000000
    2      -24.396020   1.000000
    3      -24.392658   1.000000
    4       -3.160784   1.000000
    5        1.187078   1.000000
    6        2.180249   1.000000
    7        2.454583   1.000000
    8        3.311679   1.000000
    9        3.528763   1.000000
   10        3.946578   1.000000
   11        4.706598   1.000000
   12        5.781170   1.000000
   13        8.299007   0.000000
   14        8.833483   0.000000
   15        9.320131   0.000000
   16        9.565128   0.000000

  0.3076923E+00  0.3076923E+00  0.1639472E-16  0.2730997E-02
    1      -24.401378   1.000000
    2      -24.394256   1.000000
    3      -24.394256   1.000000
    4       -3.264039   1.000000
    5        1.051562   1.000000
    6        2.754741   1.000000
    7        2.754741   1.000000
    8        3.070399   1.000000
    9        3.589789   1.000000
   10        4.124969   1.000000
   11        5.272138   1.000000
   12        5.272138   1.000000
   13        7.480246   1.000000
   14        8.416496   0.000000
   15        8.465805   0.000000
   16        9.984784   0.000000

  0.3846154E+00  0.3076923E+00  0.2037046E-16  0.1092399E-01
    1      -24.402720   1.000000
    2      -24.394644   1.000000
    3      -24.394375   1.000000
    4       -3.091165   1.000000
    5        1.026145   1.000000
    6        2.689078   1.000000
    7        2.790065   1.000000
    8        3.121411   1.000000
    9        3.642252   1.000000
   10        3.789342   1.000000
   11        5.062672   1.000000
   12        5.191140   1.000000
   13        7.553411   1.000000
   14        8.369263   0.000000
   15        8.669871   0.000000
   16        9.753044   0.000000

  0.4615385E+00  0.3076923E+00  0.1018374E-16  0.1092399E-01
    1      -24.403471   1.000000
    2      -24.395495   1.000000
    3      -24.394301   1.000000
    4       -2.928761   1.000000
    5        1.092770   1.000000
    6        2.507433   1.000000
    7        2.756095   1.000000
    8        3.212213   1.000000
    9        3.503798   1.000000
   10        3.654086   1.000000
   11        4.769648   1.000000
   12        5.182685   1.000000
   13        7.641060   1.000000
   14        8.504407   0.000000
   15        9.160669   0.000000
   16        9.420604   0.000000

 -0.4615385E+00  0.3076923E+00  0.7399566E-17  0.1092399E-01
    1      -24.403358   1.000000
    2      -24.396710   1.000000
    3      -24.394047   1.000000
    4       -2.815545   1.000000
    5        1.217995   1.000000
    6        2.308525   1.000000
    7        2.653933   1.000000
    8        3.044423   1.000000
    9        3.591213   1.000000
   10        3.650806   1.000000
   11        4.512934   1.000000
   12        5.217496   1.000000
   13        7.737030   1.000000
   14        8.836334   0.000000
   15        8.999257   0.000000
   16        9.615426   0.000000

 -0.3846154E+00  0.3076923E+00  0.1493717E-16  0.1092399E-01
    1      -24.402494   1.000000
    2      -24.397934   1.000000
    3      -24.393669   1.000000
    4       -2.778807   1.000000
    5        1.291637   1.000000
    6        2.159946   1.000000
    7        2.510715   1.000000
    8        2.977873   1.000000
    9        3.640726   1.000000
   10        3.768774   1.000000
   11        4.342307   1.000000
   12        5.293041   1.000000
   13        7.912501   1.000000
   14        8.758369   0.000000
   15        9.199876   0.000000
   16        9.600665   0.000000

 -0.3076923E+00  0.3076923E+00 -0.1011213E-16  0.5461994E-02
    1      -24.401745   1.000000
    2      -24.398230   1.000000
    3      -24.393255   1.000000
    4       -2.828150   1.000000
    5        1.214411   1.000000
    6        2.194375   1.000000
    7        2.366424   1.000000
    8        3.068047   1.000000
    9        3.612090   1.000000
   10        3.858904   1.000000
   11        4.346024   1.000000
   12        5.423277   1.000000
   13        8.138765   0.000000
   14        8.709037   0.000000
   15        9.169768   0.000000
   16        9.539966   0.000000

  0.3846154E+00  0.3846154E+00  0.2049340E-16  0.2730997E-02
    1      -24.403921   1.000000
    2      -24.394631   1.000000
    3      -24.394631   1.000000
    4       -2.984250   1.000000
    5        1.044949   1.000000
    6        2.873821   1.000000
    7        2.873821   1.000000
    8        2.941274   1.000000
    9        3.531866   1.000000
   10        3.723704   1.000000
   11        5.077500   1.000000
   12        5.077500   1.000000
   13        7.435163   1.000000
   14        8.210691   0.000000
   15        8.556411   0.000000
   16        9.702386   0.000000

  0.4615385E+00  0.3846154E+00  0.1647550E-16  0.1092399E-01
    1      -24.404613   1.000000
    2      -24.395070   1.000000
    3      -24.394680   1.000000
    4       -2.881265   1.000000
    5        1.141095   1.000000
    6        2.707813   1.000000
    7        2.883383   1.000000
    8        3.073524   1.000000
    9        3.272343   1.000000
   10        3.751870   1.000000
   11        4.894636   1.000000
   12        5.046190   1.000000
   13        7.472612   1.000000
   14        8.226956   0.000000
   15        8.747811   0.000000
   16        9.495171   0.000000

 -0.4615385E+00  0.3846154E+00  0.1346513E-16  0.1092399E-01
    1      -24.404409   1.000000
    2      -24.396047   1.000000
    3      -24.394497   1.000000
    4       -2.805287   1.000000
    5        1.280893   1.000000
    6        2.506212   1.000000
    7        2.809811   1.000000
    8        2.927028   1.000000
    9        3.406823   1.000000
   10        3.737413   1.000000
   11        4.593846   1.000000
   12        5.076038   1.000000
   13        7.556977   1.000000
   14        8.471106   0.000000
   15        9.070640   0.000000
   16        9.444297   0.000000

 -0.3846154E+00  0.3846154E+00 -0.2425098E-16  0.5461994E-02
    1      -24.403421   1.000000
    2      -24.397299   1.000000
    3      -24.394125   1.000000
    4       -2.769652   1.000000
    5        1.371966   1.000000
    6        2.272942   1.000000
    7        2.671866   1.000000
    8        2.876550   1.000000
    9        3.646986   1.000000
   10        3.699379   1.000000
   11        4.346161   1.000000
   12        5.156399   1.000000
   13        7.697684   1.000000
   14        8.908352   0.000000
   15        8.915299   0.000000
   16        9.406112   0.000000

  0.4615385E+00  0.4615385E+00  0.2459208E-16  0.2730997E-02
    1      -24.405382   1.000000
    2      -24.394853   1.000000
    3      -24.394853   1.000000
    4       -2.838298   1.000000
    5        1.211590   1.000000
    6        2.875111   1.000000
    7        2.943502   1.000000
    8        2.943502   1.000000
    9        3.034875   1.000000
   10        3.804760   1.000000
   11        4.985100   1.000000
   12        4.985100   1.000000
   13        7.403055   1.000000
   14        8.088949   0.000000
   15        8.529772   0.000000
   16        9.492383   0.000000

 -0.4615385E+00  0.4615385E+00  0.1771610E-16  0.5461994E-02
    1      -24.405295   1.000000
    2      -24.395210   1.000000
    3      -24.394780   1.000000
    4       -2.811696   1.000000
    5        1.272059   1.000000
    6        2.733528   1.000000
    7        2.874138   1.000000
    8        2.917043   1.000000
    9        3.164384   1.000000
   10        3.795818   1.000000
   11        4.841106   1.000000
   12        4.997455   1.000000
   13        7.442845   1.000000
   14        8.175615   0.000000
   15        8.725621   0.000000
   16        9.404125   0.000000

  0.2307692E+00  0.1538462E+00  0.7692308E-01  0.1092399E-01
    1      -24.396521   1.000000
    2      -24.393567   1.000000
    3      -24.392929   1.000000
    4       -3.860292   1.000000
    5        1.744048   1.000000
    6        2.344948   1.000000
    7        2.508146   1.000000
    8        3.298806   1.000000
    9        3.347349   1.000000
   10        4.945343   1.000000
   11        5.692851   1.000000
   12        6.158174   1.000000
   13        7.683298   1.000000
   14        8.288938   0.000000
   15        8.771685   0.000000
   16        9.561689   0.000000

  0.3076923E+00  0.1538462E+00  0.7692308E-01  0.2184797E-01
    1      -24.398705   1.000000
    2      -24.393922   1.000000
    3      -24.392857   1.000000
    4       -3.619551   1.000000
    5        1.495766   1.000000
    6        2.277401   1.000000
    7        2.518140   1.000000
    8        3.339661   1.000000