       N       E                     dE             d eps       ncg     rms          rms(c)
DAV:   1     0.137517265508E+03    0.13752E+03   -0.14148E+04  2688   0.173E+03
DAV:   2    -0.198657195898E+02   -0.15738E+03   -0.15569E+03  3400   0.331E+02
DAV:   3    -0.249142951959E+02   -0.50486E+01   -0.49931E+01  3664   0.522E+01
DAV:   4    -0.249810009259E+02   -0.66706E-01   -0.66025E-01  3352   0.661E+00
DAV:   5    -0.249826244708E+02   -0.16235E-02   -0.16230E-02  3696   0.943E-01    0.375E+01
DAV:   6    -0.240829682294E+02    0.89966E+00   -0.20760E+00  3528   0.924E+00    0.236E+01
DAV:   7    -0.239387350745E+02    0.14423E+00   -0.11296E+00  3840   0.624E+00    0.316E+00
DAV:   8    -0.239159519157E+02    0.22783E-01   -0.41282E-01  3360   0.288E+00    0.826E-01
DAV:   9    -0.239057757163E+02    0.10176E-01   -0.56487E-02  3296   0.159E+00    0.237E-01
DAV:  10    -0.239056204104E+02    0.15531E-03   -0.95190E-03  3624   0.448E-01    0.288E-01
DAV:  11    -0.239054570309E+02    0.16338E-03   -0.11450E-03  3416   0.176E-01    0.475E-02
DAV:  12    -0.239054567080E+02    0.32286E-06   -0.38811E-05  3320   0.487E-02    0.132E-02
DAV:  13    -0.239054554568E+02    0.12512E-05   -0.26477E-06  3608   0.108E-02    0.625E-03
DAV:  14    -0.239054554627E+02   -0.59042E-08   -0.12544E-07  2472   0.293E-03
   1 F= -.23905455E+02 E0= -.23905237E+02  d E =-.436770E-03
