 vasp.6.0.8 29Jun18 (build Jun 13 2019 12:54:44) complex

 executed on      IFC18_CrayMPICH date 2021.12.05  14:21:50
 running   64 mpi-ranks, with    1 threads/rank
 distrk:  each k-point on   16 cores,    4 groups
 distr:  one band on NCORES_PER_BAND=   4 cores,    4 groups


--------------------------------------------------------------------------------------------------------


 INCAR:
 POTCAR:    PAW_PBE Hf_pv 06Sep2000
 POTCAR:    PAW_PBE Sb 06Sep2000
 POTCAR:    PAW_PBE Pt 04Feb2005
 POTCAR:    PAW_PBE Hf_pv 06Sep2000
   VRHFIN =Hf: 5p6s5d
   LEXCH  = PE
   EATOM  =   860.9206 eV,   63.2759 Ry

   TITEL  = PAW_PBE Hf_pv 06Sep2000
   LULTRA =        F    use ultrasoft PP ?
   IUNSCR =        1    unscreen: 0-lin 1-nonlin 2-no
   RPACOR =    2.500    partial core radius
   POMASS =  178.490; ZVAL   =   10.000    mass and valenz
   RCORE  =    2.600    outmost cutoff radius
   RWIGS  =    3.050; RWIGS  =    1.614    wigner-seitz radius (au A)
   ENMAX  =  220.334; ENMIN  =  165.250 eV
   RCLOC  =    2.212    cutoff for local pot
   LCOR   =        T    correct aug charges
   LPAW   =        T    paw PP
   EAUG   =  380.878
   DEXC   =    0.000
   RMAX   =    2.665    core radius for proj-oper
   RAUG   =    1.300    factor for augmentation sphere
   RDEP   =    2.681    radius for radial grids
   RDEPT  =    2.139    core radius for aug-charge

   Atomic configuration
   15 entries
     n  l   j            E        occ.
     1  0  0.50    -65259.4397   2.0000
     2  0  0.50    -11157.9884   2.0000
     2  1  1.50     -9795.2114   6.0000
     3  0  0.50     -2541.4060   2.0000
     3  1  1.50     -2134.4772   6.0000
     3  2  2.50     -1653.5420  10.0000
     4  0  0.50      -510.9577   2.0000
     4  1  1.50      -377.5024   6.0000
     4  2  2.50      -205.2086  10.0000
     4  3  3.50       -15.4906  14.0000
     5  0  0.50       -65.6020   2.0000
     5  1  1.50       -34.2798   6.0000
     5  2  2.50        -1.9877   3.0000
     6  0  0.50        -4.7357   1.0000
     5  3  2.50        -1.3606   0.0000
   Description
     l       E           TYP  RCUT    TYP  RCUT
     1    -34.2797769     23  2.500
     1    -35.6403595     23  2.500
     2     -1.9876655     23  2.500
     2      0.0744675     23  2.500
     0     -4.7356889     23  2.600
     0      3.2364748     23  2.600
  local pseudopotential read in
  partial core-charges read in
  partial kinetic energy density read in
  atomic valenz-charges read in
  non local Contribution for L=           1  read in
    real space projection operators read in
  non local Contribution for L=           1  read in
    real space projection operators read in
  non local Contribution for L=           2  read in
    real space projection operators read in
  non local Contribution for L=           2  read in
    real space projection operators read in
  non local Contribution for L=           0  read in
    real space projection operators read in
  non local Contribution for L=           0  read in
    real space projection operators read in
    PAW grid and wavefunctions read in

   number of l-projection  operators is LMAX  =           6
   number of lm-projection operators is LMMAX =          18

 POTCAR:    PAW_PBE Sb 06Sep2000
   VRHFIN =Sb: s2p3
   LEXCH  = PE
   EATOM  =   149.9515 eV,   11.0211 Ry

   TITEL  = PAW_PBE Sb 06Sep2000
   LULTRA =        F    use ultrasoft PP ?
   IUNSCR =        1    unscreen: 0-lin 1-nonlin 2-no
   RPACOR =    2.200    partial core radius
   POMASS =  121.750; ZVAL   =    5.000    mass and valenz
   RCORE  =    2.300    outmost cutoff radius
   RWIGS  =    2.980; RWIGS  =    1.577    wigner-seitz radius (au A)
   ENMAX  =  172.069; ENMIN  =  129.052 eV
   ICORE  =        3    local potential
   LCOR   =        T    correct aug charges
   LPAW   =        T    paw PP
   EAUG   =  380.513
   DEXC   =    0.000
   RMAX   =    2.346    core radius for proj-oper
   RAUG   =    1.300    factor for augmentation sphere
   RDEP   =    2.360    radius for radial grids
   RDEPT  =    2.192    core radius for aug-charge

   Atomic configuration
   13 entries
     n  l   j            E        occ.
     1  0  0.50    -30298.2797   2.0000
     2  0  0.50     -4610.2252   2.0000
     2  1  1.50     -4138.3407   6.0000
     3  0  0.50      -903.8815   2.0000
     3  1  1.50      -750.1337   6.0000
     3  2  2.50      -515.7092  10.0000
     4  0  0.50      -148.8034   2.0000
     4  1  1.50      -101.7581   6.0000
     4  2  2.50       -33.5048  10.0000
     5  0  0.50       -12.8298   2.0000
     5  1  0.50        -4.8276   3.0000
     5  2  1.50        -4.0817   0.0000
     4  3  2.50        -4.0817   0.0000
   Description
     l       E           TYP  RCUT    TYP  RCUT
     0    -12.8297861     23  2.300
     0     13.6058260     23  2.300
     1     -4.8275512     23  2.300
     1     -0.7245443     23  2.300
     2     -4.0817478     23  2.300
     3     -1.3605826     23  2.300
  local pseudopotential read in
  partial core-charges read in
  partial kinetic energy density read in
  atomic valenz-charges read in
  non local Contribution for L=           0  read in
    real space projection operators read in
  non local Contribution for L=           0  read in
    real space projection operators read in
  non local Contribution for L=           1  read in
    real space projection operators read in
  non local Contribution for L=           1  read in
    real space projection operators read in
  non local Contribution for L=           2  read in
    real space projection operators read in
    PAW grid and wavefunctions read in

   number of l-projection  operators is LMAX  =           5
   number of lm-projection operators is LMMAX =          13

 POTCAR:    PAW_PBE Pt 04Feb2005
   VRHFIN =Pt: s1d9
   LEXCH  = PE
   EATOM  =   729.1176 eV,   53.5886 Ry

   TITEL  = PAW_PBE Pt 04Feb2005
   LULTRA =        F    use ultrasoft PP ?
   IUNSCR =        1    unscreen: 0-lin 1-nonlin 2-no
   RPACOR =    2.330    partial core radius
   POMASS =  195.080; ZVAL   =   10.000    mass and valenz
   RCORE  =    2.600    outmost cutoff radius
   RWIGS  =    2.750; RWIGS  =    1.455    wigner-seitz radius (au A)
   ENMAX  =  230.283; ENMIN  =  172.712 eV
   ICORE  =        3    local potential
   LCOR   =        T    correct aug charges
   LPAW   =        T    paw PP
   EAUG   =  358.966
   DEXC   =    0.000
   RMAX   =    2.658    core radius for proj-oper
   RAUG   =    1.300    factor for augmentation sphere
   RDEP   =    2.761    radius for radial grids
   RDEPT  =    2.203    core radius for aug-charge

   Atomic configuration
   16 entries
     n  l   j            E        occ.
     1  0  0.50    -78401.1885   2.0000
     2  0  0.50    -13770.7750   2.0000
     2  1  1.50    -11931.0468   6.0000
     3  0  0.50     -3234.7234   2.0000
     3  1  1.50     -2699.2216   6.0000
     3  2  2.50     -2119.5714  10.0000
     4  0  0.50      -695.1528   2.0000
     4  1  1.50      -519.6034   6.0000
     4  2  2.50      -306.6786  10.0000
     4  3  3.50       -70.1041  14.0000
     5  0  0.50      -101.7747   2.0000
     5  1  1.50       -55.9873   6.0000
     5  2  2.50        -6.1423   9.0000
     6  0  0.50        -5.6573   1.0000
     6  1  1.50        -6.8029   0.0000
     5  3  2.50        -1.3606   0.0000
   Description
     l       E           TYP  RCUT    TYP  RCUT
     2     -6.1423404     23  2.500
     2     -7.5029230     23  2.500
     0     -5.6573207     23  2.500
     0      0.7416693     23  2.500
     1     -2.7211652     23  2.600
     1     20.4087390     23  2.600
     3     -1.3605826     23  2.500
  local pseudopotential read in
  partial core-charges read in
  partial kinetic energy density read in
  atomic valenz-charges read in
  non local Contribution for L=           2  read in
    real space projection operators read in
  non local Contribution for L=           2  read in
    real space projection operators read in
  non local Contribution for L=           0  read in
    real space projection operators read in
  non local Contribution for L=           0  read in
    real space projection operators read in
  non local Contribution for L=           1  read in
    real space projection operators read in
  non local Contribution for L=           1  read in
    real space projection operators read in
    PAW grid and wavefunctions read in

   number of l-projection  operators is LMAX  =           6
   number of lm-projection operators is LMMAX =          18


 -----------------------------------------------------------------------------
|                                                                             |
|  ADVICE TO THIS USER RUNNING 'VASP/VAMP'   (HEAR YOUR MASTER'S VOICE ...):  |
|                                                                             |
|      You enforced a specific xc-type in the INCAR file,                     |
|      a different type was found on the POTCAR file                          |
|          I HOPE YOU KNOW, WHAT YOU ARE  DOING                               |
|                                                                             |
 -----------------------------------------------------------------------------

  PAW_PBE Hf_pv 06Sep2000               :
 energy of atom  1       EATOM= -860.9206
 kinetic energy error for atom=    0.0004 (will be added to EATOM!!)
  PAW_PBE Sb 06Sep2000                  :
 energy of atom  2       EATOM= -149.9515
 kinetic energy error for atom=    0.0002 (will be added to EATOM!!)
  PAW_PBE Pt 04Feb2005                  :
 energy of atom  3       EATOM= -729.1176
 kinetic energy error for atom=    0.0010 (will be added to EATOM!!)


 POSCAR: Hf1 Sb1 Pt1
  positions in direct lattice
  No initial velocities read in
 exchange correlation table for  LEXCH =       14
   RHO(1)=    0.500       N(1)  =     2000
   RHO(2)=  100.500       N(2)  =     4000



--------------------------------------------------------------------------------------------------------


 ion  position               nearest neighbor table
   1  0.750  0.750  0.750-   3 2.82   3 2.82   3 2.82   3 2.82   2 3.26   2 3.26   2 3.26   2 3.26
                             2 3.26   2 3.26
   2  0.250  0.250  0.250-   3 2.82   3 2.82   3 2.82   3 2.82   1 3.26   1 3.26   1 3.26   1 3.26
                             1 3.26   1 3.26
   3  0.000  0.000  0.000-   1 2.82   1 2.82   1 2.82   2 2.82   2 2.82   2 2.82   2 2.82   1 2.82


  LATTYP: Found a face centered cubic cell.
 ALAT       =     6.5217470300

  Lattice vectors:

 A1 = (   0.0000000000,   3.2608735150,   3.2608735150)
 A2 = (   3.2608735150,   0.0000000000,   3.2608735150)
 A3 = (   3.2608735150,   3.2608735150,   0.0000000000)


Analysis of symmetry for initial positions (statically):
=====================================================================
 Subroutine PRICEL returns:
 Original cell was already a primitive cell.


 Routine SETGRP: Setting up the symmetry group for a
 face centered cubic supercell.


 Subroutine GETGRP returns: Found 24 space group operations
 (whereof 24 operations were pure point group operations)
 out of a pool of 48 trial point group operations.


The static configuration has the point symmetry T_d .


Analysis of symmetry for dynamics (positions and initial velocities):
=====================================================================
 Subroutine PRICEL returns:
 Original cell was already a primitive cell.


 Routine SETGRP: Setting up the symmetry group for a
 face centered cubic supercell.


 Subroutine GETGRP returns: Found 24 space group operations
 (whereof 24 operations were pure point group operations)
 out of a pool of 48 trial point group operations.


The dynamic configuration has the point symmetry T_d .


 Subroutine INISYM returns: Found 24 space group operations
 (whereof 24 operations are pure point group operations),
 and found     1 'primitive' translations


----------------------------------------------------------------------------------------

                                     Primitive cell

  volume of cell :      69.3477

  direct lattice vectors                    reciprocal lattice vectors
     0.000000000  3.260873515  3.260873515    -0.153333148  0.153333148  0.153333148
     3.260873515  0.000000000  3.260873515     0.153333148 -0.153333148  0.153333148
     3.260873515  3.260873515  0.000000000     0.153333148  0.153333148 -0.153333148

  length of vectors
     4.611571550  4.611571550  4.611571550     0.265580802  0.265580802  0.265580802

  position of ions in fractional coordinates (direct lattice)
     0.750000000  0.750000000  0.750000000
     0.250000000  0.250000000  0.250000000
     0.000000000  0.000000000  0.000000000

  ion indices of the primitive-cell ions
   primitive index   ion index
                 1           1
                 2           2
                 3           3

----------------------------------------------------------------------------------------



 KPOINTS: KPOINTS

Automatic generation of k-mesh.
Space group operators:
 irot       det(A)        alpha          n_x          n_y          n_z        tau_x        tau_y        tau_z
    1     1.000000     0.000000     1.000000     0.000000     0.000000     0.000000     0.000000     0.000000
    2     1.000000   120.000000    -0.577350    -0.577350    -0.577350     0.000000     0.000000     0.000000
    3     1.000000   120.000000     0.577350     0.577350     0.577350     0.000000     0.000000     0.000000
    4    -1.000000    90.000000     0.000000    -0.000000    -1.000000     0.000000     0.000000     0.000000
    5    -1.000000   180.000000    -0.000000     0.707107     0.707107     0.000000     0.000000     0.000000
    6    -1.000000    90.000000     0.000000     1.000000     0.000000     0.000000     0.000000     0.000000
    7     1.000000   180.000000     0.000000    -0.000000     1.000000     0.000000     0.000000     0.000000
    8     1.000000   120.000000    -0.577350     0.577350     0.577350     0.000000     0.000000     0.000000
    9     1.000000   120.000000    -0.577350     0.577350    -0.577350     0.000000     0.000000     0.000000
   10    -1.000000    90.000000     0.000000     0.000000     1.000000     0.000000     0.000000     0.000000
   11    -1.000000    90.000000    -1.000000    -0.000000    -0.000000     0.000000     0.000000     0.000000
   12    -1.000000   180.000000     0.707107     0.000000     0.707107     0.000000     0.000000     0.000000
   13     1.000000   120.000000     0.577350    -0.577350     0.577350     0.000000     0.000000     0.000000
   14     1.000000   120.000000    -0.577350    -0.577350     0.577350     0.000000     0.000000     0.000000
   15     1.000000   180.000000     1.000000     0.000000     0.000000     0.000000     0.000000     0.000000
   16    -1.000000    90.000000     0.000000    -1.000000     0.000000     0.000000     0.000000     0.000000
   17    -1.000000   180.000000     0.707107     0.707107     0.000000     0.000000     0.000000     0.000000
   18    -1.000000    90.000000     1.000000     0.000000    -0.000000     0.000000     0.000000     0.000000
   19     1.000000   120.000000     0.577350    -0.577350    -0.577350     0.000000     0.000000     0.000000
   20     1.000000   180.000000     0.000000    -1.000000    -0.000000     0.000000     0.000000     0.000000
   21     1.000000   120.000000     0.577350     0.577350    -0.577350     0.000000     0.000000     0.000000
   22    -1.000000   180.000000    -0.000000    -0.707107     0.707107     0.000000     0.000000     0.000000
   23    -1.000000   180.000000    -0.707107     0.707107     0.000000     0.000000     0.000000     0.000000
   24    -1.000000   180.000000     0.707107     0.000000    -0.707107     0.000000     0.000000     0.000000

 Subroutine IBZKPT returns following result:
 ===========================================

 Found     84 irreducible k-points:

 Following reciprocal coordinates:
            Coordinates               Weight
  0.000000  0.000000  0.000000      1.000000
  0.076923 -0.000000  0.000000      8.000000
  0.153846 -0.000000  0.000000      8.000000
  0.230769  0.000000  0.000000      8.000000
  0.307692 -0.000000  0.000000      8.000000
  0.384615 -0.000000  0.000000      8.000000
  0.461538  0.000000 -0.000000      8.000000
  0.076923  0.076923  0.000000      6.000000
  0.153846  0.076923  0.000000     24.000000
  0.230769  0.076923  0.000000     24.000000
  0.307692  0.076923  0.000000     24.000000
  0.384615  0.076923  0.000000     24.000000
  0.461538  0.076923  0.000000     24.000000
 -0.461538  0.076923 -0.000000     24.000000
 -0.384615  0.076923 -0.000000     24.000000
 -0.307692  0.076923 -0.000000     24.000000
 -0.230769  0.076923 -0.000000     24.000000
 -0.153846  0.076923 -0.000000     24.000000
 -0.076923  0.076923 -0.000000     12.000000
  0.153846  0.153846  0.000000      6.000000
  0.230769  0.153846  0.000000     24.000000
  0.307692  0.153846  0.000000     24.000000
  0.384615  0.153846  0.000000     24.000000
  0.461538  0.153846  0.000000     24.000000
 -0.461538  0.153846 -0.000000     24.000000
 -0.384615  0.153846 -0.000000     24.000000
 -0.307692  0.153846  0.000000     24.000000
 -0.230769  0.153846 -0.000000     24.000000
 -0.153846  0.153846 -0.000000     12.000000
  0.230769  0.230769  0.000000      6.000000
  0.307692  0.230769  0.000000     24.000000
  0.384615  0.230769  0.000000     24.000000
  0.461538  0.230769  0.000000     24.000000
 -0.461538  0.230769  0.000000     24.000000
 -0.384615  0.230769  0.000000     24.000000
 -0.307692  0.230769 -0.000000     24.000000
 -0.230769  0.230769  0.000000     12.000000
  0.307692  0.307692  0.000000      6.000000
  0.384615  0.307692  0.000000     24.000000
  0.461538  0.307692  0.000000     24.000000
 -0.461538  0.307692  0.000000     24.000000
 -0.384615  0.307692  0.000000     24.000000
 -0.307692  0.307692 -0.000000     12.000000
  0.384615  0.384615  0.000000      6.000000
  0.461538  0.384615  0.000000     24.000000
 -0.461538  0.384615  0.000000     24.000000
 -0.384615  0.384615 -0.000000     12.000000
  0.461538  0.461538  0.000000      6.000000
 -0.461538  0.461538  0.000000     12.000000
  0.230769  0.153846  0.076923     24.000000
  0.307692  0.153846  0.076923     48.000000
  0.384615  0.153846  0.076923     48.000000
  0.461538  0.153846  0.076923     48.000000
 -0.461538  0.153846  0.076923     48.000000
  0.307692  0.230769  0.076923     24.000000
  0.384615  0.230769  0.076923     48.000000
  0.461538  0.230769  0.076923     48.000000
 -0.461538  0.230769  0.076923     48.000000
 -0.384615  0.230769  0.076923     48.000000
 -0.307692  0.230769  0.076923     48.000000
 -0.230769  0.230769  0.076923     48.000000
 -0.153846  0.230769  0.076923     24.000000
  0.384615  0.307692  0.076923     24.000000
  0.461538  0.307692  0.076923     48.000000
 -0.461538  0.307692  0.076923     48.000000
 -0.384615  0.307692  0.076923     48.000000
 -0.307692  0.307692  0.076923     48.000000
 -0.230769  0.307692  0.076923     24.000000
  0.461538  0.384615  0.076923     24.000000
 -0.461538  0.384615  0.076923     48.000000
 -0.384615  0.384615  0.076923     48.000000
 -0.307692  0.384615  0.076923     24.000000
 -0.461538  0.461538  0.076923     24.000000
 -0.384615  0.461538  0.076923     24.000000
  0.461538  0.307692  0.153846     24.000000
 -0.461538  0.307692  0.153846     48.000000
 -0.384615  0.307692  0.153846     48.000000
 -0.461538  0.384615  0.153846     24.000000
 -0.384615  0.384615  0.153846     48.000000
 -0.307692  0.384615  0.153846     48.000000
 -0.230769  0.384615  0.153846     24.000000
 -0.384615  0.461538  0.153846     24.000000
 -0.307692  0.461538  0.153846     24.000000
 -0.307692  0.461538  0.230769     24.000000

 Following cartesian coordinates:
            Coordinates               Weight
  0.000000  0.000000  0.000000      1.000000
 -0.012101  0.012101  0.012101      8.000000
 -0.024203  0.024203  0.024203      8.000000
 -0.036304  0.036304  0.036304      8.000000
 -0.048405  0.048405  0.048405      8.000000
 -0.060507  0.060507  0.060507      8.000000
 -0.072608  0.072608  0.072608      8.000000
  0.000000  0.000000  0.024203      6.000000
 -0.012101  0.012101  0.036304     24.000000
 -0.024203  0.024203  0.048405     24.000000
 -0.036304  0.036304  0.060507     24.000000
 -0.048405  0.048405  0.072608     24.000000
 -0.060507  0.060507  0.084709     24.000000
  0.084709 -0.084709 -0.060507     24.000000
  0.072608 -0.072608 -0.048405     24.000000
  0.060507 -0.060507 -0.036304     24.000000
  0.048405 -0.048405 -0.024203     24.000000
  0.036304 -0.036304 -0.012101     24.000000
  0.024203 -0.024203  0.000000     12.000000
  0.000000  0.000000  0.048405      6.000000
 -0.012101  0.012101  0.060507     24.000000
 -0.024203  0.024203  0.072608     24.000000
 -0.036304  0.036304  0.084709     24.000000
 -0.048405  0.048405  0.096811     24.000000
  0.096811 -0.096811 -0.048405     24.000000
  0.084709 -0.084709 -0.036304     24.000000
  0.072608 -0.072608 -0.024203     24.000000
  0.060507 -0.060507 -0.012101     24.000000
  0.048405 -0.048405  0.000000     12.000000
  0.000000 -0.000000  0.072608      6.000000
 -0.012101  0.012101  0.084709     24.000000
 -0.024203  0.024203  0.096811     24.000000
 -0.036304  0.036304  0.108912     24.000000
  0.108912 -0.108912 -0.036304     24.000000
  0.096811 -0.096811 -0.024203     24.000000
  0.084709 -0.084709 -0.012101     24.000000
  0.072608 -0.072608  0.000000     12.000000
  0.000000  0.000000  0.096811      6.000000
 -0.012101  0.012101  0.108912     24.000000
 -0.024203  0.024203  0.121014     24.000000
  0.121014 -0.121014 -0.024203     24.000000
  0.108912 -0.108912 -0.012101     24.000000
  0.096811 -0.096811  0.000000     12.000000
  0.000000  0.000000  0.121014      6.000000
 -0.012101  0.012101  0.133115     24.000000
  0.133115 -0.133115 -0.012101     24.000000
  0.121014 -0.121014  0.000000     12.000000
  0.000000 -0.000000  0.145216      6.000000
  0.145216 -0.145216  0.000000     12.000000
 -0.000000  0.024203  0.048405     24.000000
 -0.012101  0.036304  0.060507     48.000000
 -0.024203  0.048405  0.072608     48.000000
 -0.036304  0.060507  0.084709     48.000000
  0.108912 -0.084709 -0.060507     48.000000
  0.000000  0.024203  0.072608     24.000000
 -0.012101  0.036304  0.084709     48.000000
 -0.024203  0.048405  0.096811     48.000000
  0.121014 -0.096811 -0.048405     48.000000
  0.108912 -0.084709 -0.036304     48.000000
  0.096811 -0.072608 -0.024203     48.000000
  0.084709 -0.060507 -0.012101     48.000000
  0.072608 -0.048405  0.000000     24.000000
  0.000000  0.024203  0.096811     24.000000
 -0.012101  0.036304  0.108912     48.000000
  0.133115 -0.108912 -0.036304     48.000000
  0.121014 -0.096811 -0.024203     48.000000
  0.108912 -0.084709 -0.012101     48.000000
  0.096811 -0.072608 -0.000000     24.000000
  0.000000  0.024203  0.121014     24.000000
  0.145216 -0.121014 -0.024203     48.000000
  0.133115 -0.108912 -0.012101     48.000000
  0.121014 -0.096811  0.000000     24.000000
  0.157318 -0.133115 -0.012101     24.000000
  0.145216 -0.121014 -0.000000     24.000000
  0.000000  0.048405  0.096811     24.000000
  0.145216 -0.096811 -0.048405     48.000000
  0.133115 -0.084709 -0.036304     48.000000
  0.157318 -0.108912 -0.036304     24.000000
  0.145216 -0.096811 -0.024203     48.000000
  0.133115 -0.084709 -0.012101     48.000000
  0.121014 -0.072608 -0.000000     24.000000
  0.157318 -0.108912 -0.012101     24.000000
  0.145216 -0.096811  0.000000     24.000000
  0.157318 -0.084709 -0.012101     24.000000



--------------------------------------------------------------------------------------------------------




 Dimension of arrays:
   k-points           NKPTS =     84   k-points in BZ     NKDIM =     84   number of bands    NBANDS=     16
   number of dos      NEDOS =    301   number of ions     NIONS =      3
   non local maximal  LDIM  =      6   non local SUM 2l+1 LMDIM =     18
   total plane-waves  NPLWV =  64000
   max r-space proj   IRMAX =      1   max aug-charges    IRDMAX= 447322
   dimension x,y,z NGX =    40 NGY =   40 NGZ =   40
   dimension x,y,z NGXF=    80 NGYF=   80 NGZF=   80
   support grid    NGXF=   160 NGYF=  160 NGZF=  160
   ions per type =               1   1   1
   NGX,Y,Z   is equivalent  to a cutoff of  14.42, 14.42, 14.42 a.u.
   NGXF,Y,Z  is equivalent  to a cutoff of  28.84, 28.84, 28.84 a.u.

 SYSTEM =  unknown system
 POSCAR =  Hf1 Sb1 Pt1

 Startparameter for this run:
   NWRITE =      2    write-flag & timer
   PREC   = acc       normal or accurate (medium, high low for compatibility)
   ISTART =      0    job   : 0-new  1-cont  2-samecut
   ICHARG =      2    charge: 1-file 2-atom 10-const
   ISPIN  =      1    spin polarized calculation?
   LNONCOLLINEAR =      F non collinear calculations
   LSORBIT =      F    spin-orbit coupling
   INIWAV =      1    electr: 0-lowe 1-rand  2-diag
   LASPH  =      F    aspherical Exc in radial PAW
   METAGGA=      F    non-selfconsistent MetaGGA calc.

 Electronic Relaxation 1
   ENCUT  =  700.0 eV  51.45 Ry    7.17 a.u.   9.95  9.95  9.95*2*pi/ulx,y,z
   ENINI  =  700.0     initial cutoff
   ENAUG  =  380.9 eV  augmentation charge cutoff
   NELM   =     60;   NELMIN=  5; NELMDL= -5     # of ELM steps
   EDIFF  = 0.1E-06   stopping-criterion for ELM
   LREAL  =      F    real-space projection
   NLSPLINE    = F    spline interpolate recip. space projectors
   LCOMPAT=      F    compatible to vasp.4.4
   GGA_COMPAT  = T    GGA compatible to vasp.4.4-vasp.4.6
   LMAXPAW     = -100 max onsite density
   LMAXMIX     =    2 max onsite mixed and CHGCAR
   VOSKOWN=      0    Vosko Wilk Nusair interpolation
   ROPT   =    0.00000   0.00000   0.00000
 Ionic relaxation
   EDIFFG = 0.1E-05   stopping-criterion for IOM
   NSW    =      0    number of steps for IOM
   NBLOCK =      1;   KBLOCK =      1    inner block; outer block
   IBRION =     -1    ionic relax: 0-MD 1-quasi-New 2-CG
   NFREE  =      0    steps in history (QN), initial steepest desc. (CG)
   ISIF   =      3    stress and relaxation
   IWAVPR =     10    prediction:  0-non 1-charg 2-wave 3-comb
   ISYM   =      2    0-nonsym 1-usesym 2-fastsym
   LCORR  =      T    Harris-Foulkes like correction to forces

   POTIM  = 0.5000    time-step for ionic-motion
   TEIN   =    0.0    initial temperature
   TEBEG  =    0.0;   TEEND  =   0.0 temperature during run
   SMASS  =  -3.00    Nose mass-parameter (am)
   estimated Nose-frequenzy (Omega)   =  0.10E-29 period in steps = 0.13E+47 mass=  -0.486E-27a.u.
   SCALEE = 1.0000    scale energy and forces
   NPACO  =    256;   APACO  = 16.0  distance and # of slots for P.C.
   PSTRESS=    0.0 pullay stress

  Mass of Ions in am
   POMASS = 178.49121.75195.08
  Ionic Valenz
   ZVAL   =  10.00  5.00 10.00
  Atomic Wigner-Seitz radii
   RWIGS  =  -1.00 -1.00 -1.00
  virtual crystal weights
   VCA    =   1.00  1.00  1.00
   NELECT =      25.0000    total number of electrons
   NUPDOWN=      -1.0000    fix difference up-down

 DOS related values:
   EMIN   =  10.00;   EMAX   =-10.00  energy-range for DOS
   EFERMI =   0.00
   ISMEAR =     0;   SIGMA  =   0.01  broadening in eV -4-tet -1-fermi 0-gaus

 Electronic relaxation 2 (details)
   IALGO  =     38    algorithm
   LDIAG  =      T    sub-space diagonalisation (order eigenvalues)
   LSUBROT=      F    optimize rotation matrix (better conditioning)
   TURBO    =      0    0=normal 1=particle mesh
   IRESTART =      0    0=no restart 2=restart with 2 vectors
   NREBOOT  =      0    no. of reboots
   NMIN     =      0    reboot dimension
   EREF     =   0.00    reference energy to select bands
   IMIX   =      4    mixing-type and parameters
     AMIX     =   0.40;   BMIX     =  1.00
     AMIX_MAG =   1.60;   BMIX_MAG =  1.00
     AMIN     =   0.10
     WC   =   100.;   INIMIX=   1;  MIXPRE=   1;  MAXMIX= -45

 Intra band minimization:
   WEIMIN = 0.0000     energy-eigenvalue tresh-hold
   EBREAK =  0.16E-08  absolut break condition
   DEPER  =   0.30     relativ break condition

   TIME   =   0.40     timestep for ELM

  volume/ion in A,a.u.               =      23.12       155.99
  Fermi-wavevector in a.u.,A,eV,Ry     =   1.165138  2.201792 18.470558  1.357548
  Thomas-Fermi vector in A             =   2.301668

 Write flags
   LWAVE        =      F    write WAVECAR
   LDOWNSAMPLE  =      F    k-point downsampling of WAVECAR
   LCHARG       =      F    write CHGCAR
   LVTOT        =      F    write LOCPOT, total local potential
   LVHAR        =      F    write LOCPOT, Hartree potential only
   LELF         =      F    write electronic localiz. function (ELF)
   LORBIT       =      0    0 simple, 1 ext, 2 COOP (PROOUT), +10 PAW based schemes


 Dipole corrections
   LMONO  =      F    monopole corrections only (constant potential shift)
   LDIPOL =      F    correct potential (dipole corrections)
   IDIPOL =      0    1-x, 2-y, 3-z, 4-all directions
   EPSILON=  1.0000000 bulk dielectric constant

 Exchange correlation treatment:
   GGA     =    PS    GGA type
   LEXCH   =    14    internal setting for exchange type
   VOSKOWN=      0    Vosko Wilk Nusair interpolation
   LHFCALC =     F    Hartree Fock is set to
   LHFONE  =     F    Hartree Fock one center treatment
   AEXX    =    0.0000 exact exchange contribution

 Linear response parameters
   LEPSILON=     F    determine dielectric tensor
   LRPA    =     F    only Hartree local field effects (RPA)
   LNABLA  =     F    use nabla operator in PAW spheres
   LVEL    =     F    velocity operator in full k-point grid
   LINTERFAST=   F  fast interpolation
   KINTER  =     0    interpolate to denser k-point grid
   CSHIFT  =0.1000    complex shift for real part using Kramers Kronig
   OMEGAMAX=  -1.0    maximum frequency
   DEG_THRESHOLD= 0.2000000E-02 threshold for treating states as degnerate
   RTIME   =   -0.100 relaxation time in fs
  (WPLASMAI=    0.000 imaginary part of plasma frequency in eV, 0.658/RTIME)
   DFIELD  = 0.0000000 0.0000000 0.0000000 field for delta impulse in time

 Orbital magnetization related:
   ORBITALMAG=     F  switch on orbital magnetization
   LCHIMAG   =     F  perturbation theory with respect to B field
   DQ        =  0.001000  dq finite difference perturbation B field
   LLRAUG    =     F  two centre corrections for induced B field



--------------------------------------------------------------------------------------------------------


 Static calculation
 charge density and potential will be updated during run
 non-spin polarized calculation
 Variant of blocked Davidson
 Davidson routine will perform the subspace rotation
 perform sub-space diagonalisation
    after iterative eigenvector-optimisation
 modified Broyden-mixing scheme, WC =      100.0
 initial mixing is a Kerker type mixing with AMIX =  0.4000 and BMIX =      1.0000
 Hartree-type preconditioning will be used
 using additional bands            3
 reciprocal scheme for non local part
 use partial core corrections
 calculate Harris-corrections to forces
   (improved forces if not selfconsistent)
 use gradient corrections
 use of overlap-Matrix (Vanderbilt PP)
 Gauss-broadening in eV      SIGMA  =   0.01


--------------------------------------------------------------------------------------------------------


  energy-cutoff  :      700.00
  volume of cell :       69.35
      direct lattice vectors                 reciprocal lattice vectors
     0.000000000  3.260873515  3.260873515    -0.153333148  0.153333148  0.153333148
     3.260873515  0.000000000  3.260873515     0.153333148 -0.153333148  0.153333148
     3.260873515  3.260873515  0.000000000     0.153333148  0.153333148 -0.153333148

  length of vectors
     4.611571550  4.611571550  4.611571550     0.265580802  0.265580802  0.265580802



 k-points in units of 2pi/SCALE and weight: KPOINTS
   0.00000000  0.00000000  0.00000000       0.000
  -0.01210135  0.01210135  0.01210135       0.004
  -0.02420271  0.02420271  0.02420271       0.004
  -0.03630406  0.03630406  0.03630406       0.004
  -0.04840541  0.04840541  0.04840541       0.004
  -0.06050677  0.06050677  0.06050677       0.004
  -0.07260812  0.07260812  0.07260812       0.004
   0.00000000  0.00000000  0.02420271       0.003
  -0.01210135  0.01210135  0.03630406       0.011
  -0.02420271  0.02420271  0.04840541       0.011
  -0.03630406  0.03630406  0.06050677       0.011
  -0.04840541  0.04840541  0.07260812       0.011
  -0.06050677  0.06050677  0.08470948       0.011
   0.08470948 -0.08470948 -0.06050677       0.011
   0.07260812 -0.07260812 -0.04840541       0.011
   0.06050677 -0.06050677 -0.03630406       0.011
   0.04840541 -0.04840541 -0.02420271       0.011
   0.03630406 -0.03630406 -0.01210135       0.011
   0.02420271 -0.02420271  0.00000000       0.005
   0.00000000  0.00000000  0.04840541       0.003
  -0.01210135  0.01210135  0.06050677       0.011
  -0.02420271  0.02420271  0.07260812       0.011
  -0.03630406  0.03630406  0.08470948       0.011
  -0.04840541  0.04840541  0.09681083       0.011
   0.09681083 -0.09681083 -0.04840541       0.011
   0.08470948 -0.08470948 -0.03630406       0.011
   0.07260812 -0.07260812 -0.02420271       0.011
   0.06050677 -0.06050677 -0.01210135       0.011
   0.04840541 -0.04840541  0.00000000       0.005
   0.00000000 -0.00000000  0.07260812       0.003
  -0.01210135  0.01210135  0.08470948       0.011
  -0.02420271  0.02420271  0.09681083       0.011
  -0.03630406  0.03630406  0.10891218       0.011
   0.10891218 -0.10891218 -0.03630406       0.011
   0.09681083 -0.09681083 -0.02420271       0.011
   0.08470948 -0.08470948 -0.01210135       0.011
   0.07260812 -0.07260812  0.00000000       0.005
   0.00000000  0.00000000  0.09681083       0.003
  -0.01210135  0.01210135  0.10891218       0.011
  -0.02420271  0.02420271  0.12101354       0.011
   0.12101354 -0.12101354 -0.02420271       0.011
   0.10891218 -0.10891218 -0.01210135       0.011
   0.09681083 -0.09681083  0.00000000       0.005
   0.00000000  0.00000000  0.12101354       0.003
  -0.01210135  0.01210135  0.13311489       0.011
   0.13311489 -0.13311489 -0.01210135       0.011
   0.12101354 -0.12101354  0.00000000       0.005
   0.00000000 -0.00000000  0.14521624       0.003
   0.14521624 -0.14521624  0.00000000       0.005
  -0.00000000  0.02420271  0.04840541       0.011
  -0.01210135  0.03630406  0.06050677       0.022
  -0.02420271  0.04840541  0.07260812       0.022
  -0.03630406  0.06050677  0.08470948       0.022
   0.10891218 -0.08470948 -0.06050677       0.022
   0.00000000  0.02420271  0.07260812       0.011
  -0.01210135  0.03630406  0.08470948       0.022
  -0.02420271  0.04840541  0.09681083       0.022
   0.12101354 -0.09681083 -0.04840541       0.022
   0.10891218 -0.08470948 -0.03630406       0.022
   0.09681083 -0.07260812 -0.02420271       0.022
   0.08470948 -0.06050677 -0.01210135       0.022
   0.07260812 -0.04840541  0.00000000       0.011
   0.00000000  0.02420271  0.09681083       0.011
  -0.01210135  0.03630406  0.10891218       0.022
   0.13311489 -0.10891218 -0.03630406       0.022
   0.12101354 -0.09681083 -0.02420271       0.022
   0.10891218 -0.08470948 -0.01210135       0.022
   0.09681083 -0.07260812 -0.00000000       0.011
   0.00000000  0.02420271  0.12101354       0.011
   0.14521624 -0.12101354 -0.02420271       0.022
   0.13311489 -0.10891218 -0.01210135       0.022
   0.12101354 -0.09681083  0.00000000       0.011
   0.15731760 -0.13311489 -0.01210135       0.011
   0.14521624 -0.12101354 -0.00000000       0.011
   0.00000000  0.04840541  0.09681083       0.011
   0.14521624 -0.09681083 -0.04840541       0.022
   0.13311489 -0.08470948 -0.03630406       0.022
   0.15731760 -0.10891218 -0.03630406       0.011
   0.14521624 -0.09681083 -0.02420271       0.022
   0.13311489 -0.08470948 -0.01210135       0.022
   0.12101354 -0.07260812 -0.00000000       0.011
   0.15731760 -0.10891218 -0.01210135       0.011
   0.14521624 -0.09681083  0.00000000       0.011
   0.15731760 -0.08470948 -0.01210135       0.011

 k-points in reciprocal lattice and weights: KPOINTS
   0.00000000  0.00000000  0.00000000       0.000
   0.07692308 -0.00000000  0.00000000       0.004
   0.15384615 -0.00000000  0.00000000       0.004
   0.23076923  0.00000000  0.00000000       0.004
   0.30769231 -0.00000000  0.00000000       0.004
   0.38461538 -0.00000000  0.00000000       0.004
   0.46153846  0.00000000 -0.00000000       0.004
   0.07692308  0.07692308  0.00000000       0.003
   0.15384615  0.07692308  0.00000000       0.011
   0.23076923  0.07692308  0.00000000       0.011
   0.30769231  0.07692308  0.00000000       0.011
   0.38461538  0.07692308  0.00000000       0.011
   0.46153846  0.07692308  0.00000000       0.011
  -0.46153846  0.07692308 -0.00000000       0.011
  -0.38461538  0.07692308 -0.00000000       0.011
  -0.30769231  0.07692308 -0.00000000       0.011
  -0.23076923  0.07692308 -0.00000000       0.011
  -0.15384615  0.07692308 -0.00000000       0.011
  -0.07692308  0.07692308 -0.00000000       0.005
   0.15384615  0.15384615  0.00000000       0.003
   0.23076923  0.15384615  0.00000000       0.011
   0.30769231  0.15384615  0.00000000       0.011
   0.38461538  0.15384615  0.00000000       0.011
   0.46153846  0.15384615  0.00000000       0.011
  -0.46153846  0.15384615 -0.00000000       0.011
  -0.38461538  0.15384615 -0.00000000       0.011
  -0.30769231  0.15384615  0.00000000       0.011
  -0.23076923  0.15384615 -0.00000000       0.011
  -0.15384615  0.15384615 -0.00000000       0.005
   0.23076923  0.23076923  0.00000000       0.003
   0.30769231  0.23076923  0.00000000       0.011
   0.38461538  0.23076923  0.00000000       0.011
   0.46153846  0.23076923  0.00000000       0.011
  -0.46153846  0.23076923  0.00000000       0.011
  -0.38461538  0.23076923  0.00000000       0.011
  -0.30769231  0.23076923 -0.00000000       0.011
  -0.23076923  0.23076923  0.00000000       0.005
   0.30769231  0.30769231  0.00000000       0.003
   0.38461538  0.30769231  0.00000000       0.011
   0.46153846  0.30769231  0.00000000       0.011
  -0.46153846  0.30769231  0.00000000       0.011
  -0.38461538  0.30769231  0.00000000       0.011
  -0.30769231  0.30769231 -0.00000000       0.005
   0.38461538  0.38461538  0.00000000       0.003
   0.46153846  0.38461538  0.00000000       0.011
  -0.46153846  0.38461538  0.00000000       0.011
  -0.38461538  0.38461538 -0.00000000       0.005
   0.46153846  0.46153846  0.00000000       0.003
  -0.46153846  0.46153846  0.00000000       0.005
   0.23076923  0.15384615  0.07692308       0.011
   0.30769231  0.15384615  0.07692308       0.022
   0.38461538  0.15384615  0.07692308       0.022
   0.46153846  0.15384615  0.07692308       0.022
  -0.46153846  0.15384615  0.07692308       0.022
   0.30769231  0.23076923  0.07692308       0.011
   0.38461538  0.23076923  0.07692308       0.022
   0.46153846  0.23076923  0.07692308       0.022
  -0.46153846  0.23076923  0.07692308       0.022
  -0.38461538  0.23076923  0.07692308       0.022
  -0.30769231  0.23076923  0.07692308       0.022
  -0.23076923  0.23076923  0.07692308       0.022
  -0.15384615  0.23076923  0.07692308       0.011
   0.38461538  0.30769231  0.07692308       0.011
   0.46153846  0.30769231  0.07692308       0.022
  -0.46153846  0.30769231  0.07692308       0.022
  -0.38461538  0.30769231  0.07692308       0.022
  -0.30769231  0.30769231  0.07692308       0.022
  -0.23076923  0.30769231  0.07692308       0.011
   0.46153846  0.38461538  0.07692308       0.011
  -0.46153846  0.38461538  0.07692308       0.022
  -0.38461538  0.38461538  0.07692308       0.022
  -0.30769231  0.38461538  0.07692308       0.011
  -0.46153846  0.46153846  0.07692308       0.011
  -0.38461538  0.46153846  0.07692308       0.011
   0.46153846  0.30769231  0.15384615       0.011
  -0.46153846  0.30769231  0.15384615       0.022
  -0.38461538  0.30769231  0.15384615       0.022
  -0.46153846  0.38461538  0.15384615       0.011
  -0.38461538  0.38461538  0.15384615       0.022
  -0.30769231  0.38461538  0.15384615       0.022
  -0.23076923  0.38461538  0.15384615       0.011
  -0.38461538  0.46153846  0.15384615       0.011
  -0.30769231  0.46153846  0.15384615       0.011
  -0.30769231  0.46153846  0.23076923       0.011

 position of ions in fractional coordinates (direct lattice)
   0.75000000  0.75000000  0.75000000
   0.25000000  0.25000000  0.25000000
   0.00000000  0.00000000  0.00000000

 position of ions in cartesian coordinates  (Angst):
   4.89131027  4.89131027  4.89131027
   1.63043676  1.63043676  1.63043676
   0.00000000  0.00000000  0.00000000



--------------------------------------------------------------------------------------------------------


 k-point  1 :   0.0000 0.0000 0.0000  plane waves:    2891
 k-point  2 :   0.0769-0.0000 0.0000  plane waves:    2885
 k-point  3 :   0.1538-0.0000 0.0000  plane waves:    2899
 k-point  4 :   0.2308 0.0000 0.0000  plane waves:    2899
 k-point  5 :   0.3077-0.0000 0.0000  plane waves:    2920
 k-point  6 :   0.3846-0.0000 0.0000  plane waves:    2914
 k-point  7 :   0.4615 0.0000-0.0000  plane waves:    2911
 k-point  8 :   0.0769 0.0769 0.0000  plane waves:    2890
 k-point  9 :   0.1538 0.0769 0.0000  plane waves:    2893
 k-point 10 :   0.2308 0.0769 0.0000  plane waves:    2905
 k-point 11 :   0.3077 0.0769 0.0000  plane waves:    2915
 k-point 12 :   0.3846 0.0769 0.0000  plane waves:    2916
 k-point 13 :   0.4615 0.0769 0.0000  plane waves:    2918
 k-point 14 :  -0.4615 0.0769-0.0000  plane waves:    2919
 k-point 15 :  -0.3846 0.0769-0.0000  plane waves:    2910
 k-point 16 :  -0.3077 0.0769-0.0000  plane waves:    2914
 k-point 17 :  -0.2308 0.0769-0.0000  plane waves:    2897
 k-point 18 :  -0.1538 0.0769-0.0000  plane waves:    2893
 k-point 19 :  -0.0769 0.0769-0.0000  plane waves:    2884
 k-point 20 :   0.1538 0.1538 0.0000  plane waves:    2894
 k-point 21 :   0.2308 0.1538 0.0000  plane waves:    2899
 k-point 22 :   0.3077 0.1538 0.0000  plane waves:    2906
 k-point 23 :   0.3846 0.1538 0.0000  plane waves:    2915
 k-point 24 :   0.4615 0.1538 0.0000  plane waves:    2916
 k-point 25 :  -0.4615 0.1538-0.0000  plane waves:    2912
 k-point 26 :  -0.3846 0.1538-0.0000  plane waves:    2918
 k-point 27 :  -0.3077 0.1538 0.0000  plane waves:    2921
 k-point 28 :  -0.2308 0.1538-0.0000  plane waves:    2914
 k-point 29 :  -0.1538 0.1538-0.0000  plane waves:    2902
 k-point 30 :   0.2308 0.2308 0.0000  plane waves:    2890
 k-point 31 :   0.3077 0.2308 0.0000  plane waves:    2907
 k-point 32 :   0.3846 0.2308 0.0000  plane waves:    2921
 k-point 33 :   0.4615 0.2308 0.0000  plane waves:    2923
 k-point 34 :  -0.4615 0.2308 0.0000  plane waves:    2917
 k-point 35 :  -0.3846 0.2308 0.0000  plane waves:    2920
 k-point 36 :  -0.3077 0.2308-0.0000  plane waves:    2925
 k-point 37 :  -0.2308 0.2308 0.0000  plane waves:    2914
 k-point 38 :   0.3077 0.3077 0.0000  plane waves:    2906
 k-point 39 :   0.3846 0.3077 0.0000  plane waves:    2907
 k-point 40 :   0.4615 0.3077 0.0000  plane waves:    2926
 k-point 41 :  -0.4615 0.3077 0.0000  plane waves:    2921
 k-point 42 :  -0.3846 0.3077 0.0000  plane waves:    2923
 k-point 43 :  -0.3077 0.3077-0.0000  plane waves:    2922
 k-point 44 :   0.3846 0.3846 0.0000  plane waves:    2922
 k-point 45 :   0.4615 0.3846 0.0000  plane waves:    2922
 k-point 46 :  -0.4615 0.3846 0.0000  plane waves:    2919
 k-point 47 :  -0.3846 0.3846-0.0000  plane waves:    2916
 k-point 48 :   0.4615 0.4615 0.0000  plane waves:    2918
 k-point 49 :  -0.4615 0.4615 0.0000  plane waves:    2914
 k-point 50 :   0.2308 0.1538 0.0769  plane waves:    2901
 k-point 51 :   0.3077 0.1538 0.0769  plane waves:    2907
 k-point 52 :   0.3846 0.1538 0.0769  plane waves:    2916
 k-point 53 :   0.4615 0.1538 0.0769  plane waves:    2915
 k-point 54 :  -0.4615 0.1538 0.0769  plane waves:    2924
 k-point 55 :   0.3077 0.2308 0.0769  plane waves:    2901
 k-point 56 :   0.3846 0.2308 0.0769  plane waves:    2915
 k-point 57 :   0.4615 0.2308 0.0769  plane waves:    2925
 k-point 58 :  -0.4615 0.2308 0.0769  plane waves:    2923
 k-point 59 :  -0.3846 0.2308 0.0769  plane waves:    2932
 k-point 60 :  -0.3077 0.2308 0.0769  plane waves:    2921
 k-point 61 :  -0.2308 0.2308 0.0769  plane waves:    2911
 k-point 62 :  -0.1538 0.2308 0.0769  plane waves:    2912
 k-point 63 :   0.3846 0.3077 0.0769  plane waves:    2911
 k-point 64 :   0.4615 0.3077 0.0769  plane waves:    2918
 k-point 65 :  -0.4615 0.3077 0.0769  plane waves:    2918
 k-point 66 :  -0.3846 0.3077 0.0769  plane waves:    2928
 k-point 67 :  -0.3077 0.3077 0.0769  plane waves:    2923
 k-point 68 :  -0.2308 0.3077 0.0769  plane waves:    2921
 k-point 69 :   0.4615 0.3846 0.0769  plane waves:    2914
 k-point 70 :  -0.4615 0.3846 0.0769  plane waves:    2913
 k-point 71 :  -0.3846 0.3846 0.0769  plane waves:    2921
 k-point 72 :  -0.3077 0.3846 0.0769  plane waves:    2926
 k-point 73 :  -0.4615 0.4615 0.0769  plane waves:    2920
 k-point 74 :  -0.3846 0.4615 0.0769  plane waves:    2909
 k-point 75 :   0.4615 0.3077 0.1538  plane waves:    2920
 k-point 76 :  -0.4615 0.3077 0.1538  plane waves:    2919
 k-point 77 :  -0.3846 0.3077 0.1538  plane waves:    2918
 k-point 78 :  -0.4615 0.3846 0.1538  plane waves:    2924
 k-point 79 :  -0.3846 0.3846 0.1538  plane waves:    2923
 k-point 80 :  -0.3077 0.3846 0.1538  plane waves:    2925
 k-point 81 :  -0.2308 0.3846 0.1538  plane waves:    2927
 k-point 82 :  -0.3846 0.4615 0.1538  plane waves:    2922
 k-point 83 :  -0.3077 0.4615 0.1538  plane waves:    2921
 k-point 84 :  -0.3077 0.4615 0.2308  plane waves:    2929

 maximum and minimum number of plane-waves per node :       740      709

 maximum number of plane-waves:      2932
 maximum index in each direction:
   IXMAX=   10   IYMAX=    9   IZMAX=    9
   IXMIN=  -10   IYMIN=  -10   IZMIN=  -10


 parallel 3D FFT for wavefunctions:
    minimum data exchange during FFTs selected (reduces bandwidth)
 parallel 3D FFT for charge:
    minimum data exchange during FFTs selected (reduces bandwidth)


 total amount of memory used by VASP MPI-rank0    68925. kBytes
=======================================================================

   base      :      30000. kBytes
   nonl-proj :      26888. kBytes
   fftplans  :       5205. kBytes
   grid      :       2732. kBytes
   one-center:         15. kBytes
   wavefun   :       4085. kBytes

     INWAV:  cpu time    0.0002: real time    0.0004
 Broyden mixing: mesh for mixing (old mesh)
   NGX = 19   NGY = 19   NGZ = 19
  (NGX  = 80   NGY  = 80   NGZ  = 80)
  gives a total of   6859 points

 initial charge density was supplied:
 charge density of overlapping atoms calculated
 number of electron      25.0000000 magnetization
 keeping initial charge density in first step


--------------------------------------------------------------------------------------------------------


 Maximum index for augmentation-charges        27141 (set IRDMAX)


--------------------------------------------------------------------------------------------------------


 First call to EWALD:  gamma=   0.431
 Maximum number of real-space cells 3x 3x 3
 Maximum number of reciprocal cells 3x 3x 3

    FEWALD:  cpu time    0.0052: real time    0.0062


--------------------------------------- Iteration      1(   1)  ---------------------------------------


    POTLOK:  cpu time    0.0445: real time    0.1305
    SETDIJ:  cpu time    0.0712: real time    0.0716
     EDDAV:  cpu time    0.9180: real time    0.9231
       DOS:  cpu time    0.0038: real time    0.0046
    --------------------------------------------
      LOOP:  cpu time    1.0379: real time    1.1315

 eigenvalue-minimisations  :  2688
 total energy-change (2. order) : 0.1375173E+03  (-0.1414824E+04)
 number of electron      25.0000000 magnetization
 augmentation part       25.0000000 magnetization

 Free energy of the ion-electron system (eV)
  ---------------------------------------------------
  alpha Z        PSCENC =        98.24055814
  Ewald energy   TEWEN  =     -1524.76308622
  -Hartree energ DENC   =      -338.21385050
  -exchange      EXHF   =         0.00000000
  -V(xc)+E(xc)   XCENC  =       -19.62194034
  PAW double counting   =      1514.36848356    -1421.27055995
  entropy T*S    EENTRO =        -0.00012744
  eigenvalues    EBANDS =        87.67327706
  atomic energy  EATOM  =      1741.10451121
  Solvation  Ediel_sol  =         0.00000000
  ---------------------------------------------------
  free energy    TOTEN  =       137.51726551 eV

  energy without entropy =      137.51739295  energy(sigma->0) =      137.51732923


--------------------------------------------------------------------------------------------------------




--------------------------------------- Iteration      1(   2)  ---------------------------------------


     EDDAV:  cpu time    1.1258: real time    1.1485
       DOS:  cpu time    0.0024: real time    0.0027
    --------------------------------------------
      LOOP:  cpu time    1.1282: real time    1.1514

 eigenvalue-minimisations  :  3400
 total energy-change (2. order) :-0.1573830E+03  (-0.1556949E+03)
 number of electron      25.0000000 magnetization
 augmentation part       25.0000000 magnetization

 Free energy of the ion-electron system (eV)
  ---------------------------------------------------
  alpha Z        PSCENC =        98.24055814
  Ewald energy   TEWEN  =     -1524.76308622
  -Hartree energ DENC   =      -338.21385050
  -exchange      EXHF   =         0.00000000
  -V(xc)+E(xc)   XCENC  =       -19.62194034
  PAW double counting   =      1514.36848356    -1421.27055995
  entropy T*S    EENTRO =        -0.00002435
  eigenvalues    EBANDS =       -69.70981113
  atomic energy  EATOM  =      1741.10451121
  Solvation  Ediel_sol  =         0.00000000
  ---------------------------------------------------
  free energy    TOTEN  =       -19.86571959 eV

  energy without entropy =      -19.86569524  energy(sigma->0) =      -19.86570742


--------------------------------------------------------------------------------------------------------




--------------------------------------- Iteration      1(   3)  ---------------------------------------


     EDDAV:  cpu time    1.2052: real time    1.2238
       DOS:  cpu time    0.0027: real time    0.0035
    --------------------------------------------
      LOOP:  cpu time    1.2080: real time    1.2290

 eigenvalue-minimisations  :  3664
 total energy-change (2. order) :-0.5048576E+01  (-0.4993126E+01)
 number of electron      25.0000000 magnetization
 augmentation part       25.0000000 magnetization

 Free energy of the ion-electron system (eV)
  ---------------------------------------------------
  alpha Z        PSCENC =        98.24055814
  Ewald energy   TEWEN  =     -1524.76308622
  -Hartree energ DENC   =      -338.21385050
  -exchange      EXHF   =         0.00000000
  -V(xc)+E(xc)   XCENC  =       -19.62194034
  PAW double counting   =      1514.36848356    -1421.27055995
  entropy T*S    EENTRO =        -0.00022599
  eigenvalues    EBANDS =       -74.75818510
  atomic energy  EATOM  =      1741.10451121
  Solvation  Ediel_sol  =         0.00000000
  ---------------------------------------------------
  free energy    TOTEN  =       -24.91429520 eV

  energy without entropy =      -24.91406921  energy(sigma->0) =      -24.91418220


--------------------------------------------------------------------------------------------------------




--------------------------------------- Iteration      1(   4)  ---------------------------------------


     EDDAV:  cpu time    1.0968: real time    1.1620
       DOS:  cpu time    0.0024: real time    0.0031
    --------------------------------------------
      LOOP:  cpu time    1.0992: real time    1.1636

 eigenvalue-minimisations  :  3352
 total energy-change (2. order) :-0.6670573E-01  (-0.6602469E-01)
 number of electron      25.0000000 magnetization
 augmentation part       25.0000000 magnetization

 Free energy of the ion-electron system (eV)
  ---------------------------------------------------
  alpha Z        PSCENC =        98.24055814
  Ewald energy   TEWEN  =     -1524.76308622
  -Hartree energ DENC   =      -338.21385050
  -exchange      EXHF   =         0.00000000
  -V(xc)+E(xc)   XCENC  =       -19.62194034
  PAW double counting   =      1514.36848356    -1421.27055995
  entropy T*S    EENTRO =        -0.00017960
  eigenvalues    EBANDS =       -74.82493722
  atomic energy  EATOM  =      1741.10451121
  Solvation  Ediel_sol  =         0.00000000
  ---------------------------------------------------
  free energy    TOTEN  =       -24.98100093 eV

  energy without entropy =      -24.98082133  energy(sigma->0) =      -24.98091113


--------------------------------------------------------------------------------------------------------




--------------------------------------- Iteration      1(   5)  ---------------------------------------


     EDDAV:  cpu time    1.2020: real time    1.2566
       DOS:  cpu time    0.0026: real time    0.0029
    CHARGE:  cpu time    0.2269: real time    0.2277
    MIXING:  cpu time    0.0068: real time    0.0070
    --------------------------------------------
      LOOP:  cpu time    1.4384: real time    1.5000

 eigenvalue-minimisations  :  3696
 total energy-change (2. order) :-0.1623545E-02  (-0.1622991E-02)
 number of electron      25.0000000 magnetization
 augmentation part        4.7665969 magnetization

 Broyden mixing:
  rms(total) = 0.37470E+01    rms(broyden)= 0.37470E+01
  rms(prec ) = 0.39935E+01
  weight for this iteration     100.00

 Free energy of the ion-electron system (eV)
  ---------------------------------------------------
  alpha Z        PSCENC =        98.24055814
  Ewald energy   TEWEN  =     -1524.76308622
  -Hartree energ DENC   =      -338.21385050
  -exchange      EXHF   =         0.00000000
  -V(xc)+E(xc)   XCENC  =       -19.62194034
  PAW double counting   =      1514.36848356    -1421.27055995
  entropy T*S    EENTRO =        -0.00018039
  eigenvalues    EBANDS =       -74.82655997
  atomic energy  EATOM  =      1741.10451121
  Solvation  Ediel_sol  =         0.00000000
  ---------------------------------------------------
  free energy    TOTEN  =       -24.98262447 eV

  energy without entropy =      -24.98244408  energy(sigma->0) =      -24.98253427


--------------------------------------------------------------------------------------------------------




--------------------------------------- Iteration      1(   6)  ---------------------------------------


    POTLOK:  cpu time    0.0684: real time    0.0932
    SETDIJ:  cpu time    0.0740: real time    0.0749
     EDDAV:  cpu time    1.1135: real time    1.1137
       DOS:  cpu time    0.0026: real time    0.0029
    CHARGE:  cpu time    0.1840: real time    0.1841
    MIXING:  cpu time    0.0066: real time    0.0068
    --------------------------------------------
      LOOP:  cpu time    1.4489: real time    1.4703

 eigenvalue-minimisations  :  3528
 total energy-change (2. order) : 0.8996562E+00  (-0.2075989E+00)
 number of electron      25.0000000 magnetization
 augmentation part        4.9238568 magnetization

 Broyden mixing:
  rms(total) = 0.23569E+01    rms(broyden)= 0.23569E+01
  rms(prec ) = 0.24233E+01
  weight for this iteration     100.00

 eigenvalues of (default mixing * dielectric matrix)
  average eigenvalue GAMMA=   2.6036
  2.6036

 Free energy of the ion-electron system (eV)
  ---------------------------------------------------
  alpha Z        PSCENC =        98.24055814
  Ewald energy   TEWEN  =     -1524.76308622
  -Hartree energ DENC   =      -322.90837583
  -exchange      EXHF   =         0.00000000
  -V(xc)+E(xc)   XCENC  =       -20.16265931
  PAW double counting   =      1852.52841351    -1761.75985385
  entropy T*S    EENTRO =        -0.00027852
  eigenvalues    EBANDS =       -86.36219736
  atomic energy  EATOM  =      1741.10451121
  Solvation  Ediel_sol  =         0.00000000
  ---------------------------------------------------
  free energy    TOTEN  =       -24.08296823 eV

  energy without entropy =      -24.08268971  energy(sigma->0) =      -24.08282897


--------------------------------------------------------------------------------------------------------




--------------------------------------- Iteration      1(   7)  ---------------------------------------


    POTLOK:  cpu time    0.0911: real time    0.1186
    SETDIJ:  cpu time    0.0670: real time    0.0672
     EDDAV:  cpu time    1.1762: real time    1.1765
       DOS:  cpu time    0.0026: real time    0.0028
    CHARGE:  cpu time    0.1653: real time    0.1654
    MIXING:  cpu time    0.0079: real time    0.0081
    --------------------------------------------
      LOOP:  cpu time    1.5102: real time    1.5376

 eigenvalue-minimisations  :  3840
 total energy-change (2. order) : 0.1442332E+00  (-0.1129584E+00)
 number of electron      25.0000000 magnetization
 augmentation part        5.0076485 magnetization

 Broyden mixing:
  rms(total) = 0.31617E+00    rms(broyden)= 0.31617E+00
  rms(prec ) = 0.41663E+00
  weight for this iteration     100.00

 eigenvalues of (default mixing * dielectric matrix)
  average eigenvalue GAMMA=   1.9140
  1.3225  2.5056

 Free energy of the ion-electron system (eV)
  ---------------------------------------------------
  alpha Z        PSCENC =        98.24055814
  Ewald energy   TEWEN  =     -1524.76308622
  -Hartree energ DENC   =      -312.87072670
  -exchange      EXHF   =         0.00000000
  -V(xc)+E(xc)   XCENC  =       -20.45916765
  PAW double counting   =      2330.28144303    -2242.26849094
  entropy T*S    EENTRO =        -0.00031084
  eigenvalues    EBANDS =       -93.20346510
  atomic energy  EATOM  =      1741.10451121
  Solvation  Ediel_sol  =         0.00000000
  ---------------------------------------------------
  free energy    TOTEN  =       -23.93873507 eV

  energy without entropy =      -23.93842423  energy(sigma->0) =      -23.93857965


--------------------------------------------------------------------------------------------------------




--------------------------------------- Iteration      1(   8)  ---------------------------------------


    POTLOK:  cpu time    0.0507: real time    0.0780
    SETDIJ:  cpu time    0.0669: real time    0.0670
     EDDAV:  cpu time    1.0751: real time    1.0753
       DOS:  cpu time    0.0026: real time    0.0029
    CHARGE:  cpu time    0.2028: real time    0.2032
    MIXING:  cpu time    0.0037: real time    0.0042
    --------------------------------------------
      LOOP:  cpu time    1.4018: real time    1.4309

 eigenvalue-minimisations  :  3360
 total energy-change (2. order) : 0.2278316E-01  (-0.4128188E-01)
 number of electron      25.0000000 magnetization
 augmentation part        5.0213370 magnetization

 Broyden mixing:
  rms(total) = 0.82580E-01    rms(broyden)= 0.82580E-01
  rms(prec ) = 0.20837E+00
  weight for this iteration     100.00

 eigenvalues of (default mixing * dielectric matrix)
  average eigenvalue GAMMA=   1.5005
  2.4192  1.3992  0.6830

 Free energy of the ion-electron system (eV)
  ---------------------------------------------------
  alpha Z        PSCENC =        98.24055814
  Ewald energy   TEWEN  =     -1524.76308622
  -Hartree energ DENC   =      -315.04271602
  -exchange      EXHF   =         0.00000000
  -V(xc)+E(xc)   XCENC  =       -20.35658975
  PAW double counting   =      2348.60477304    -2260.57594711
  entropy T*S    EENTRO =        -0.00033618
  eigenvalues    EBANDS =       -91.12711903
  atomic energy  EATOM  =      1741.10451121
  Solvation  Ediel_sol  =         0.00000000
  ---------------------------------------------------
  free energy    TOTEN  =       -23.91595192 eV

  energy without entropy =      -23.91561574  energy(sigma->0) =      -23.91578383


--------------------------------------------------------------------------------------------------------




--------------------------------------- Iteration      1(   9)  ---------------------------------------


    POTLOK:  cpu time    0.0652: real time    0.0912
    SETDIJ:  cpu time    0.0652: real time    0.0654
     EDDAV:  cpu time    1.0591: real time    1.0593
       DOS:  cpu time    0.0026: real time    0.0036
    CHARGE:  cpu time    0.1635: real time    0.1637
    MIXING:  cpu time    0.0039: real time    0.0042
    --------------------------------------------
      LOOP:  cpu time    1.3594: real time    1.3880

 eigenvalue-minimisations  :  3296
 total energy-change (2. order) : 0.1017620E-01  (-0.5648720E-02)
 number of electron      25.0000000 magnetization
 augmentation part        4.9928626 magnetization

 Broyden mixing:
  rms(total) = 0.23695E-01    rms(broyden)= 0.23695E-01
  rms(prec ) = 0.45595E-01
  weight for this iteration     100.00

 eigenvalues of (default mixing * dielectric matrix)
  average eigenvalue GAMMA=   1.4254
  2.4126  1.3308  1.3308  0.6274

 Free energy of the ion-electron system (eV)
  ---------------------------------------------------
  alpha Z        PSCENC =        98.24055814
  Ewald energy   TEWEN  =     -1524.76308622
  -Hartree energ DENC   =      -315.74807940
  -exchange      EXHF   =         0.00000000
  -V(xc)+E(xc)   XCENC  =       -20.33336047
  PAW double counting   =      2349.17092174    -2261.09432236
  entropy T*S    EENTRO =        -0.00043352
  eigenvalues    EBANDS =       -90.48248484
  atomic energy  EATOM  =      1741.10451121
  Solvation  Ediel_sol  =         0.00000000
  ---------------------------------------------------
  free energy    TOTEN  =       -23.90577572 eV

  energy without entropy =      -23.90534219  energy(sigma->0) =      -23.90555896


--------------------------------------------------------------------------------------------------------




--------------------------------------- Iteration      1(  10)  ---------------------------------------


    POTLOK:  cpu time    0.0581: real time    0.0995
    SETDIJ:  cpu time    0.0644: real time    0.0652
     EDDAV:  cpu time    1.1405: real time    1.1408
       DOS:  cpu time    0.0034: real time    0.0036
    CHARGE:  cpu time    0.1651: real time    0.1658
    MIXING:  cpu time    0.0047: real time    0.0052
    --------------------------------------------
      LOOP:  cpu time    1.4362: real time    1.4794

 eigenvalue-minimisations  :  3624
 total energy-change (2. order) : 0.1553059E-03  (-0.9518951E-03)
 number of electron      25.0000000 magnetization
 augmentation part        4.9916861 magnetization

 Broyden mixing:
  rms(total) = 0.28782E-01    rms(broyden)= 0.28782E-01
  rms(prec ) = 0.36214E-01
  weight for this iteration     100.00

 eigenvalues of (default mixing * dielectric matrix)
  average eigenvalue GAMMA=   1.3884
  2.5334  1.8039  1.0965  0.8291  0.6789

 Free energy of the ion-electron system (eV)
  ---------------------------------------------------
  alpha Z        PSCENC =        98.24055814
  Ewald energy   TEWEN  =     -1524.76308622
  -Hartree energ DENC   =      -315.55034806
  -exchange      EXHF   =         0.00000000
  -V(xc)+E(xc)   XCENC  =       -20.33846089
  PAW double counting   =      2359.96869628    -2271.85080770
  entropy T*S    EENTRO =        -0.00045308
  eigenvalues    EBANDS =       -90.71623009
  atomic energy  EATOM  =      1741.10451121
  Solvation  Ediel_sol  =         0.00000000
  ---------------------------------------------------
  free energy    TOTEN  =       -23.90562041 eV

  energy without entropy =      -23.90516733  energy(sigma->0) =      -23.90539387


--------------------------------------------------------------------------------------------------------




--------------------------------------- Iteration      1(  11)  ---------------------------------------


    POTLOK:  cpu time    0.0359: real time    0.0925
    SETDIJ:  cpu time    0.0677: real time    0.0680
     EDDAV:  cpu time    1.0644: real time    1.0650
       DOS:  cpu time    0.0026: real time    0.0047
    CHARGE:  cpu time    0.1605: real time    0.1619
    MIXING:  cpu time    0.0052: real time    0.0056
    --------------------------------------------
      LOOP:  cpu time    1.3364: real time    1.3976

 eigenvalue-minimisations  :  3416
 total energy-change (2. order) : 0.1633795E-03  (-0.1145019E-03)
 number of electron      25.0000000 magnetization
 augmentation part        4.9932558 magnetization

 Broyden mixing:
  rms(total) = 0.47487E-02    rms(broyden)= 0.47487E-02
  rms(prec ) = 0.54803E-02
  weight for this iteration     100.00

 eigenvalues of (default mixing * dielectric matrix)
  average eigenvalue GAMMA=   1.4230
  2.5973  2.1914  1.1901  0.9467  0.9467  0.6657

 Free energy of the ion-electron system (eV)
  ---------------------------------------------------
  alpha Z        PSCENC =        98.24055814
  Ewald energy   TEWEN  =     -1524.76308622
  -Hartree energ DENC   =      -315.71124058
  -exchange      EXHF   =         0.00000000
  -V(xc)+E(xc)   XCENC  =       -20.32956188
  PAW double counting   =      2364.57286646    -2276.42991473
  entropy T*S    EENTRO =        -0.00043500
  eigenvalues    EBANDS =       -90.58915442
  atomic energy  EATOM  =      1741.10451121
  Solvation  Ediel_sol  =         0.00000000
  ---------------------------------------------------
  free energy    TOTEN  =       -23.90545703 eV

  energy without entropy =      -23.90502203  energy(sigma->0) =      -23.90523953


--------------------------------------------------------------------------------------------------------




--------------------------------------- Iteration      1(  12)  ---------------------------------------


    POTLOK:  cpu time    0.0510: real time    0.0810
    SETDIJ:  cpu time    0.0657: real time    0.0661
     EDDAV:  cpu time    1.0810: real time    1.0815
       DOS:  cpu time    0.0026: real time    0.0042
    CHARGE:  cpu time    0.1608: real time    0.1612
    MIXING:  cpu time    0.0044: real time    0.0051
    --------------------------------------------
      LOOP:  cpu time    1.3655: real time    1.4001

 eigenvalue-minimisations  :  3320
 total energy-change (2. order) : 0.3228624E-06  (-0.3881075E-05)
 number of electron      25.0000000 magnetization
 augmentation part        4.9928438 magnetization

 Broyden mixing:
  rms(total) = 0.13181E-02    rms(broyden)= 0.13181E-02
  rms(prec ) = 0.15001E-02
  weight for this iteration     100.00

 eigenvalues of (default mixing * dielectric matrix)
  average eigenvalue GAMMA=   1.4979
  2.4714  2.2845  2.0296  1.0415  1.0415  0.9395  0.6774

 Free energy of the ion-electron system (eV)
  ---------------------------------------------------
  alpha Z        PSCENC =        98.24055814
  Ewald energy   TEWEN  =     -1524.76308622
  -Hartree energ DENC   =      -315.75170078
  -exchange      EXHF   =         0.00000000
  -V(xc)+E(xc)   XCENC  =       -20.32793866
  PAW double counting   =      2364.28009967    -2276.12181354
  entropy T*S    EENTRO =        -0.00043614
  eigenvalues    EBANDS =       -90.56565039
  atomic energy  EATOM  =      1741.10451121
  Solvation  Ediel_sol  =         0.00000000
  ---------------------------------------------------
  free energy    TOTEN  =       -23.90545671 eV

  energy without entropy =      -23.90502057  energy(sigma->0) =      -23.90523864


--------------------------------------------------------------------------------------------------------




--------------------------------------- Iteration      1(  13)  ---------------------------------------


    POTLOK:  cpu time    0.0305: real time    0.0886
    SETDIJ:  cpu time    0.0662: real time    0.0663
     EDDAV:  cpu time    1.1439: real time    1.1441
       DOS:  cpu time    0.0026: real time    0.0031
    CHARGE:  cpu time    0.1614: real time    0.1622
    MIXING:  cpu time    0.0050: real time    0.0056
    --------------------------------------------
      LOOP:  cpu time    1.4096: real time    1.4701

 eigenvalue-minimisations  :  3608
 total energy-change (2. order) : 0.1251171E-05  (-0.2647743E-06)
 number of electron      25.0000000 magnetization
 augmentation part        4.9927960 magnetization

 Broyden mixing:
  rms(total) = 0.62496E-03    rms(broyden)= 0.62495E-03
  rms(prec ) = 0.69910E-03
  weight for this iteration     100.00

 eigenvalues of (default mixing * dielectric matrix)
  average eigenvalue GAMMA=   1.4709
  2.5790  2.5790  1.9788  0.6758  1.0883  1.0361  0.9149  0.9149

 Free energy of the ion-electron system (eV)
  ---------------------------------------------------
  alpha Z        PSCENC =        98.24055814
  Ewald energy   TEWEN  =     -1524.76308622
  -Hartree energ DENC   =      -315.74542531
  -exchange      EXHF   =         0.00000000
  -V(xc)+E(xc)   XCENC  =       -20.32812369
  PAW double counting   =      2364.87041398    -2276.70702627
  entropy T*S    EENTRO =        -0.00043679
  eigenvalues    EBANDS =       -90.57684051
  atomic energy  EATOM  =      1741.10451121
  Solvation  Ediel_sol  =         0.00000000
  ---------------------------------------------------
  free energy    TOTEN  =       -23.90545546 eV

  energy without entropy =      -23.90501866  energy(sigma->0) =      -23.90523706


--------------------------------------------------------------------------------------------------------




--------------------------------------- Iteration      1(  14)  ---------------------------------------


    POTLOK:  cpu time    0.0308: real time    0.0857
    SETDIJ:  cpu time    0.0641: real time    0.0649
     EDDAV:  cpu time    0.8751: real time    0.8754
       DOS:  cpu time    0.0026: real time    0.0031
    --------------------------------------------
      LOOP:  cpu time    0.9726: real time    1.0274

 eigenvalue-minimisations  :  2472
 total energy-change (2. order) :-0.5904212E-08  (-0.1254389E-07)
 number of electron      25.0000000 magnetization
 augmentation part        4.9927960 magnetization

 Free energy of the ion-electron system (eV)
  ---------------------------------------------------
  alpha Z        PSCENC =        98.24055814
  Ewald energy   TEWEN  =     -1524.76308622
  -Hartree energ DENC   =      -315.74936296
  -exchange      EXHF   =         0.00000000
  -V(xc)+E(xc)   XCENC  =       -20.32786525
  PAW double counting   =      2365.08628623    -2276.92087663
  entropy T*S    EENTRO =        -0.00043677
  eigenvalues    EBANDS =       -90.57518321
  atomic energy  EATOM  =      1741.10451121
  Solvation  Ediel_sol  =         0.00000000
  ---------------------------------------------------
  free energy    TOTEN  =       -23.90545546 eV

  energy without entropy =      -23.90501869  energy(sigma->0) =      -23.90523708


--------------------------------------------------------------------------------------------------------




 average (electrostatic) potential at core
  the test charge radii are     1.1707  1.1712  1.2059
  (the norm of the test charge is              1.0000)
       1 -35.9597       2 -85.4916       3 -67.0878



 E-fermi :   8.0040     XC(G=0): -10.9807     alpha+bet :-12.6231


 k-point     1 :       0.0000    0.0000    0.0000
  band No.  band energies     occupation
      1     -24.3930      2.00000
      2     -24.3930      2.00000
      3     -24.3930      2.00000
      4      -4.2251      2.00000
      5       2.3900      2.00000
      6       2.3900      2.00000
      7       2.3900      2.00000
      8       3.1973      2.00000
      9       3.1973      2.00000
     10       6.5261      2.00000
     11       6.5261      2.00000
     12       6.5261      2.00000
     13       6.5891      2.00000
     14       8.7995      0.00000
     15       8.7995      0.00000
     16       8.7995      0.00000

 k-point     2 :       0.0769   -0.0000    0.0000
  band No.  band energies     occupation
      1     -24.3937      2.00000
      2     -24.3930      2.00000
      3     -24.3930      2.00000
      4      -4.1672      2.00000
      5       2.3067      2.00000
      6       2.3699      2.00000
      7       2.3699      2.00000
      8       3.2291      2.00000
      9       3.2291      2.00000
     10       5.8750      2.00000
     11       6.4597      2.00000
     12       6.4597      2.00000
     13       6.9892      2.00000
     14       8.6483      0.00000
     15       8.6483      0.00000
     16       9.1242      0.00000

 k-point     3 :       0.1538   -0.0000    0.0000
  band No.  band energies     occupation
      1     -24.3956      2.00000
      2     -24.3929      2.00000
      3     -24.3929      2.00000
      4      -3.9997      2.00000
      5       2.0779      2.00000
      6       2.3261      2.00000
      7       2.3261      2.00000
      8       3.3019      2.00000
      9       3.3019      2.00000
     10       5.0960      2.00000
     11       6.2932      2.00000
     12       6.2932      2.00000
     13       7.2569      2.00000
     14       8.5638      0.00000
     15       8.5638      0.00000
     16       9.8791      0.00000

 k-point     4 :       0.2308    0.0000    0.0000
  band No.  band energies     occupation
      1     -24.3983      2.00000
      2     -24.3929      2.00000
      3     -24.3929      2.00000
      4      -3.7419      2.00000
      5       1.7478      2.00000
      6       2.2865      2.00000
      7       2.2865      2.00000
      8       3.3727      2.00000
      9       3.3727      2.00000
     10       4.3871      2.00000
     11       6.0973      2.00000
     12       6.0973      2.00000
     13       7.4735      2.00000
     14       8.6032      0.00000
     15       8.6032      0.00000
     16      10.4537      0.00000

 k-point     5 :       0.3077   -0.0000    0.0000
  band No.  band energies     occupation
      1     -24.4012      2.00000
      2     -24.3928      2.00000
      3     -24.3928      2.00000
      4      -3.4312      2.00000
      5       1.3660      2.00000
      6       2.2657      2.00000
      7       2.2657      2.00000
      8       3.4111      2.00000
      9       3.4111      2.00000
     10       3.8394      2.00000
     11       5.9329      2.00000
     12       5.9329      2.00000
     13       7.6693      2.00000
     14       8.7330      0.00000
     15       8.7330      0.00000
     16      10.0674      0.00000

 k-point     6 :       0.3846   -0.0000    0.0000
  band No.  band energies     occupation
      1     -24.4036      2.00000
      2     -24.3928      2.00000
      3     -24.3928      2.00000
      4      -3.1313      2.00000
      5       1.0046      2.00000
      6       2.2631      2.00000
      7       2.2631      2.00000
      8       3.4139      2.00000
      9       3.4139      2.00000
     10       3.4847      2.00000
     11       5.8276      2.00000
     12       5.8276      2.00000
     13       7.8592      2.00000
     14       8.9046      0.00000
     15       8.9046      0.00000
     16       9.3952      0.00000

 k-point     7 :       0.4615    0.0000   -0.0000
  band No.  band energies     occupation
      1     -24.4049      2.00000
      2     -24.3928      2.00000
      3     -24.3928      2.00000
      4      -2.9367      2.00000
      5       0.7732      2.00000
      6       2.2675      2.00000
      7       2.2675      2.00000
      8       3.3152      2.00000
      9       3.4033      2.00000
     10       3.4033      2.00000
     11       5.7799      2.00000
     12       5.7799      2.00000
     13       8.0276      0.00087
     14       8.9445      0.00000
     15       9.0370      0.00000
     16       9.0370      0.00000

 k-point     8 :       0.0769    0.0769    0.0000
  band No.  band energies     occupation
      1     -24.3936      2.00000
      2     -24.3931      2.00000
      3     -24.3931      2.00000
      4      -4.1483      2.00000
      5       2.1865      2.00000
      6       2.4183      2.00000
      7       2.4183      2.00000
      8       3.2273      2.00000
      9       3.2388      2.00000
     10       5.8830      2.00000
     11       6.3369      2.00000
     12       6.3369      2.00000
     13       7.1036      2.00000
     14       8.4946      0.00000
     15       9.0621      0.00000
     16       9.0630      0.00000

 k-point     9 :       0.1538    0.0769    0.0000
  band No.  band energies     occupation
      1     -24.3951      2.00000
      2     -24.3932      2.00000
      3     -24.3930      2.00000
      4      -4.0183      2.00000
      5       1.9790      2.00000
      6       2.3988      2.00000
      7       2.4261      2.00000
      8       3.2819      2.00000
      9       3.2830      2.00000
     10       5.3139      2.00000
     11       6.1501      2.00000
     12       6.1927      2.00000
     13       7.3679      2.00000
     14       8.3656      0.00000
     15       8.8034      0.00000
     16       9.4922      0.00000

 k-point    10 :       0.2308    0.0769    0.0000
  band No.  band energies     occupation
      1     -24.3975      2.00000
      2     -24.3932      2.00000
      3     -24.3930      2.00000
      4      -3.7923      2.00000
      5       1.7223      2.00000
      6       2.3234      2.00000
      7       2.4078      2.00000
      8       3.3467      2.00000
      9       3.3557      2.00000
     10       4.6191      2.00000
     11       5.9650      2.00000
     12       6.0146      2.00000
     13       7.6475      2.00000
     14       8.3825      0.00000
     15       8.7103      0.00000
     16      10.0033      0.00000

 k-point    11 :       0.3077    0.0769    0.0000
  band No.  band energies     occupation
      1     -24.4003      2.00000
      2     -24.3931      2.00000
      3     -24.3930      2.00000
      4      -3.5012      2.00000
      5       1.4187      2.00000
      6       2.2554      2.00000
      7       2.3830      2.00000
      8       3.3974      2.00000
      9       3.4055      2.00000
     10       4.0211      2.00000
     11       5.8249      2.00000
     12       5.8420      2.00000
     13       7.7992      2.00000
     14       8.6115      0.00000
     15       8.7364      0.00000
     16      10.1283      0.00000

 k-point    12 :       0.3846    0.0769    0.0000
  band No.  band energies     occupation
      1     -24.4027      2.00000
      2     -24.3931      2.00000
      3     -24.3931      2.00000
      4      -3.1987      2.00000
      5       1.1023      2.00000
      6       2.2248      2.00000
      7       2.3573      2.00000
      8       3.4090      2.00000
      9       3.4191      2.00000
     10       3.6052      2.00000
     11       5.7111      2.00000
     12       5.7450      2.00000
     13       7.9041      2.00000
     14       8.8582      0.00000
     15       8.9037      0.00000
     16       9.5590      0.00000

 k-point    13 :       0.4615    0.0769    0.0000
  band No.  band energies     occupation
      1     -24.4044      2.00000
      2     -24.3932      2.00000
      3     -24.3929      2.00000
      4      -2.9672      2.00000
      5       0.8562      2.00000
      6       2.2326      2.00000
      7       2.3242      2.00000
      8       3.3255      2.00000
      9       3.4173      2.00000
     10       3.4480      2.00000
     11       5.6308      2.00000
     12       5.7170      2.00000
     13       8.0377      0.00000
     14       8.9543      0.00000
     15       9.0065      0.00000
     16       9.2118      0.00000

 k-point    14 :      -0.4615    0.0769   -0.0000
  band No.  band energies     occupation
      1     -24.4048      2.00000
      2     -24.3933      2.00000
      3     -24.3928      2.00000
      4      -2.8996      2.00000
      5       0.7847      2.00000
      6       2.2675      2.00000
      7       2.2795      2.00000
      8       3.2740      2.00000
[...]
  212              fftbas_plan_mpi                       0.061001                     12   6
  213                dfftw_execute                         0.026220                   36   7
  214                map_backward                          0.003721                   12   7
  215                  map_gather                            0.000723                  6   8
  216                  m_alltoallv_z                         0.001660                  6   8
  217                  map_scatter                           0.001042                  6   8
  218                map_forward                           0.027987                   12   7
  219                  map_gather                            0.015847                  6   8
  220                  m_alltoallv_z                         0.005476                  6   8
  221                  map_scatter                           0.006364                  6   8
  222            M_sumb_d                              0.005137                        6   5
  223          M_sumb_d                              0.000030                          1   4
  224        setdij_                               1.165580                           20   3
  225          fft3d_mpi                             0.215820                         40   4
  226            fftbas_plan_mpi                       0.198707                       40   5
  227              dfftw_execute                         0.086703                    120   6
  228              map_backward                          0.012412                     40   6
  229                map_gather                            0.002630                   20   7
  230                m_alltoallv_z                         0.005039                   20   7
  231                map_scatter                           0.003774                   20   7
  232              map_forward                           0.089167                     40   6
  233                map_gather                            0.050363                   20   7
  234                m_alltoallv_z                         0.016867                   20   7
  235                map_scatter                           0.020893                   20   7
  236          M_sumb_d                              0.013409                         20   4
  237        set_dd_magatom                        0.000004                            1   3
  238        set_dd_paw                            0.011034                            1   3
  239          set_rsgf_all                          0.000003                          1   4
  240          M_sumb_d                              0.010837                          8   4
  241        strkin                                0.001056                            1   3
  242          M_sumb_d                              0.000650                          1   4
  243        strelo                                0.002577                            1   3
  244          M_sumb_d                              0.000485                          2   4
  245        strenl                                0.746372                            1   3
  246          spher                                 0.593386                         19   4
  247          phase                                 0.012403                        189   4
  248          proj1                                 0.115553                        756   4
  249            crexp_mul_wave                        0.018526                     2268   5
  250            M_sumb_d                              0.028276                      756   5
  251          M_sumb_d                              0.012450                          1   4
  252        M_sumb_d                              0.000285                            6   3
  253        fft3d_mpi                             0.015210                           11   3
  254          fftbas_plan_mpi                       0.014223                         11   4
  255            dfftw_execute                         0.004807                       33   5
  256            map_forward                           0.002768                       10   5
  257              map_gather                            0.000585                      5   6
  258              m_alltoallv_z                         0.001299                      5   6
  259              map_scatter                           0.000646                      5   6
  260            map_backward                          0.004120                       12   5
  261              map_gather                            0.000847                      6   6
  262              m_alltoallv_z                         0.001830                      6   6
  263              map_scatter                           0.001153                      6   6
  264        ggaall_grid                           0.001513                            1   3
  265        forhar                                0.006504                            2   3
  266          M_sumb_d                              0.000617                          2   4
  267        strehar                               0.002672                            1   3
  268          M_sumb_d                              0.000110                          1   4
  269        chggra                                0.005619                            1   3
  270          fft3d_mpi                             0.003981                          3   4
  271            fftbas_plan_mpi                       0.003659                        3   5
  272              dfftw_execute                         0.001281                      9   6
  273              map_backward                          0.000614                      2   6
  274                map_gather                            0.000118                    1   7
  275                m_alltoallv_z                         0.000257                    1   7
  276                map_scatter                           0.000187                    1   7
  277              map_forward                           0.001027                      4   6
  278                map_gather                            0.000197                    2   7
  279                m_alltoallv_z                         0.000507                    2   7
  280                map_scatter                           0.000237                    2   7
  281          M_sumb_d                              0.000123                          3   4
  282        brmix                                 0.009626                            1   3
  283          M_sumb_d                              0.000251                          6   4
  284          brpre                                 0.000045                          1   4
  285          setg0                                 0.001089                          1   4
  286          broyd                                 0.001829                          1   4
  287            M_sumb_d                              0.000545                       16   5
  288            brget                                 0.000252                       54   5
  289            brsav                                 0.000105                       14   5
  290          M_bcast_z                             0.005473                          1   4
  291          M_bcast_d                             0.000054                          1   4
  292        M_bcast_d                             0.000046                            2   3
  293      potlok                                0.026764                              1   2
  294        fft3d_mpi                             0.018356                           13   3
  295          fftbas_plan_mpi                       0.017124                         13   4
  296            dfftw_execute                         0.005720                       39   5
  297            map_forward                           0.004063                       14   5
  298              map_gather                            0.000820                      8   6
  299              m_alltoallv_z                         0.001878                      8   6
  300              map_scatter                           0.000997                      8   6
  301            map_backward                          0.004272                       12   5
  302              map_gather                            0.000906                      6   6
  303              m_alltoallv_z                         0.001821                      6   6
  304              map_scatter                           0.001232                      6   6
  305        ggaall_grid                           0.001527                            1   3
  306        M_sumb_d                              0.000318                            6   3
  307        M_bcast_d                             0.000103                            1   3
  308      potlok_metagga                        0.000004                              1   2
  309      set_dd_magatom                        0.000004                              1   2
  310      set_dd_paw                            0.000371                              1   2
  311        set_rsgf_all                          0.000004                            1   3
  312        M_sumb_d                              0.000232                            8   3
  313      densta                                0.002039                              1   2
  314        M_sumb_d                              0.000774                           41   3
  315      lprj_proall                           0.000008                              1   2

 Flat profile
 ============

             routine name                   CPU           calls
 ---------------------------------------------------------------
 total_time                             12.727205           1
 eddav                                   2.969274          14
 dfftw_execute                           2.777460       27822
 fftbas_plan_mpi                         1.854543        9276
 setdij_                                 1.841894          38
 elmin                                   1.582413           1
 M_sumb_d                                1.417917       26330
 m_alltoallv_z                           1.060539        9295
 set_charge                              0.944210          10
 spher                                   0.663494          20
 M_alltoall_d                            0.620067       30464
 pdssyex_zheevx                          0.597051         294
 orth1                                   0.466627        6207
 vhamil                                  0.417394        4124
 proj1                                   0.411732        3788
 map_gather                              0.392237        9295
 fftwav_mpi                              0.358619        4896
 map_forward                             0.356272       10038
 map_scatter                             0.354749        9295
 gemm                                    0.350873       12372
 M_bcast_z                               0.346705        3769
 crpa_reader                             0.311170           1
 vnlac0                                  0.270969        4124
 redis_pw                                0.254635       11826
 redis_proj                              0.224372       14795
 hamiltmu                                0.223385        2062
 w1_copy                                 0.169131       12372
 fft3d_mpi                               0.166537        9274
 map_backward                            0.151134        8510
 work_mul_crexp                          0.134887       12372
 fftext_mpi                              0.130600        4124
 eccp                                    0.106163        1176
 crexp_mul_wave                          0.103352       11364
 kinhamil                                0.081434        4124
 overl                                   0.077840        7093
 force_and_stress                        0.075840           1
 potlok                                  0.069912          11
 M_bcast_d                               0.067734        2090
 overl1                                  0.051718        4124
 lincom                                  0.048834         315
 pw_charge                               0.046349         772
 apply_precond                           0.040143        2948
 setup_precond                           0.039116        1176
 phase                                   0.033921         526
 w1_projall                              0.032240        1474
 fornl                                   0.021563           1
 soft_charge                             0.019956          10
 ggaall_grid                             0.018365          12
 truncate_high_frequency_w1              0.018080        5300
 densta                                  0.017925          15
 strenl                                  0.012579           1
 setg0                                   0.011845          11
 brmix                                   0.009762          10
 broyd                                   0.005952          10
 forhar                                  0.005887           2
 set_dd_paw                              0.002923          12
 forloc                                  0.002907           1
 strehar                                 0.002562           1
 depsum                                  0.002365          10
 orthch                                  0.002100           1
 strelo                                  0.002092           1
 brgrid                                  0.001563           1
 chggra                                  0.001515           1
 brget                                   0.001376         309
 proj                                    0.001003          21
 choleski                                0.000844          21
 brpre                                   0.000803          10
 brsav                                   0.000715          96
 strkin                                  0.000406           1
 fordep                                  0.000120           1
 set_rsgf_all                            0.000059          12
 vectorpot                               0.000055          11
 set_dd_magatom                          0.000047          12
 potlok_metagga                          0.000046          11
 set_kineden                             0.000035           9
 rotate_active_occupied_orbital          0.000015           1
 lprj_proall                             0.000008           1
 redis_pw_over_bands                     0.000003           1
 ---------------------------------------------------------------
  summed up times    35.5881659984589

 Accumulative profile
 ====================

             routine name                   CPU           calls
 ---------------------------------------------------------------
 total_time                             35.588166           1
 elmin                                  19.364288           1
 eddav                                  15.185328          14
 fft3d_mpi                               7.093716        9274
 fftbas_plan_mpi                         6.946935        9276
 hamiltmu                                4.710182        2062
 fftwav_mpi                              3.874258        4896
 kinhamil                                3.009840        4124
 fftext_mpi                              2.928405        4124
 dfftw_execute                           2.777460       27822
 force_and_stress                        2.591889           1
 setdij_                                 2.313909          38
 set_charge                              1.746847          10
 M_sumb_d                                1.417917       26330
 map_forward                             1.380834       10038
 m_alltoallv_z                           1.060539        9295
 vnlac0                                  1.007845        4124
 map_backward                            0.934098        8510
 strenl                                  0.746372           1
 proj1                                   0.707477        3788
 soft_charge                             0.674452          10
 spher                                   0.663494          20
 M_alltoall_d                            0.620067       30464
 w1_projall                              0.611182        1474
 redis_pw                                0.601729       11826
 pdssyex_zheevx                          0.597051         294
 redis_proj                              0.497344       14795
 orth1                                   0.466627        6207
 vhamil                                  0.417394        4124
 map_gather                              0.392237        9295
 fordep                                  0.355015           1
 map_scatter                             0.354749        9295
 gemm                                    0.350873       12372
 M_bcast_z                               0.346705        3769
 crpa_reader                             0.311170           1
 potlok                                  0.288013          11
 eccp                                    0.175283        1176
 w1_copy                                 0.169131       12372
 work_mul_crexp                          0.134887       12372
 crexp_mul_wave                          0.103352       11364
 overl                                   0.077840        7093
 set_dd_paw                              0.070319          12
 M_bcast_d                               0.067734        2090
 setup_precond                           0.067096        1176
 brmix                                   0.055791          10
 overl1                                  0.051718        4124
 lincom                                  0.048834         315
 pw_charge                               0.046349         772
 apply_precond                           0.040143        2948
 phase                                   0.033921         526
 fornl                                   0.030052           1
 densta                                  0.029173          15
 orthch                                  0.025889           1
 ggaall_grid                             0.018365          12
 truncate_high_frequency_w1              0.018080        5300
 proj                                    0.013985          21
 setg0                                   0.011845          11
 broyd                                   0.011721          10
 forhar                                  0.006504           2
 chggra                                  0.005619           1
 depsum                                  0.005432          10
 forloc                                  0.002975           1
 strehar                                 0.002672           1
 strelo                                  0.002577           1
 brgrid                                  0.001563           1
 brget                                   0.001376         309
 strkin                                  0.001056           1
 choleski                                0.000844          21
 brpre                                   0.000803          10
 brsav                                   0.000715          96
 set_rsgf_all                            0.000059          12
 vectorpot                               0.000055          11
 set_dd_magatom                          0.000047          12
 potlok_metagga                          0.000046          11
 set_kineden                             0.000035           9
 rotate_active_occupied_orbital          0.000015           1
 lprj_proall                             0.000008           1
 redis_pw_over_bands                     0.000003           1
 ---------------------------------------------------------------

Profiling took   0.729600  0.882515  0.006369  0.004888 seconds
Profiling took   0.711278 seconds
