<?xml version="1.0" encoding="ISO-8859-1"?>
<modeling>
 <generator>
  <i name="program" type="string">vasp </i>
  <i name="version" type="string">6.0.8  </i>
  <i name="subversion" type="string">29Jun18 (build Jun 13 2019 12:54:44) complex                          parallel </i>
  <i name="platform" type="string">IFC18_CrayMPICH </i>
  <i name="date" type="string">2021 12 05 </i>
  <i name="time" type="string">14:21:50 </i>
 </generator>
 <incar>
  <i type="int" name="KPAR">     4</i>
  <i type="int" name="NPAR">     4</i>
  <i type="int" name="ISTART">     0</i>
  <i type="string" name="PREC"> ACC</i>
  <i type="string" name="ALGO"> Normal</i>
  <i type="logical" name="ADDGRID"> T  </i>
  <i type="int" name="ISPIN">     1</i>
  <i type="int" name="NELMIN">     5</i>
  <i type="int" name="IBRION">    -1</i>
  <i name="EDIFF">      0.00000010</i>
  <i type="int" name="NSW">     0</i>
  <i type="int" name="ISIF">     3</i>
  <i name="ENCUT">    700.00000000</i>
  <i type="logical" name="LREAL"> F  </i>
  <i type="int" name="ISMEAR">     0</i>
  <i name="SIGMA">      0.01000000</i>
  <i type="logical" name="LWAVE"> F  </i>
  <i type="logical" name="LCHARG"> F  </i>
  <i type="logical" name="LVTOT"> F  </i>
  <i type="string" name="ALGO"> Normal</i>
  <i type="string" name="GGA"> PS</i>
  <i name="EDIFF">      0.00000010</i>
  <i type="int" name="ISPIN">     1</i>
 </incar>
 <structure name="primitive_cell" >
  <crystal>
   <varray name="basis" >
    <v>       0.00000000       3.26087352       3.26087352 </v>
    <v>       3.26087352       0.00000000       3.26087352 </v>
    <v>       3.26087352       3.26087352       0.00000000 </v>
   </varray>
   <i name="volume">     69.34766714 </i>
   <varray name="rec_basis" >
    <v>      -0.15333315       0.15333315       0.15333315 </v>
    <v>       0.15333315      -0.15333315       0.15333315 </v>
    <v>       0.15333315       0.15333315      -0.15333315 </v>
   </varray>
  </crystal>
  <varray name="positions" >
   <v>       0.75000000       0.75000000       0.75000000 </v>
   <v>       0.25000000       0.25000000       0.25000000 </v>
   <v>       0.00000000       0.00000000       0.00000000 </v>
  </varray>
 </structure>
 <varray name="primitive_index" >
  <v type="int" >        1 </v>
  <v type="int" >        2 </v>
  <v type="int" >        3 </v>
 </varray>
 <kpoints>
  <generation param="Gamma">
   <v type="int" name="divisions">      13       13       13 </v>
   <v name="usershift">      0.00000000       0.00000000       0.00000000 </v>
   <v name="genvec1">      0.07692308       0.00000000      -0.00000000 </v>
   <v name="genvec2">      0.00000000       0.07692308       0.00000000 </v>
   <v name="genvec3">     -0.00000000      -0.00000000       0.07692308 </v>
   <v name="shift">      0.00000000       0.00000000       0.00000000 </v>
  </generation>
  <varray name="kpointlist" >
   <v>       0.00000000       0.00000000       0.00000000 </v>
   <v>       0.07692308      -0.00000000       0.00000000 </v>
   <v>       0.15384615      -0.00000000       0.00000000 </v>
   <v>       0.23076923       0.00000000       0.00000000 </v>
   <v>       0.30769231      -0.00000000       0.00000000 </v>
   <v>       0.38461538      -0.00000000       0.00000000 </v>
   <v>       0.46153846       0.00000000      -0.00000000 </v>
   <v>       0.07692308       0.07692308       0.00000000 </v>
   <v>       0.15384615       0.07692308       0.00000000 </v>
   <v>       0.23076923       0.07692308       0.00000000 </v>
   <v>       0.30769231       0.07692308       0.00000000 </v>
   <v>       0.38461538       0.07692308       0.00000000 </v>
   <v>       0.46153846       0.07692308       0.00000000 </v>
   <v>      -0.46153846       0.07692308      -0.00000000 </v>
   <v>      -0.38461538       0.07692308      -0.00000000 </v>
   <v>      -0.30769231       0.07692308      -0.00000000 </v>
   <v>      -0.23076923       0.07692308      -0.00000000 </v>
   <v>      -0.15384615       0.07692308      -0.00000000 </v>
   <v>      -0.07692308       0.07692308      -0.00000000 </v>
   <v>       0.15384615       0.15384615       0.00000000 </v>
   <v>       0.23076923       0.15384615       0.00000000 </v>
   <v>       0.30769231       0.15384615       0.00000000 </v>
   <v>       0.38461538       0.15384615       0.00000000 </v>
   <v>       0.46153846       0.15384615       0.00000000 </v>
   <v>      -0.46153846       0.15384615      -0.00000000 </v>
   <v>      -0.38461538       0.15384615      -0.00000000 </v>
   <v>      -0.30769231       0.15384615       0.00000000 </v>
   <v>      -0.23076923       0.15384615      -0.00000000 </v>
   <v>      -0.15384615       0.15384615      -0.00000000 </v>
   <v>       0.23076923       0.23076923       0.00000000 </v>
   <v>       0.30769231       0.23076923       0.00000000 </v>
   <v>       0.38461538       0.23076923       0.00000000 </v>
   <v>       0.46153846       0.23076923       0.00000000 </v>
   <v>      -0.46153846       0.23076923       0.00000000 </v>
   <v>      -0.38461538       0.23076923       0.00000000 </v>
   <v>      -0.30769231       0.23076923      -0.00000000 </v>
   <v>      -0.23076923       0.23076923       0.00000000 </v>
   <v>       0.30769231       0.30769231       0.00000000 </v>
   <v>       0.38461538       0.30769231       0.00000000 </v>
   <v>       0.46153846       0.30769231       0.00000000 </v>
   <v>      -0.46153846       0.30769231       0.00000000 </v>
   <v>      -0.38461538       0.30769231       0.00000000 </v>
   <v>      -0.30769231       0.30769231      -0.00000000 </v>
   <v>       0.38461538       0.38461538       0.00000000 </v>
   <v>       0.46153846       0.38461538       0.00000000 </v>
   <v>      -0.46153846       0.38461538       0.00000000 </v>
   <v>      -0.38461538       0.38461538      -0.00000000 </v>
   <v>       0.46153846       0.46153846       0.00000000 </v>
   <v>      -0.46153846       0.46153846       0.00000000 </v>
   <v>       0.23076923       0.15384615       0.07692308 </v>
   <v>       0.30769231       0.15384615       0.07692308 </v>
   <v>       0.38461538       0.15384615       0.07692308 </v>
   <v>       0.46153846       0.15384615       0.07692308 </v>
   <v>      -0.46153846       0.15384615       0.07692308 </v>
   <v>       0.30769231       0.23076923       0.07692308 </v>
   <v>       0.38461538       0.23076923       0.07692308 </v>
   <v>       0.46153846       0.23076923       0.07692308 </v>
   <v>      -0.46153846       0.23076923       0.07692308 </v>
   <v>      -0.38461538       0.23076923       0.07692308 </v>
   <v>      -0.30769231       0.23076923       0.07692308 </v>
   <v>      -0.23076923       0.23076923       0.07692308 </v>
   <v>      -0.15384615       0.23076923       0.07692308 </v>
   <v>       0.38461538       0.30769231       0.07692308 </v>
   <v>       0.46153846       0.30769231       0.07692308 </v>
   <v>      -0.46153846       0.30769231       0.07692308 </v>
   <v>      -0.38461538       0.30769231       0.07692308 </v>
   <v>      -0.30769231       0.30769231       0.07692308 </v>
   <v>      -0.23076923       0.30769231       0.07692308 </v>
   <v>       0.46153846       0.38461538       0.07692308 </v>
   <v>      -0.46153846       0.38461538       0.07692308 </v>
   <v>      -0.38461538       0.38461538       0.07692308 </v>
   <v>      -0.30769231       0.38461538       0.07692308 </v>
   <v>      -0.46153846       0.46153846       0.07692308 </v>
   <v>      -0.38461538       0.46153846       0.07692308 </v>
   <v>       0.46153846       0.30769231       0.15384615 </v>
   <v>      -0.46153846       0.30769231       0.15384615 </v>
   <v>      -0.38461538       0.30769231       0.15384615 </v>
   <v>      -0.46153846       0.38461538       0.15384615 </v>
   <v>      -0.38461538       0.38461538       0.15384615 </v>
   <v>      -0.30769231       0.38461538       0.15384615 </v>
   <v>      -0.23076923       0.38461538       0.15384615 </v>
   <v>      -0.38461538       0.46153846       0.15384615 </v>
   <v>      -0.30769231       0.46153846       0.15384615 </v>
   <v>      -0.30769231       0.46153846       0.23076923 </v>
  </varray>
  <varray name="weights" >
   <v>       0.00045517 </v>
   <v>       0.00364133 </v>
   <v>       0.00364133 </v>
   <v>       0.00364133 </v>
   <v>       0.00364133 </v>
   <v>       0.00364133 </v>
   <v>       0.00364133 </v>
   <v>       0.00273100 </v>
   <v>       0.01092399 </v>
   <v>       0.01092399 </v>
   <v>       0.01092399 </v>
   <v>       0.01092399 </v>
   <v>       0.01092399 </v>
   <v>       0.01092399 </v>
   <v>       0.01092399 </v>
   <v>       0.01092399 </v>
   <v>       0.01092399 </v>
   <v>       0.01092399 </v>
   <v>       0.00546199 </v>
   <v>       0.00273100 </v>
   <v>       0.01092399 </v>
   <v>       0.01092399 </v>
   <v>       0.01092399 </v>
   <v>       0.01092399 </v>
   <v>       0.01092399 </v>
   <v>       0.01092399 </v>
   <v>       0.01092399 </v>
   <v>       0.01092399 </v>
   <v>       0.00546199 </v>
   <v>       0.00273100 </v>
   <v>       0.01092399 </v>
   <v>       0.01092399 </v>
   <v>       0.01092399 </v>
   <v>       0.01092399 </v>
   <v>       0.01092399 </v>
   <v>       0.01092399 </v>
   <v>       0.00546199 </v>
   <v>       0.00273100 </v>
   <v>       0.01092399 </v>
   <v>       0.01092399 </v>
   <v>       0.01092399 </v>
   <v>       0.01092399 </v>
   <v>       0.00546199 </v>
   <v>       0.00273100 </v>
   <v>       0.01092399 </v>
   <v>       0.01092399 </v>
   <v>       0.00546199 </v>
   <v>       0.00273100 </v>
   <v>       0.00546199 </v>
   <v>       0.01092399 </v>
   <v>       0.02184797 </v>
   <v>       0.02184797 </v>
   <v>       0.02184797 </v>
   <v>       0.02184797 </v>
   <v>       0.01092399 </v>
   <v>       0.02184797 </v>
   <v>       0.02184797 </v>
   <v>       0.02184797 </v>
   <v>       0.02184797 </v>
   <v>       0.02184797 </v>
   <v>       0.02184797 </v>
   <v>       0.01092399 </v>
   <v>       0.01092399 </v>
   <v>       0.02184797 </v>
   <v>       0.02184797 </v>
   <v>       0.02184797 </v>
   <v>       0.02184797 </v>
   <v>       0.01092399 </v>
   <v>       0.01092399 </v>
   <v>       0.02184797 </v>
   <v>       0.02184797 </v>
   <v>       0.01092399 </v>
   <v>       0.01092399 </v>
   <v>       0.01092399 </v>
   <v>       0.01092399 </v>
   <v>       0.02184797 </v>
   <v>       0.02184797 </v>
   <v>       0.01092399 </v>
   <v>       0.02184797 </v>
   <v>       0.02184797 </v>
   <v>       0.01092399 </v>
   <v>       0.01092399 </v>
   <v>       0.01092399 </v>
   <v>       0.01092399 </v>
  </varray>
 </kpoints>
 <parameters>
  <separator name="general" >
   <i type="string" name="SYSTEM">unknown system</i>
   <i type="logical" name="LCOMPAT"> F  </i>
  </separator>
  <separator name="electronic" >
   <i type="string" name="PREC">acc</i>
   <i name="ENMAX">    700.00000000</i>
   <i name="ENAUG">    380.87800000</i>
   <i name="EDIFF">      0.00000010</i>
   <i type="int" name="IALGO">    38</i>
   <i type="int" name="IWAVPR">    10</i>
   <i type="int" name="NBANDS">    16</i>
   <i type="int" name="NBANDSLOW">    -1</i>
   <i type="int" name="NBANDSHIGH">    -1</i>
   <i name="NELECT">     25.00000000</i>
   <i type="int" name="TURBO">     0</i>
   <i type="int" name="IRESTART">     0</i>
   <i type="int" name="NREBOOT">     0</i>
   <i type="int" name="NMIN">     0</i>
   <i name="EREF">      0.00000000</i>
   <separator name="electronic smearing" >
    <i type="int" name="ISMEAR">     0</i>
    <i name="SIGMA">      0.01000000</i>
    <i name="KSPACING">      0.50000000</i>
    <i type="logical" name="KGAMMA"> T  </i>
    <i type="logical" name="KBLOWUP"> T  </i>
   </separator>
   <separator name="electronic projectors" >
    <i type="logical" name="LREAL"> F  </i>
    <v name="ROPT">      0.00000000      0.00000000      0.00000000</v>
    <i type="int" name="LMAXPAW">  -100</i>
    <i type="int" name="LMAXMIX">     2</i>
    <i type="logical" name="NLSPLINE"> F  </i>
   </separator>
   <separator name="electronic startup" >
    <i type="int" name="ISTART">     0</i>
    <i type="int" name="ICHARG">     2</i>
    <i type="int" name="INIWAV">     1</i>
   </separator>
   <separator name="electronic spin" >
    <i type="int" name="ISPIN">     1</i>
    <i type="logical" name="LNONCOLLINEAR"> F  </i>
    <v name="MAGMOM">      1.00000000      1.00000000      1.00000000</v>
    <i name="NUPDOWN">     -1.00000000</i>
    <i type="logical" name="LSORBIT"> F  </i>
    <v name="SAXIS">      0.00000000      0.00000000      1.00000000</v>
    <i type="logical" name="LSPIRAL"> F  </i>
    <v name="QSPIRAL">      0.00000000      0.00000000      0.00000000</v>
    <i type="logical" name="LZEROZ"> F  </i>
   </separator>
   <separator name="electronic exchange-correlation" >
    <i type="logical" name="LASPH"> F  </i>
    <i type="logical" name="LMETAGGA"> F  </i>
   </separator>
   <separator name="electronic convergence" >
    <i type="int" name="NELM">    60</i>
    <i type="int" name="NELMDL">    -5</i>
    <i type="int" name="NELMIN">     5</i>
    <i name="ENINI">    700.00000000</i>
    <separator name="electronic convergence detail" >
     <i type="logical" name="LDIAG"> T  </i>
     <i type="logical" name="LSUBROT"> F  </i>
     <i name="WEIMIN">      0.00000000</i>
     <i name="EBREAK">      0.00000000</i>
     <i name="DEPER">      0.30000000</i>
     <i type="int" name="NRMM">     4</i>
     <i name="TIME">      0.40000000</i>
    </separator>
   </separator>
   <separator name="electronic mixer" >
    <i name="AMIX">      0.40000000</i>
    <i name="BMIX">      1.00000000</i>
    <i name="AMIN">      0.10000000</i>
    <i name="AMIX_MAG">      1.60000000</i>
    <i name="BMIX_MAG">      1.00000000</i>
    <separator name="electronic mixer details" >
     <i type="int" name="IMIX">     4</i>
     <i type="logical" name="MIXFIRST"> F  </i>
     <i type="int" name="MAXMIX">   -45</i>
     <i name="WC">    100.00000000</i>
     <i type="int" name="INIMIX">     1</i>
     <i type="int" name="MIXPRE">     1</i>
     <i type="int" name="MREMOVE">     5</i>
    </separator>
   </separator>
   <separator name="electronic dipolcorrection" >
    <i type="logical" name="LDIPOL"> F  </i>
    <i type="logical" name="LMONO"> F  </i>
    <i type="int" name="IDIPOL">     0</i>
    <i name="EPSILON">      1.00000000</i>
    <v name="DIPOL">   -100.00000000   -100.00000000   -100.00000000</v>
    <i name="EFIELD">      0.00000000</i>
   </separator>
  </separator>
  <separator name="grids" >
   <i type="int" name="NGX">    40</i>
   <i type="int" name="NGY">    40</i>
   <i type="int" name="NGZ">    40</i>
   <i type="int" name="NGXF">    80</i>
   <i type="int" name="NGYF">    80</i>
   <i type="int" name="NGZF">    80</i>
   <i type="logical" name="ADDGRID"> T  </i>
  </separator>
  <separator name="ionic" >
   <i type="int" name="NSW">     0</i>
   <i type="int" name="IBRION">    -1</i>
   <i type="int" name="MDALGO">     0</i>
   <i type="int" name="ISIF">     3</i>
   <i name="PSTRESS">      0.00000000</i>
   <i name="EDIFFG">      0.00000100</i>
   <i type="int" name="NFREE">     0</i>
   <i name="POTIM">      0.50000000</i>
   <i name="SMASS">     -3.00000000</i>
   <i name="SCALEE">      1.00000000</i>
  </separator>
  <separator name="ionic md" >
   <i name="TEBEG">      0.00010000</i>
   <i name="TEEND">      0.00010000</i>
   <i type="int" name="NBLOCK">     1</i>
   <i type="int" name="KBLOCK">     1</i>
   <i type="int" name="NPACO">   256</i>
   <i name="APACO">     16.00000000</i>
  </separator>
  <separator name="symmetry" >
   <i type="int" name="ISYM">     2</i>
   <i name="SYMPREC">      0.00001000</i>
  </separator>
  <separator name="dos" >
   <i type="int" name="LORBIT">     0</i>
   <v name="RWIGS">     -1.00000000     -1.00000000     -1.00000000</v>
   <i type="int" name="NEDOS">   301</i>
   <i name="EMIN">     10.00000000</i>
   <i name="EMAX">    -10.00000000</i>
   <i name="EFERMI">      0.00000000</i>
  </separator>
  <separator name="writing" >
   <i type="int" name="NWRITE">     2</i>
   <i type="logical" name="LWAVE"> F  </i>
   <i type="logical" name="LDOWNSAMPLE"> F  </i>
   <i type="logical" name="LCHARG"> F  </i>
   <i type="logical" name="LPARD"> F  </i>
   <i type="logical" name="LVTOT"> F  </i>
   <i type="logical" name="LVHAR"> F  </i>
   <i type="logical" name="LELF"> F  </i>
   <i type="logical" name="LOPTICS"> F  </i>
   <v name="STM">      0.00000000      0.00000000      0.00000000      0.00000000      0.00000000      0.00000000      0.00000000</v>
  </separator>
  <separator name="performance" >
   <i type="int" name="NPAR">     4</i>
   <i type="int" name="NSIM">     4</i>
   <i type="int" name="NBLK">    -1</i>
   <i type="logical" name="LPLANE"> T  </i>
   <i type="logical" name="LSCALAPACK"> T  </i>
   <i type="logical" name="LSCAAWARE"> F  </i>
   <i type="logical" name="LSCALU"> F  </i>
   <i type="logical" name="LASYNC"> F  </i>
   <i type="logical" name="LORBITALREAL"> F  </i>
  </separator>
  <separator name="miscellaneous" >
   <i type="int" name="IDIOT">     3</i>
   <i type="int" name="PHON_NSTRUCT">    -1</i>
   <i type="logical" name="LMUSIC"> F  </i>
   <v name="POMASS">    178.49000000    121.75000000    195.08000000</v>
   <v name="DARWINR">      0.00000000      0.00000000      0.00000000</v>
   <v name="DARWINV">      1.00000000      1.00000000      1.00000000</v>
   <i type="logical" name="LCORR"> T  </i>
  </separator>
  <i type="logical" name="GGA_COMPAT"> T  </i>
  <i type="logical" name="LBERRY"> F  </i>
  <i type="int" name="ICORELEVEL">     0</i>
  <i type="logical" name="LDAU"> F  </i>
  <i type="int" name="I_CONSTRAINED_M">     0</i>
  <separator name="electronic exchange-correlation" >
   <i type="string" name="GGA">PS</i>
   <i type="int" name="VOSKOWN">     0</i>
   <i type="logical" name="LHFCALC"> F  </i>
   <i type="string" name="PRECFOCK"></i>
   <i type="logical" name="LSYMGRAD"> F  </i>
   <i type="logical" name="LHFONE"> F  </i>
   <i type="logical" name="LRHFCALC"> F  </i>
   <i type="logical" name="LTHOMAS"> F  </i>
   <i type="logical" name="LMODELHF"> F  </i>
   <i type="logical" name="LFOCKACE"> F  </i>
   <i name="ENCUT4O">     -1.00000000</i>
   <i type="int" name="EXXOEP">     0</i>
   <i type="int" name="FOURORBIT">     0</i>
   <i name="AEXX">      0.00000000</i>
   <i name="HFALPHA">      0.00000000</i>
   <i name="MCALPHA">      0.00000000</i>
   <i name="ALDAX">      1.00000000</i>
   <i name="AGGAX">      1.00000000</i>
   <i name="ALDAC">      1.00000000</i>
   <i name="AGGAC">      1.00000000</i>
   <i type="int" name="NKREDX">     1</i>
   <i type="int" name="NKREDY">     1</i>
   <i type="int" name="NKREDZ">     1</i>
   <i type="logical" name="SHIFTRED"> F  </i>
   <i type="logical" name="ODDONLY"> F  </i>
   <i type="logical" name="EVENONLY"> F  </i>
   <i type="int" name="LMAXFOCK">     0</i>
   <i type="int" name="NMAXFOCKAE">     0</i>
   <i type="logical" name="LFOCKAEDFT"> F  </i>
   <i name="HFSCREEN">      0.00000000</i>
   <i name="HFSCREENC">      0.00000000</i>
   <i type="int" name="NBANDSGWLOW">     0</i>
  </separator>
  <separator name="vdW DFT" >
   <i type="logical" name="LUSE_VDW"> F  </i>
   <i name="Zab_VDW">     -0.84910000</i>
   <i name="PARAM1">      0.12340000</i>
   <i name="PARAM2">      1.00000000</i>
   <i name="PARAM3">      0.00000000</i>
  </separator>
  <separator name="model GW" >
   <i type="int" name="MODEL_GW">     0</i>
   <i name="MODEL_EPS0">     13.86953343</i>
   <i name="MODEL_ALPHA">      1.00000000</i>
  </separator>
  <separator name="linear response parameters" >
   <i type="logical" name="LEPSILON"> F  </i>
   <i type="logical" name="LRPA"> F  </i>
   <i type="logical" name="LNABLA"> F  </i>
   <i type="logical" name="LVEL"> F  </i>
   <i type="int" name="KINTER">     0</i>
   <i name="CSHIFT">      0.10000000</i>
   <i name="OMEGAMAX">     -1.00000000</i>
   <i name="DEG_THRESHOLD">      0.00200000</i>
   <i name="RTIME">     -0.10000000</i>
   <i name="WPLASMAI">      0.00000000</i>
   <v name="DFIELD">      0.00000000      0.00000000      0.00000000</v>
   <v name="WPLASMA">      0.00000000      0.00000000      0.00000000      0.00000000      0.00000000      0.00000000      0.00000000      0.00000000      0.00000000</v>
  </separator>
  <separator name="orbital magnetization" >
   <i type="logical" name="NUCIND"> F  </i>
   <v name="MAGPOS">      0.00000000      0.00000000      0.00000000</v>
   <i type="logical" name="LNICSALL"> T  </i>
   <i type="logical" name="ORBITALMAG"> F  </i>
   <i type="logical" name="LMAGBLOCH"> F  </i>
   <i type="logical" name="LCHIMAG"> F  </i>
   <i type="logical" name="LGAUGE"> T  </i>
   <i type="int" name="MAGATOM">     0</i>
   <v name="MAGDIPOL">      0.00000000      0.00000000      0.00000000</v>
   <v name="AVECCONST">      0.00000000      0.00000000      0.00000000</v>
  </separator>
  <separator name="response functions" >
   <i type="logical" name="LFINITE_TEMPERATURE"> F  </i>
   <i type="logical" name="LADDER"> F  </i>
   <i type="logical" name="LRPAFORCE"> F  </i>
   <i type="logical" name="LFXC"> F  </i>
   <i type="logical" name="LHARTREE"> T  </i>
   <i type="int" name="IBSE">     0</i>
   <v type="int" name="KPOINT">    -1     0     0     0</v>
   <i type="logical" name="LTCTC"> F  </i>
   <i type="logical" name="LTCTE"> F  </i>
   <i type="logical" name="LTETE"> F  </i>
   <i type="logical" name="LTRIPLET"> F  </i>
   <i type="logical" name="LFXCEPS"> F  </i>
   <i type="logical" name="LFXHEG"> F  </i>
   <i type="int" name="NATURALO">     2</i>
   <i type="logical" name="L2ORDER"> F  </i>
   <i type="logical" name="LDMP1"> F  </i>
   <i type="logical" name="LMP2LT"> F  </i>
   <i type="logical" name="LSMP2LT"> F  </i>
   <i type="logical" name="LUSEW"> F  </i>
   <i name="ENCUTGW">     -2.00000000</i>
   <i name="ENCUTGWSOFT">     -2.00000000</i>
   <i name="ENCUTLF">     -1.00000000</i>
   <i type="int" name="LMAXMP2">    -1</i>
   <i name="SCISSOR">      0.00000000</i>
   <i type="int" name="NOMEGA">     0</i>
   <i type="int" name="NOMEGAR">     0</i>
   <i type="int" name="NBANDSGW">    -1</i>
   <i type="int" name="NBANDSO">    -1</i>
   <i type="int" name="NBANDSV">    -1</i>
   <i type="int" name="NELM">     1</i>
   <i type="int" name="NELMHF">     1</i>
   <i type="int" name="DIM">     3</i>
   <i type="int" name="IESPILON">     4</i>
   <i type="int" name="ANTIRES">     0</i>
   <i name="OMEGAMAX">    -30.00000000</i>
   <i name="OMEGAMIN">    -30.00000000</i>
   <i name="OMEGATL">   -200.00000000</i>
   <i type="int" name="OMEGAGRID">   145</i>
   <i name="CSHIFT">     -0.10000000</i>
   <i type="logical" name="LSELFENERGY"> F  </i>
   <i type="logical" name="LSPECTRAL"> F  </i>
   <i type="logical" name="LSPECTRALGW"> F  </i>
   <i type="logical" name="LSINGLES"> F  </i>
   <i type="logical" name="LFERMIGW"> F  </i>
   <i type="logical" name="ODDONLYGW"> F  </i>
   <i type="logical" name="EVENONLYGW"> F  </i>
   <i type="int" name="NKREDLFX">     1</i>
   <i type="int" name="NKREDLFY">     1</i>
   <i type="int" name="NKREDLFZ">     1</i>
   <i type="int" name="MAXMEM">  2800</i>
   <i type="int" name="TELESCOPE">     0</i>
   <i type="int" name="NTAUPAR">     1</i>
   <i type="int" name="NOMEGAPAR">    -1</i>
   <i name="LAMBDA">      1.00000000</i>
  </separator>
  <separator name="External order field" >
   <i name="OFIELD_KAPPA">      0.00000000</i>
   <v name="OFIELD_K">      0.00000000      0.00000000      0.00000000</v>
   <i name="OFIELD_Q6_NEAR">      0.00000000</i>
   <i name="OFIELD_Q6_FAR">      0.00000000</i>
   <i name="OFIELD_A">      0.00000000</i>
  </separator>
 </parameters>
 <atominfo>
  <atoms>       3 </atoms>
  <types>       3 </types>
  <array name="atoms" >
   <dimension dim="1">ion</dimension>
   <field type="string">element</field>
   <field type="int">atomtype</field>
   <set>
    <rc><c>Hf</c><c>   1</c></rc>
    <rc><c>Sb</c><c>   2</c></rc>
    <rc><c>Pt</c><c>   3</c></rc>
   </set>
  </array>
  <array name="atomtypes" >
   <dimension dim="1">type</dimension>
   <field type="int">atomspertype</field>
   <field type="string">element</field>
   <field>mass</field>
   <field>valence</field>
   <field type="string">pseudopotential</field>
   <set>
    <rc><c>   1</c><c>Hf</c><c>    178.49000000</c><c>     10.00000000</c><c>  PAW_PBE Hf_pv 06Sep2000               </c></rc>
    <rc><c>   1</c><c>Sb</c><c>    121.75000000</c><c>      5.00000000</c><c>  PAW_PBE Sb 06Sep2000                  </c></rc>
    <rc><c>   1</c><c>Pt</c><c>    195.08000000</c><c>     10.00000000</c><c>  PAW_PBE Pt 04Feb2005                  </c></rc>
   </set>
  </array>
 </atominfo>
 <structure name="initialpos" >
  <crystal>
   <varray name="basis" >
    <v>       0.00000000       3.26087352       3.26087352 </v>
    <v>       3.26087352       0.00000000       3.26087352 </v>
    <v>       3.26087352       3.26087352       0.00000000 </v>
   </varray>
   <i name="volume">     69.34766714 </i>
   <varray name="rec_basis" >
    <v>      -0.15333315       0.15333315       0.15333315 </v>
    <v>       0.15333315      -0.15333315       0.15333315 </v>
    <v>       0.15333315       0.15333315      -0.15333315 </v>
   </varray>
  </crystal>
  <varray name="positions" >
   <v>       0.75000000       0.75000000       0.75000000 </v>
   <v>       0.25000000       0.25000000       0.25000000 </v>
   <v>       0.00000000       0.00000000       0.00000000 </v>
  </varray>
 </structure>
 <calculation>
  <scstep>
   <time name="dav">    0.92    0.92</time>
   <time name="total">    1.04    1.13</time>
   <energy>
    <i name="alphaZ">     98.24055814 </i>
    <i name="ewald">  -1524.76308622 </i>
    <i name="hartreedc">   -338.21385050 </i>
    <i name="XCdc">    -19.62194034 </i>
    <i name="pawpsdc">   1514.36848356 </i>
    <i name="pawaedc">  -1421.27055995 </i>
    <i name="eentropy">     -0.00012744 </i>
    <i name="bandstr">     87.67327706 </i>
    <i name="atom">   1741.10451121 </i>
    <i name="e_fr_energy">    137.51726551 </i>
    <i name="e_wo_entrp">    137.51739295 </i>
    <i name="e_0_energy">    137.51732923 </i>
   </energy>
  </scstep>
  <scstep>
   <time name="dav">    1.13    1.15</time>
   <time name="total">    1.13    1.15</time>
   <energy>
    <i name="e_fr_energy">    -19.86571959 </i>
    <i name="e_wo_entrp">    -19.86569524 </i>
    <i name="e_0_energy">    -19.86570742 </i>
   </energy>
  </scstep>
  <scstep>
   <time name="dav">    1.21    1.22</time>
   <time name="total">    1.21    1.23</time>
   <energy>
    <i name="e_fr_energy">    -24.91429520 </i>
    <i name="e_wo_entrp">    -24.91406921 </i>
    <i name="e_0_energy">    -24.91418220 </i>
   </energy>
  </scstep>
  <scstep>
   <time name="dav">    1.10    1.16</time>
   <time name="total">    1.10    1.16</time>
   <energy>
    <i name="e_fr_energy">    -24.98100093 </i>
    <i name="e_wo_entrp">    -24.98082133 </i>
    <i name="e_0_energy">    -24.98091113 </i>
   </energy>
  </scstep>
  <scstep>
   <time name="dav">    1.20    1.26</time>
   <time name="total">    1.44    1.50</time>
   <energy>
    <i name="e_fr_energy">    -24.98262447 </i>
    <i name="e_wo_entrp">    -24.98244408 </i>
    <i name="e_0_energy">    -24.98253427 </i>
   </energy>
  </scstep>
  <scstep>
   <time name="dav">    1.11    1.11</time>
   <time name="total">    1.45    1.47</time>
   <energy>
    <i name="e_fr_energy">    -24.08296823 </i>
    <i name="e_wo_entrp">    -24.08268971 </i>
    <i name="e_0_energy">    -24.08282897 </i>
   </energy>
  </scstep>
  <scstep>
   <time name="dav">    1.18    1.18</time>
   <time name="total">    1.51    1.54</time>
   <energy>
    <i name="e_fr_energy">    -23.93873507 </i>
    <i name="e_wo_entrp">    -23.93842423 </i>
    <i name="e_0_energy">    -23.93857965 </i>
   </energy>
  </scstep>
  <scstep>
   <time name="dav">    1.08    1.08</time>
   <time name="total">    1.40    1.43</time>
   <energy>
    <i name="e_fr_energy">    -23.91595192 </i>
    <i name="e_wo_entrp">    -23.91561574 </i>
    <i name="e_0_energy">    -23.91578383 </i>
   </energy>
  </scstep>
  <scstep>
   <time name="dav">    1.06    1.06</time>
   <time name="total">    1.36    1.39</time>
   <energy>
    <i name="e_fr_energy">    -23.90577572 </i>
    <i name="e_wo_entrp">    -23.90534219 </i>
    <i name="e_0_energy">    -23.90555896 </i>
   </energy>
  </scstep>
  <scstep>
   <time name="dav">    1.14    1.14</time>
   <time name="total">    1.44    1.48</time>
   <energy>
    <i name="e_fr_energy">    -23.90562041 </i>
    <i name="e_wo_entrp">    -23.90516733 </i>
    <i name="e_0_energy">    -23.90539387 </i>
   </energy>
  </scstep>
  <scstep>
   <time name="dav">    1.06    1.07</time>
   <time name="total">    1.34    1.40</time>
   <energy>
    <i name="e_fr_energy">    -23.90545703 </i>
    <i name="e_wo_entrp">    -23.90502203 </i>
    <i name="e_0_energy">    -23.90523953 </i>
   </energy>
  </scstep>
  <scstep>
   <time name="dav">    1.08    1.08</time>
   <time name="total">    1.37    1.40</time>
   <energy>
    <i name="e_fr_energy">    -23.90545671 </i>
    <i name="e_wo_entrp">    -23.90502057 </i>
    <i name="e_0_energy">    -23.90523864 </i>
   </energy>
  </scstep>
  <scstep>
   <time name="dav">    1.14    1.14</time>
   <time name="total">    1.41    1.47</time>
   <energy>
    <i name="e_fr_energy">    -23.90545546 </i>
    <i name="e_wo_entrp">    -23.90501866 </i>
    <i name="e_0_energy">    -23.90523706 </i>
   </energy>
  </scstep>
  <scstep>
   <time name="dav">    0.88    0.88</time>
   <time name="total">    0.97    1.03</time>
   <energy>
    <i name="alphaZ">     98.24055814 </i>
    <i name="ewald">  -1524.76308622 </i>
    <i name="hartreedc">   -315.74936296 </i>
    <i name="XCdc">    -20.32786525 </i>
    <i name="pawpsdc">   2365.08628623 </i>
    <i name="pawaedc">  -2276.92087663 </i>
    <i name="eentropy">     -0.00043677 </i>
    <i name="bandstr">    -90.57518321 </i>
    <i name="atom">   1741.10451121 </i>
    <i name="e_fr_energy">    -23.90545546 </i>
    <i name="e_wo_entrp">    -23.90501869 </i>
    <i name="e_0_energy">    -23.90523708 </i>
   </energy>
  </scstep>
  <structure>
   <crystal>
    <varray name="basis" >
     <v>       0.00000000       3.26087352       3.26087352 </v>
     <v>       3.26087352       0.00000000       3.26087352 </v>
     <v>       3.26087352       3.26087352       0.00000000 </v>
    </varray>
    <i name="volume">     69.34766714 </i>
    <varray name="rec_basis" >
     <v>      -0.15333315       0.15333315       0.15333315 </v>
     <v>       0.15333315      -0.15333315       0.15333315 </v>
     <v>       0.15333315       0.15333315      -0.15333315 </v>
    </varray>
   </crystal>
   <varray name="positions" >
    <v>       0.75000000       0.75000000       0.75000000 </v>
    <v>       0.25000000       0.25000000       0.25000000 </v>
    <v>       0.00000000       0.00000000       0.00000000 </v>
   </varray>
  </structure>
  <varray name="forces" >
   <v>      -0.00000000       0.00000000      -0.00000000 </v>
   <v>      -0.00000000       0.00000000      -0.00000000 </v>
   <v>       0.00000000      -0.00000000       0.00000000 </v>
  </varray>
  <varray name="stress" >
   <v>     -89.89908981       0.00000000      -0.00000000 </v>
   <v>       0.00000000     -89.89908981      -0.00000000 </v>
   <v>      -0.00000000       0.00000000     -89.89908981 </v>
  </varray>
  <energy>
   <i name="e_fr_energy">    -23.90545546 </i>
   <i name="e_wo_entrp">    -23.90523708 </i>
   <i name="e_0_energy">     -0.00043677 </i>
  </energy>
  <time name="totalsc">   20.91   22.14</time>
  <eigenvalues>
   <array>
    <dimension dim="1">band</dimension>
    <dimension dim="2">kpoint</dimension>
    <dimension dim="3">spin</dimension>
    <field>eigene</field>
    <field>occ</field>
    <set>
     <set comment="spin 1">
      <set comment="kpoint 1">
       <r>  -24.3930    1.0000 </r>
       <r>  -24.3930    1.0000 </r>
       <r>  -24.3930    1.0000 </r>
       <r>   -4.2251    1.0000 </r>
       <r>    2.3900    1.0000 </r>
       <r>    2.3900    1.0000 </r>
       <r>    2.3900    1.0000 </r>
       <r>    3.1973    1.0000 </r>
       <r>    3.1973    1.0000 </r>
       <r>    6.5261    1.0000 </r>
       <r>    6.5261    1.0000 </r>
       <r>    6.5261    1.0000 </r>
       <r>    6.5891    1.0000 </r>
       <r>    8.7995    0.0000 </r>
       <r>    8.7995    0.0000 </r>
       <r>    8.7995    0.0000 </r>
      </set>
      <set comment="kpoint 2">
       <r>  -24.3937    1.0000 </r>
       <r>  -24.3930    1.0000 </r>
       <r>  -24.3930    1.0000 </r>
       <r>   -4.1672    1.0000 </r>
       <r>    2.3067    1.0000 </r>
       <r>    2.3699    1.0000 </r>
       <r>    2.3699    1.0000 </r>
       <r>    3.2291    1.0000 </r>
       <r>    3.2291    1.0000 </r>
       <r>    5.8750    1.0000 </r>
       <r>    6.4597    1.0000 </r>
       <r>    6.4597    1.0000 </r>
       <r>    6.9892    1.0000 </r>
       <r>    8.6483    0.0000 </r>
       <r>    8.6483    0.0000 </r>
       <r>    9.1242    0.0000 </r>
      </set>
      <set comment="kpoint 3">
       <r>  -24.3956    1.0000 </r>
       <r>  -24.3929    1.0000 </r>
       <r>  -24.3929    1.0000 </r>
       <r>   -3.9997    1.0000 </r>
       <r>    2.0779    1.0000 </r>
       <r>    2.3261    1.0000 </r>
       <r>    2.3261    1.0000 </r>
       <r>    3.3019    1.0000 </r>
       <r>    3.3019    1.0000 </r>
       <r>    5.0960    1.0000 </r>
       <r>    6.2932    1.0000 </r>
       <r>    6.2932    1.0000 </r>
       <r>    7.2569    1.0000 </r>
       <r>    8.5638    0.0000 </r>
       <r>    8.5638    0.0000 </r>
       <r>    9.8791    0.0000 </r>
      </set>
      <set comment="kpoint 4">
       <r>  -24.3983    1.0000 </r>
       <r>  -24.3929    1.0000 </r>
       <r>  -24.3929    1.0000 </r>
       <r>   -3.7419    1.0000 </r>
       <r>    1.7478    1.0000 </r>
       <r>    2.2865    1.0000 </r>
       <r>    2.2865    1.0000 </r>
       <r>    3.3727    1.0000 </r>
       <r>    3.3727    1.0000 </r>
       <r>    4.3871    1.0000 </r>
       <r>    6.0973    1.0000 </r>
       <r>    6.0973    1.0000 </r>
       <r>    7.4735    1.0000 </r>
       <r>    8.6032    0.0000 </r>
       <r>    8.6032    0.0000 </r>
       <r>   10.4537    0.0000 </r>
      </set>
      <set comment="kpoint 5">
       <r>  -24.4012    1.0000 </r>
       <r>  -24.3928    1.0000 </r>
       <r>  -24.3928    1.0000 </r>
       <r>   -3.4312    1.0000 </r>
       <r>    1.3660    1.0000 </r>
       <r>    2.2657    1.0000 </r>
       <r>    2.2657    1.0000 </r>
       <r>    3.4111    1.0000 </r>
       <r>    3.4111    1.0000 </r>
       <r>    3.8394    1.0000 </r>
       <r>    5.9329    1.0000 </r>
       <r>    5.9329    1.0000 </r>
       <r>    7.6693    1.0000 </r>
       <r>    8.7330    0.0000 </r>
       <r>    8.7330    0.0000 </r>
       <r>   10.0674    0.0000 </r>
      </set>
      <set comment="kpoint 6">
       <r>  -24.4036    1.0000 </r>
       <r>  -24.3928    1.0000 </r>
       <r>  -24.3928    1.0000 </r>
       <r>   -3.1313    1.0000 </r>
       <r>    1.0046    1.0000 </r>
       <r>    2.2631    1.0000 </r>
       <r>    2.2631    1.0000 </r>
       <r>    3.4139    1.0000 </r>
       <r>    3.4139    1.0000 </r>
       <r>    3.4847    1.0000 </r>
       <r>    5.8276    1.0000 </r>
       <r>    5.8276    1.0000 </r>
       <r>    7.8592    1.0000 </r>
       <r>    8.9046    0.0000 </r>
       <r>    8.9046    0.0000 </r>
       <r>    9.3952    0.0000 </r>
      </set>
      <set comment="kpoint 7">
       <r>  -24.4049    1.0000 </r>
       <r>  -24.3928    1.0000 </r>
       <r>  -24.3928    1.0000 </r>
       <r>   -2.9367    1.0000 </r>
       <r>    0.7732    1.0000 </r>
       <r>    2.2675    1.0000 </r>
       <r>    2.2675    1.0000 </r>
       <r>    3.3152    1.0000 </r>
       <r>    3.4033    1.0000 </r>
       <r>    3.4033    1.0000 </r>
       <r>    5.7799    1.0000 </r>
       <r>    5.7799    1.0000 </r>
       <r>    8.0276    0.0004 </r>
       <r>    8.9445    0.0000 </r>
       <r>    9.0370    0.0000 </r>
       <r>    9.0370    0.0000 </r>
      </set>
      <set comment="kpoint 8">
       <r>  -24.3936    1.0000 </r>
       <r>  -24.3931    1.0000 </r>
       <r>  -24.3931    1.0000 </r>
       <r>   -4.1483    1.0000 </r>
       <r>    2.1865    1.0000 </r>
       <r>    2.4183    1.0000 </r>
       <r>    2.4183    1.0000 </r>
       <r>    3.2273    1.0000 </r>
       <r>    3.2388    1.0000 </r>
       <r>    5.8830    1.0000 </r>
       <r>    6.3369    1.0000 </r>
       <r>    6.3369    1.0000 </r>
       <r>    7.1036    1.0000 </r>
       <r>    8.4946    0.0000 </r>
       <r>    9.0621    0.0000 </r>
       <r>    9.0630    0.0000 </r>
      </set>
      <set comment="kpoint 9">
       <r>  -24.3951    1.0000 </r>
       <r>  -24.3932    1.0000 </r>
       <r>  -24.3930    1.0000 </r>
       <r>   -4.0183    1.0000 </r>
       <r>    1.9790    1.0000 </r>
       <r>    2.3988    1.0000 </r>
       <r>    2.4261    1.0000 </r>
       <r>    3.2819    1.0000 </r>
       <r>    3.2830    1.0000 </r>
       <r>    5.3139    1.0000 </r>
       <r>    6.1501    1.0000 </r>
       <r>    6.1927    1.0000 </r>
       <r>    7.3679    1.0000 </r>
       <r>    8.3656    0.0000 </r>
       <r>    8.8034    0.0000 </r>
       <r>    9.4922    0.0000 </r>
      </set>
      <set comment="kpoint 10">
       <r>  -24.3975    1.0000 </r>
       <r>  -24.3932    1.0000 </r>
       <r>  -24.3930    1.0000 </r>
       <r>   -3.7923    1.0000 </r>
       <r>    1.7223    1.0000 </r>
       <r>    2.3234    1.0000 </r>
       <r>    2.4078    1.0000 </r>
       <r>    3.3467    1.0000 </r>
       <r>    3.3557    1.0000 </r>
       <r>    4.6191    1.0000 </r>
       <r>    5.9650    1.0000 </r>
       <r>    6.0146    1.0000 </r>
       <r>    7.6475    1.0000 </r>
       <r>    8.3825    0.0000 </r>
       <r>    8.7103    0.0000 </r>
       <r>   10.0033    0.0000 </r>
      </set>
      <set comment="kpoint 11">
       <r>  -24.4003    1.0000 </r>
       <r>  -24.3931    1.0000 </r>
       <r>  -24.3930    1.0000 </r>
       <r>   -3.5012    1.0000 </r>
       <r>    1.4187    1.0000 </r>
       <r>    2.2554    1.0000 </r>
       <r>    2.3830    1.0000 </r>
       <r>    3.3974    1.0000 </r>
       <r>    3.4055    1.0000 </r>
       <r>    4.0211    1.0000 </r>
       <r>    5.8249    1.0000 </r>
       <r>    5.8420    1.0000 </r>
       <r>    7.7992    1.0000 </r>
       <r>    8.6115    0.0000 </r>
       <r>    8.7364    0.0000 </r>
       <r>   10.1283    0.0000 </r>
      </set>
      <set comment="kpoint 12">
       <r>  -24.4027    1.0000 </r>
       <r>  -24.3931    1.0000 </r>
       <r>  -24.3931    1.0000 </r>
       <r>   -3.1987    1.0000 </r>
       <r>    1.1023    1.0000 </r>
       <r>    2.2248    1.0000 </r>
       <r>    2.3573    1.0000 </r>
       <r>    3.4090    1.0000 </r>
       <r>    3.4191    1.0000 </r>
       <r>    3.6052    1.0000 </r>
       <r>    5.7111    1.0000 </r>
       <r>    5.7450    1.0000 </r>
       <r>    7.9041    1.0000 </r>
       <r>    8.8582    0.0000 </r>
       <r>    8.9037    0.0000 </r>
       <r>    9.5590    0.0000 </r>
      </set>
      <set comment="kpoint 13">
       <r>  -24.4044    1.0000 </r>
       <r>  -24.3932    1.0000 </r>
       <r>  -24.3929    1.0000 </r>
       <r>   -2.9672    1.0000 </r>
       <r>    0.8562    1.0000 </r>
       <r>    2.2326    1.0000 </r>
       <r>    2.3242    1.0000 </r>
       <r>    3.3255    1.0000 </r>
       <r>    3.4173    1.0000 </r>
       <r>    3.4480    1.0000 </r>
       <r>    5.6308    1.0000 </r>
       <r>    5.7170    1.0000 </r>
       <r>    8.0377    0.0000 </r>
       <r>    8.9543    0.0000 </r>
       <r>    9.0065    0.0000 </r>
       <r>    9.2118    0.0000 </r>
      </set>
      <set comment="kpoint 14">
       <r>  -24.4048    1.0000 </r>
       <r>  -24.3933    1.0000 </r>
       <r>  -24.3928    1.0000 </r>
       <r>   -2.8996    1.0000 </r>
       <r>    0.7847    1.0000 </r>
       <r>    2.2675    1.0000 </r>
       <r>    2.2795    1.0000 </r>
       <r>    3.2740    1.0000 </r>
       <r>    3.4250    1.0000 </r>
       <r>    3.4312    1.0000 </r>
       <r>    5.5892    1.0000 </r>
       <r>    5.7317    1.0000 </r>
       <r>    8.1209    0.0000 </r>
       <r>    8.7852    0.0000 </r>
       <r>    9.0618    0.0000 </r>
       <r>    9.2713    0.0000 </r>
      </set>
      <set comment="kpoint 15">
       <r>  -24.4039    1.0000 </r>
       <r>  -24.3934    1.0000 </r>
       <r>  -24.3927    1.0000 </r>
       <r>   -3.0299    1.0000 </r>
       <r>    0.9272    1.0000 </r>
       <r>    2.2318    1.0000 </r>
       <r>    2.3164    1.0000 </r>
       <r>    3.3438    1.0000 </r>
       <r>    3.4422    1.0000 </r>
       <r>    3.4734    1.0000 </r>
       <r>    5.5727    1.0000 </r>
       <r>    5.7939    1.0000 </r>
       <r>    8.0241    0.0022 </r>
       <r>    8.9611    0.0000 </r>
       <r>    8.9825    0.0000 </r>
       <r>    9.2757    0.0000 </r>
      </set>
      <set comment="kpoint 16">
       <r>  -24.4019    1.0000 </r>
       <r>  -24.3935    1.0000 </r>
       <r>  -24.3926    1.0000 </r>
       <r>   -3.2957    1.0000 </r>
       <r>    1.2168    1.0000 </r>
       <r>    2.1991    1.0000 </r>
       <r>    2.3697    1.0000 </r>
       <r>    3.3841    1.0000 </r>
       <r>    3.4466    1.0000 </r>
       <r>    3.7275    1.0000 </r>
       <r>    5.5859    1.0000 </r>
       <r>    5.9168    1.0000 </r>
       <r>    7.9121    1.0000 </r>
       <r>    8.7683    0.0000 </r>
       <r>    8.8733    0.0000 </r>
       <r>    9.7688    0.0000 </r>
      </set>
      <set comment="kpoint 17">
       <r>  -24.3993    1.0000 </r>
       <r>  -24.3935    1.0000 </r>
       <r>  -24.3926    1.0000 </r>
       <r>   -3.6022    1.0000 </r>
       <r>    1.5539    1.0000 </r>
       <r>    2.1974    1.0000 </r>
       <r>    2.4201    1.0000 </r>
       <r>    3.3655    1.0000 </r>
       <r>    3.4180    1.0000 </r>
       <r>    4.2054    1.0000 </r>
       <r>    5.6530    1.0000 </r>
       <r>    6.0996    1.0000 </r>
       <r>    7.8020    1.0000 </r>
       <r>    8.5698    0.0000 </r>
       <r>    8.7118    0.0000 </r>
       <r>   10.0146    0.0000 </r>
      </set>
      <set comment="kpoint 18">
       <r>  -24.3967    1.0000 </r>
       <r>  -24.3934    1.0000 </r>
       <r>  -24.3927    1.0000 </r>
       <r>   -3.8764    1.0000 </r>
       <r>    1.8721    1.0000 </r>
       <r>    2.2324    1.0000 </r>
       <r>    2.4541    1.0000 </r>
       <r>    3.3112    1.0000 </r>
       <r>    3.3568    1.0000 </r>
       <r>    4.8367    1.0000 </r>
       <r>    5.8069    1.0000 </r>
       <r>    6.3047    1.0000 </r>
       <r>    7.5980    1.0000 </r>
       <r>    8.4350    0.0000 </r>
       <r>    8.6883    0.0000 </r>
       <r>    9.5810    0.0000 </r>
      </set>
      <set comment="kpoint 19">
       <r>  -24.3946    1.0000 </r>
       <r>  -24.3932    1.0000 </r>
       <r>  -24.3928    1.0000 </r>
       <r>   -4.0731    1.0000 </r>
       <r>    2.1362    1.0000 </r>
       <r>    2.2973    1.0000 </r>
       <r>    2.4420    1.0000 </r>
       <r>    3.2546    1.0000 </r>
       <r>    3.2831    1.0000 </r>
       <r>    5.4721    1.0000 </r>
       <r>    6.1005    1.0000 </r>
       <r>    6.4509    1.0000 </r>
       <r>    7.2750    1.0000 </r>
       <r>    8.4402    0.0000 </r>
       <r>    8.7832    0.0000 </r>
       <r>    9.1866    0.0000 </r>
      </set>
      <set comment="kpoint 20">
       <r>  -24.3956    1.0000 </r>
       <r>  -24.3934    1.0000 </r>
       <r>  -24.3934    1.0000 </r>
       <r>   -3.9302    1.0000 </r>
       <r>    1.7507    1.0000 </r>
       <r>    2.4991    1.0000 </r>
       <r>    2.4991    1.0000 </r>
       <r>    3.2609    1.0000 </r>
       <r>    3.3131    1.0000 </r>
       <r>    5.2505    1.0000 </r>
       <r>    5.9513    1.0000 </r>
       <r>    5.9513    1.0000 </r>
       <r>    7.4021    1.0000 </r>
       <r>    8.3079    0.0000 </r>
       <r>    8.8605    0.0000 </r>
       <r>    9.6123    0.0000 </r>
      </set>
      <set comment="kpoint 21">
       <r>  -24.3974    1.0000 </r>
       <r>  -24.3935    1.0000 </r>
       <r>  -24.3935    1.0000 </r>
       <r>   -3.7463    1.0000 </r>
       <r>    1.5221    1.0000 </r>
       <r>    2.4946    1.0000 </r>
       <r>    2.5297    1.0000 </r>
       <r>    3.2752    1.0000 </r>
       <r>    3.3798    1.0000 </r>
       <r>    4.7947    1.0000 </r>
       <r>    5.7472    1.0000 </r>
       <r>    5.7658    1.0000 </r>
       <r>    7.6553    1.0000 </r>
       <r>    8.2628    0.0000 </r>
       <r>    8.7433    0.0000 </r>
       <r>    9.9148    0.0000 </r>
      </set>
      <set comment="kpoint 22">
       <r>  -24.3997    1.0000 </r>
       <r>  -24.3936    1.0000 </r>
       <r>  -24.3936    1.0000 </r>
       <r>   -3.4927    1.0000 </r>
       <r>    1.3112    1.0000 </r>
       <r>    2.4081    1.0000 </r>
       <r>    2.5265    1.0000 </r>
       <r>    3.3268    1.0000 </r>
       <r>    3.4378    1.0000 </r>
       <r>    4.2289    1.0000 </r>
       <r>    5.5445    1.0000 </r>
       <r>    5.6370    1.0000 </r>
       <r>    7.9172    1.0000 </r>
       <r>    8.4466    0.0000 </r>
       <r>    8.6938    0.0000 </r>
       <r>   10.0368    0.0000 </r>
      </set>
      <set comment="kpoint 23">
       <r>  -24.4019    1.0000 </r>
       <r>  -24.3939    1.0000 </r>
       <r>  -24.3935    1.0000 </r>
       <r>   -3.2146    1.0000 </r>
       <r>    1.1227    1.0000 </r>
       <r>    2.3037    1.0000 </r>
       <r>    2.4974    1.0000 </r>
       <r>    3.3709    1.0000 </r>
       <r>    3.4618    1.0000 </r>
       <r>    3.7546    1.0000 </r>
       <r>    5.3809    1.0000 </r>
       <r>    5.5755    1.0000 </r>
       <r>    7.9440    1.0000 </r>
       <r>    8.7682    0.0000 </r>
       <r>    8.9396    0.0000 </r>
       <r>    9.6453    0.0000 </r>
      </set>
      <set comment="kpoint 24">
       <r>  -24.4035    1.0000 </r>
       <r>  -24.3943    1.0000 </r>
       <r>  -24.3933    1.0000 </r>
       <r>   -2.9790    1.0000 </r>
       <r>    0.9720    1.0000 </r>
       <r>    2.2333    1.0000 </r>
       <r>    2.4407    1.0000 </r>
       <r>    3.3196    1.0000 </r>
       <r>    3.4672    1.0000 </r>
       <r>    3.5221    1.0000 </r>
       <r>    5.2666    1.0000 </r>
       <r>    5.5648    1.0000 </r>
       <r>    7.9994    0.7431 </r>
       <r>    8.9377    0.0000 </r>
       <r>    9.0961    0.0000 </r>
       <r>    9.3920    0.0000 </r>
      </set>
      <set comment="kpoint 25">
       <r>  -24.4041    1.0000 </r>
       <r>  -24.3947    1.0000 </r>
       <r>  -24.3931    1.0000 </r>
       <r>   -2.8651    1.0000 </r>
       <r>    0.9014    1.0000 </r>
       <r>    2.2284    1.0000 </r>
       <r>    2.3584    1.0000 </r>
       <r>    3.2196    1.0000 </r>
       <r>    3.4791    1.0000 </r>
       <r>    3.5089    1.0000 </r>
       <r>    5.1892    1.0000 </r>
       <r>    5.5904    1.0000 </r>
       <r>    8.1285    0.0000 </r>
       <r>    8.7531    0.0000 </r>
       <r>    9.0768    0.0000 </r>
       <r>    9.6455    0.0000 </r>
      </set>
      <set comment="kpoint 26">
       <r>  -24.4036    1.0000 </r>
       <r>  -24.3949    1.0000 </r>
       <r>  -24.3929    1.0000 </r>
       <r>   -2.9212    1.0000 </r>
       <r>    0.9512    1.0000 </r>
       <r>    2.2682    1.0000 </r>
       <r>    2.2952    1.0000 </r>
       <r>    3.2411    1.0000 </r>
       <r>    3.4973    1.0000 </r>
       <r>    3.5521    1.0000 </r>
       <r>    5.1251    1.0000 </r>
       <r>    5.6592    1.0000 </r>
       <r>    8.1868    0.0000 </r>
       <r>    8.8160    0.0000 </r>
       <r>    9.0445    0.0000 </r>
       <r>    9.6451    0.0000 </r>
      </set>
      <set comment="kpoint 27">
       <r>  -24.4022    1.0000 </r>
       <r>  -24.3950    1.0000 </r>
       <r>  -24.3927    1.0000 </r>
       <r>   -3.1229    1.0000 </r>
       <r>    1.1114    1.0000 </r>
       <r>    2.1952    1.0000 </r>
       <r>    2.4052    1.0000 </r>
       <r>    3.3230    1.0000 </r>
       <r>    3.5014    1.0000 </r>
       <r>    3.7129    1.0000 </r>
       <r>    5.0715    1.0000 </r>
       <r>    5.7870    1.0000 </r>
       <r>    8.1816    0.0000 </r>
       <r>    8.8728    0.0000 </r>
       <r>    9.1227    0.0000 </r>
       <r>    9.5567    0.0000 </r>
      </set>
      <set comment="kpoint 28">
       <r>  -24.4003    1.0000 </r>
       <r>  -24.3947    1.0000 </r>
       <r>  -24.3926    1.0000 </r>
       <r>   -3.3955    1.0000 </r>
       <r>    1.3402    1.0000 </r>
       <r>    2.1598    1.0000 </r>
       <r>    2.5017    1.0000 </r>
       <r>    3.3510    1.0000 </r>
       <r>    3.4756    1.0000 </r>
       <r>    4.0768    1.0000 </r>
       <r>    5.0802    1.0000 </r>
       <r>    5.9718    1.0000 </r>
       <r>    8.2270    0.0000 </r>
       <r>    8.6609    0.0000 </r>
       <r>    8.9028    0.0000 </r>
       <r>    9.7181    0.0000 </r>
      </set>
      <set comment="kpoint 29">
       <r>  -24.3983    1.0000 </r>
       <r>  -24.3941    1.0000 </r>
       <r>  -24.3926    1.0000 </r>
       <r>   -3.6643    1.0000 </r>
       <r>    1.6034    1.0000 </r>
       <r>    2.1725    1.0000 </r>
       <r>    2.5290    1.0000 </r>
       <r>    3.3320    1.0000 </r>
       <r>    3.4222    1.0000 </r>
       <r>    4.5174    1.0000 </r>
       <r>    5.2871    1.0000 </r>
       <r>    6.1721    1.0000 </r>
       <r>    8.0805    0.0000 </r>
       <r>    8.4874    0.0000 </r>
       <r>    8.6909    0.0000 </r>
       <r>    9.5595    0.0000 </r>
      </set>
      <set comment="kpoint 30">
       <r>  -24.3984    1.0000 </r>
       <r>  -24.3938    1.0000 </r>
       <r>  -24.3938    1.0000 </r>
       <r>   -3.6109    1.0000 </r>
       <r>    1.3168    1.0000 </r>
       <r>    2.6190    1.0000 </r>
       <r>    2.6190    1.0000 </r>
       <r>    3.1970    1.0000 </r>
       <r>    3.4417    1.0000 </r>
       <r>    4.6851    1.0000 </r>
       <r>    5.5709    1.0000 </r>
       <r>    5.5709    1.0000 </r>
       <r>    7.4975    1.0000 </r>
       <r>    8.3229    0.0000 </r>
       <r>    8.6510    0.0000 </r>
       <r>   10.0229    0.0000 </r>
      </set>
      <set comment="kpoint 31">
       <r>  -24.4001    1.0000 </r>
       <r>  -24.3941    1.0000 </r>
       <r>  -24.3940    1.0000 </r>
       <r>   -3.4080    1.0000 </r>
       <r>    1.1596    1.0000 </r>
       <r>    2.6080    1.0000 </r>
       <r>    2.6610    1.0000 </r>
       <r>    3.1992    1.0000 </r>
       <r>    3.5075    1.0000 </r>
       <r>    4.3115    1.0000 </r>
       <r>    5.3526    1.0000 </r>
       <r>    5.4331    1.0000 </r>
       <r>    7.6534    1.0000 </r>
       <r>    8.4344    0.0000 </r>
       <r>    8.5631    0.0000 </r>
       <r>   10.0322    0.0000 </r>
      </set>
      <set comment="kpoint 32">
       <r>  -24.4018    1.0000 </r>
       <r>  -24.3946    1.0000 </r>
       <r>  -24.3940    1.0000 </r>
       <r>   -3.1752    1.0000 </r>
       <r>    1.0707    1.0000 </r>
       <r>    2.4833    1.0000 </r>
       <r>    2.6540    1.0000 </r>
       <r>    3.2785    1.0000 </r>
       <r>    3.5415    1.0000 </r>
       <r>    3.8679    1.0000 </r>
       <r>    5.1059    1.0000 </r>
       <r>    5.3724    1.0000 </r>
       <r>    7.7907    1.0000 </r>
       <r>    8.5923    0.0000 </r>
       <r>    8.8513    0.0000 </r>
       <r>    9.7223    0.0000 </r>
      </set>
      <set comment="kpoint 33">
       <r>  -24.4029    1.0000 </r>
       <r>  -24.3953    1.0000 </r>
       <r>  -24.3938    1.0000 </r>
       <r>   -2.9653    1.0000 </r>
       <r>    1.0513    1.0000 </r>
       <r>    2.3314    1.0000 </r>
       <r>    2.5956    1.0000 </r>
       <r>    3.2913    1.0000 </r>
       <r>    3.5499    1.0000 </r>
       <r>    3.5754    1.0000 </r>
       <r>    4.9056    1.0000 </r>
       <r>    5.3698    1.0000 </r>
       <r>    7.8442    1.0000 </r>
       <r>    8.7756    0.0000 </r>
       <r>    9.2414    0.0000 </r>
       <r>    9.4329    0.0000 </r>
      </set>
      <set comment="kpoint 34">
       <r>  -24.4033    1.0000 </r>
       <r>  -24.3962    1.0000 </r>
       <r>  -24.3935    1.0000 </r>
       <r>   -2.8366    1.0000 </r>
       <r>    1.0749    1.0000 </r>
       <r>    2.2163    1.0000 </r>
       <r>    2.4914    1.0000 </r>
       <r>    3.1468    1.0000 </r>
       <r>    3.5585    1.0000 </r>
       <r>    3.5940    1.0000 </r>
       <r>    4.7654    1.0000 </r>
       <r>    5.4021    1.0000 </r>
       <r>    7.9549    1.0000 </r>
       <r>    8.8624    0.0000 </r>
       <r>    9.0378    0.0000 </r>
       <r>    9.7603    0.0000 </r>
      </set>
      <set comment="kpoint 35">
       <r>  -24.4028    1.0000 </r>
       <r>  -24.3968    1.0000 </r>
       <r>  -24.3932    1.0000 </r>
       <r>   -2.8317    1.0000 </r>
       <r>    1.0949    1.0000 </r>
       <r>    2.2114    1.0000 </r>
       <r>    2.3667    1.0000 </r>
       <r>    3.1184    1.0000 </r>
       <r>    3.5684    1.0000 </r>
       <r>    3.6775    1.0000 </r>
       <r>    4.6706    1.0000 </r>
       <r>    5.4738    1.0000 </r>
       <r>    8.1363    0.0000 </r>
       <r>    8.7027    0.0000 </r>
       <r>    9.1382    0.0000 </r>
       <r>    9.7425    0.0000 </r>
      </set>
      <set comment="kpoint 36">
       <r>  -24.4020    1.0000 </r>
       <r>  -24.3968    1.0000 </r>
       <r>  -24.3929    1.0000 </r>
       <r>   -2.9530    1.0000 </r>
       <r>    1.1141    1.0000 </r>
       <r>    2.2542    1.0000 </r>
       <r>    2.3234    1.0000 </r>
       <r>    3.2110    1.0000 </r>
       <r>    3.5618    1.0000 </r>
       <r>    3.7914    1.0000 </r>
       <r>    4.6204    1.0000 </r>
       <r>    5.6014    1.0000 </r>
       <r>    8.2457    0.0000 </r>
       <r>    8.9461    0.0000 </r>
       <r>    9.0209    0.0000 </r>
       <r>    9.6525    0.0000 </r>
      </set>
      <set comment="kpoint 37">
       <r>  -24.4011    1.0000 </r>
       <r>  -24.3960    1.0000 </r>
       <r>  -24.3927    1.0000 </r>
       <r>   -3.1608    1.0000 </r>
       <r>    1.1871    1.0000 </r>
       <r>    2.1802    1.0000 </r>
       <r>    2.4546    1.0000 </r>
       <r>    3.3117    1.0000 </r>
       <r>    3.5288    1.0000 </r>
       <r>    3.9466    1.0000 </r>
       <r>    4.7066    1.0000 </r>
       <r>    5.7812    1.0000 </r>
       <r>    8.2990    0.0000 </r>
       <r>    8.8335    0.0000 </r>
       <r>    9.3201    0.0000 </r>
       <r>    9.5651    0.0000 </r>
      </set>
      <set comment="kpoint 38">
       <r>  -24.4014    1.0000 </r>
       <r>  -24.3943    1.0000 </r>
       <r>  -24.3943    1.0000 </r>
       <r>   -3.2640    1.0000 </r>
       <r>    1.0516    1.0000 </r>
       <r>    2.7547    1.0000 </r>
       <r>    2.7547    1.0000 </r>
       <r>    3.0704    1.0000 </r>
       <r>    3.5898    1.0000 </r>
       <r>    4.1250    1.0000 </r>
       <r>    5.2721    1.0000 </r>
       <r>    5.2721    1.0000 </r>
       <r>    7.4802    1.0000 </r>
       <r>    8.4165    0.0000 </r>
       <r>    8.4658    0.0000 </r>
       <r>    9.9848    0.0000 </r>
      </set>
      <set comment="kpoint 39">
       <r>  -24.4027    1.0000 </r>
       <r>  -24.3946    1.0000 </r>
       <r>  -24.3944    1.0000 </r>
       <r>   -3.0912    1.0000 </r>
       <r>    1.0261    1.0000 </r>
       <r>    2.6891    1.0000 </r>
       <r>    2.7901    1.0000 </r>
       <r>    3.1214    1.0000 </r>
       <r>    3.6423    1.0000 </r>
       <r>    3.7893    1.0000 </r>
       <r>    5.0627    1.0000 </r>
       <r>    5.1911    1.0000 </r>
       <r>    7.5534    1.0000 </r>
       <r>    8.3693    0.0000 </r>
       <r>    8.6699    0.0000 </r>
       <r>    9.7530    0.0000 </r>
      </set>
      <set comment="kpoint 40">
       <r>  -24.4035    1.0000 </r>
       <r>  -24.3955    1.0000 </r>
       <r>  -24.3943    1.0000 </r>
       <r>   -2.9288    1.0000 </r>
       <r>    1.0928    1.0000 </r>
       <r>    2.5074    1.0000 </r>
       <r>    2.7561    1.0000 </r>
       <r>    3.2122    1.0000 </r>
       <r>    3.5038    1.0000 </r>
       <r>    3.6541    1.0000 </r>
       <r>    4.7696    1.0000 </r>
       <r>    5.1827    1.0000 </r>
       <r>    7.6411    1.0000 </r>
       <r>    8.5044    0.0000 </r>
       <r>    9.1607    0.0000 </r>
       <r>    9.4206    0.0000 </r>
      </set>
      <set comment="kpoint 41">
       <r>  -24.4034    1.0000 </r>
       <r>  -24.3967    1.0000 </r>
       <r>  -24.3940    1.0000 </r>
       <r>   -2.8155    1.0000 </r>
       <r>    1.2180    1.0000 </r>
       <r>    2.3085    1.0000 </r>
       <r>    2.6539    1.0000 </r>
       <r>    3.0444    1.0000 </r>
       <r>    3.5912    1.0000 </r>
       <r>    3.6508    1.0000 </r>
       <r>    4.5129    1.0000 </r>
       <r>    5.2175    1.0000 </r>
       <r>    7.7370    1.0000 </r>
       <r>    8.8363    0.0000 </r>
       <r>    8.9993    0.0000 </r>
       <r>    9.6154    0.0000 </r>
      </set>
      <set comment="kpoint 42">
       <r>  -24.4025    1.0000 </r>
       <r>  -24.3979    1.0000 </r>
       <r>  -24.3937    1.0000 </r>
       <r>   -2.7788    1.0000 </r>
       <r>    1.2916    1.0000 </r>
       <r>    2.1599    1.0000 </r>
       <r>    2.5107    1.0000 </r>
       <r>    2.9779    1.0000 </r>
       <r>    3.6407    1.0000 </r>
       <r>    3.7688    1.0000 </r>
       <r>    4.3423    1.0000 </r>
       <r>    5.2930    1.0000 </r>
       <r>    7.9125    1.0000 </r>
       <r>    8.7584    0.0000 </r>
       <r>    9.1999    0.0000 </r>
       <r>    9.6007    0.0000 </r>
      </set>
      <set comment="kpoint 43">
       <r>  -24.4017    1.0000 </r>
       <r>  -24.3982    1.0000 </r>
       <r>  -24.3933    1.0000 </r>
       <r>   -2.8281    1.0000 </r>
       <r>    1.2144    1.0000 </r>
       <r>    2.1944    1.0000 </r>
       <r>    2.3664    1.0000 </r>
       <r>    3.0680    1.0000 </r>
       <r>    3.6121    1.0000 </r>
       <r>    3.8589    1.0000 </r>
       <r>    4.3460    1.0000 </r>
       <r>    5.4233    1.0000 </r>
       <r>    8.1388    0.0000 </r>
       <r>    8.7090    0.0000 </r>
       <r>    9.1698    0.0000 </r>
       <r>    9.5400    0.0000 </r>
      </set>
      <set comment="kpoint 44">
       <r>  -24.4039    1.0000 </r>
       <r>  -24.3946    1.0000 </r>
       <r>  -24.3946    1.0000 </r>
       <r>   -2.9842    1.0000 </r>
       <r>    1.0449    1.0000 </r>
       <r>    2.8738    1.0000 </r>
       <r>    2.8738    1.0000 </r>
       <r>    2.9413    1.0000 </r>
       <r>    3.5319    1.0000 </r>
       <r>    3.7237    1.0000 </r>
       <r>    5.0775    1.0000 </r>
       <r>    5.0775    1.0000 </r>
       <r>    7.4352    1.0000 </r>
       <r>    8.2107    0.0000 </r>
       <r>    8.5564    0.0000 </r>
       <r>    9.7024    0.0000 </r>
      </set>
      <set comment="kpoint 45">
       <r>  -24.4046    1.0000 </r>
       <r>  -24.3951    1.0000 </r>
       <r>  -24.3947    1.0000 </r>
       <r>   -2.8813    1.0000 </r>
       <r>    1.1411    1.0000 </r>
       <r>    2.7078    1.0000 </r>
       <r>    2.8834    1.0000 </r>
       <r>    3.0735    1.0000 </r>
       <r>    3.2723    1.0000 </r>
       <r>    3.7519    1.0000 </r>
       <r>    4.8946    1.0000 </r>
       <r>    5.0462    1.0000 </r>
       <r>    7.4726    1.0000 </r>
       <r>    8.2270    0.0000 </r>
       <r>    8.7478    0.0000 </r>
       <r>    9.4952    0.0000 </r>
      </set>
      <set comment="kpoint 46">
       <r>  -24.4044    1.0000 </r>
       <r>  -24.3960    1.0000 </r>
       <r>  -24.3945    1.0000 </r>
       <r>   -2.8053    1.0000 </r>
       <r>    1.2809    1.0000 </r>
       <r>    2.5062    1.0000 </r>
       <r>    2.8098    1.0000 </r>
       <r>    2.9270    1.0000 </r>
       <r>    3.4068    1.0000 </r>
       <r>    3.7374    1.0000 </r>
       <r>    4.5938    1.0000 </r>
       <r>    5.0760    1.0000 </r>
       <r>    7.5570    1.0000 </r>
       <r>    8.4711    0.0000 </r>
       <r>    9.0706    0.0000 </r>
       <r>    9.4443    0.0000 </r>
      </set>
      <set comment="kpoint 47">
       <r>  -24.4034    1.0000 </r>
       <r>  -24.3973    1.0000 </r>
       <r>  -24.3941    1.0000 </r>
       <r>   -2.7697    1.0000 </r>
       <r>    1.3720    1.0000 </r>
       <r>    2.2729    1.0000 </r>
       <r>    2.6719    1.0000 </r>
       <r>    2.8766    1.0000 </r>
       <r>    3.6470    1.0000 </r>
       <r>    3.6994    1.0000 </r>
       <r>    4.3462    1.0000 </r>
       <r>    5.1564    1.0000 </r>
       <r>    7.6977    1.0000 </r>
       <r>    8.9084    0.0000 </r>
       <r>    8.9153    0.0000 </r>
       <r>    9.4061    0.0000 </r>
      </set>
      <set comment="kpoint 48">
       <r>  -24.4054    1.0000 </r>
       <r>  -24.3949    1.0000 </r>
       <r>  -24.3949    1.0000 </r>
       <r>   -2.8383    1.0000 </r>
       <r>    1.2116    1.0000 </r>
       <r>    2.8751    1.0000 </r>
       <r>    2.9435    1.0000 </r>
       <r>    2.9435    1.0000 </r>
       <r>    3.0349    1.0000 </r>
       <r>    3.8048    1.0000 </r>
       <r>    4.9851    1.0000 </r>
       <r>    4.9851    1.0000 </r>
       <r>    7.4031    1.0000 </r>
       <r>    8.0889    0.0000 </r>
       <r>    8.5298    0.0000 </r>
       <r>    9.4924    0.0000 </r>
      </set>
      <set comment="kpoint 49">
       <r>  -24.4053    1.0000 </r>
       <r>  -24.3952    1.0000 </r>
       <r>  -24.3948    1.0000 </r>
       <r>   -2.8117    1.0000 </r>
       <r>    1.2721    1.0000 </r>
       <r>    2.7335    1.0000 </r>
       <r>    2.8741    1.0000 </r>
       <r>    2.9170    1.0000 </r>
       <r>    3.1644    1.0000 </r>
       <r>    3.7958    1.0000 </r>
       <r>    4.8411    1.0000 </r>
       <r>    4.9975    1.0000 </r>
       <r>    7.4428    1.0000 </r>
       <r>    8.1756    0.0000 </r>
       <r>    8.7256    0.0000 </r>
       <r>    9.4041    0.0000 </r>
      </set>
      <set comment="kpoint 50">
       <r>  -24.3965    1.0000 </r>
       <r>  -24.3936    1.0000 </r>
       <r>  -24.3929    1.0000 </r>
       <r>   -3.8603    1.0000 </r>
       <r>    1.7440    1.0000 </r>
       <r>    2.3449    1.0000 </r>
       <r>    2.5081    1.0000 </r>
       <r>    3.2988    1.0000 </r>
       <r>    3.3473    1.0000 </r>
       <r>    4.9453    1.0000 </r>
       <r>    5.6929    1.0000 </r>
       <r>    6.1582    1.0000 </r>
       <r>    7.6833    1.0000 </r>
       <r>    8.2889    0.0000 </r>
       <r>    8.7717    0.0000 </r>
       <r>    9.5617    0.0000 </r>
      </set>
      <set comment="kpoint 51">
       <r>  -24.3987    1.0000 </r>
       <r>  -24.3939    1.0000 </r>
       <r>  -24.3929    1.0000 </r>
       <r>   -3.6196    1.0000 </r>
       <r>    1.4958    1.0000 </r>
       <r>    2.2774    1.0000 </r>
       <r>    2.5181    1.0000 </r>
       <r>    3.3397    1.0000 </r>
       <r>    3.4139    1.0000 </r>
       <r>    4.4117    1.0000 </r>
       <r>    5.4159    1.0000 </r>
       <r>    6.0099    1.0000 </r>
       <r>    8.0183    0.0222 </r>
       <r>    8.3674    0.0000 </r>
       <r>    8.7273    0.0000 </r>
       <r>    9.8132    0.0000 </r>
      </set>
      <set comment="kpoint 52">
       <r>  -24.4011    1.0000 </r>
       <r>  -24.3941    1.0000 </r>
       <r>  -24.3929    1.0000 </r>
       <r>   -3.3343    1.0000 </r>
       <r>    1.2472    1.0000 </r>
       <r>    2.2334    1.0000 </r>
       <r>    2.4711    1.0000 </r>
       <r>    3.3707    1.0000 </r>
       <r>    3.4542    1.0000 </r>
       <r>    3.9017    1.0000 </r>
       <r>    5.3170    1.0000 </r>
       <r>    5.8369    1.0000 </r>
       <r>    8.0509    0.0000 </r>
       <r>    8.6758    0.0000 </r>
       <r>    8.8844    0.0000 </r>
       <r>    9.8311    0.0000 </r>
      </set>
      <set comment="kpoint 53">
       <r>  -24.4030    1.0000 </r>
       <r>  -24.3942    1.0000 </r>
       <r>  -24.3929    1.0000 </r>
       <r>   -3.0658    1.0000 </r>
       <r>    1.0237    1.0000 </r>
       <r>    2.2207    1.0000 </r>
       <r>    2.4023    1.0000 </r>
       <r>    3.3432    1.0000 </r>
       <r>    3.4613    1.0000 </r>
       <r>    3.5827    1.0000 </r>
       <r>    5.2969    1.0000 </r>
       <r>    5.7085    1.0000 </r>
       <r>    8.0671    0.0000 </r>
       <r>    8.8645    0.0000 </r>
       <r>    9.1357    0.0000 </r>
       <r>    9.3933    0.0000 </r>
      </set>
      <set comment="kpoint 54">
       <r>  -24.4042    1.0000 </r>
       <r>  -24.3943    1.0000 </r>
       <r>  -24.3930    1.0000 </r>
       <r>   -2.8964    1.0000 </r>
       <r>    0.8814    1.0000 </r>
       <r>    2.2299    1.0000 </r>
       <r>    2.3462    1.0000 </r>
       <r>    3.2529    1.0000 </r>
       <r>    3.4471    1.0000 </r>
       <r>    3.5050    1.0000 </r>
       <r>    5.2985    1.0000 </r>
       <r>    5.6464    1.0000 </r>
       <r>    8.1498    0.0000 </r>
       <r>    8.7628    0.0000 </r>
       <r>    9.0715    0.0000 </r>
       <r>    9.5218    0.0000 </r>
      </set>
      <set comment="kpoint 55">
       <r>  -24.3990    1.0000 </r>
       <r>  -24.3941    1.0000 </r>
       <r>  -24.3934    1.0000 </r>
       <r>   -3.5508    1.0000 </r>
       <r>    1.3203    1.0000 </r>
       <r>    2.4668    1.0000 </r>
       <r>    2.6033    1.0000 </r>
       <r>    3.2745    1.0000 </r>
       <r>    3.4421    1.0000 </r>
       <r>    4.4800    1.0000 </r>
       <r>    5.3319    1.0000 </r>
       <r>    5.7380    1.0000 </r>
       <r>    7.8545    1.0000 </r>
       <r>    8.3193    0.0000 </r>
       <r>    8.6774    0.0000 </r>
       <r>    9.9416    0.0000 </r>
      </set>
      <set comment="kpoint 56">
       <r>  -24.4008    1.0000 </r>
       <r>  -24.3946    1.0000 </r>
       <r>  -24.3934    1.0000 </r>
       <r>   -3.3062    1.0000 </r>
       <r>    1.1657    1.0000 </r>
       <r>    2.3901    1.0000 </r>
       <r>    2.6001    1.0000 </r>
       <r>    3.3214    1.0000 </r>
       <r>    3.4814    1.0000 </r>
       <r>    4.0551    1.0000 </r>
       <r>    5.0824    1.0000 </r>
       <r>    5.6241    1.0000 </r>
       <r>    7.9994    0.7450 </r>
       <r>    8.5230    0.0000 </r>
       <r>    8.8306    0.0000 </r>
       <r>    9.8792    0.0000 </r>
      </set>
      <set comment="kpoint 57">
       <r>  -24.4023    1.0000 </r>
       <r>  -24.3951    1.0000 </r>
       <r>  -24.3935    1.0000 </r>
       <r>   -3.0631    1.0000 </r>
       <r>    1.0676    1.0000 </r>
       <r>    2.2942    1.0000 </r>
       <r>    2.5495    1.0000 </r>
       <r>    3.3457    1.0000 </r>
       <r>    3.4765    1.0000 </r>
       <r>    3.7009    1.0000 </r>
       <r>    4.9667    1.0000 </r>
       <r>    5.5272    1.0000 </r>
       <r>    8.0053    0.4280 </r>
       <r>    8.7037    0.0000 </r>
       <r>    9.2907    0.0000 </r>
       <r>    9.4121    0.0000 </r>
      </set>
      <set comment="kpoint 58">
       <r>  -24.4033    1.0000 </r>
       <r>  -24.3956    1.0000 </r>
       <r>  -24.3934    1.0000 </r>
       <r>   -2.8862    1.0000 </r>
       <r>    1.0225    1.0000 </r>
       <r>    2.2095    1.0000 </r>
       <r>    2.4843    1.0000 </r>
       <r>    3.2281    1.0000 </r>
       <r>    3.4773    1.0000 </r>
       <r>    3.6038    1.0000 </r>
       <r>    4.8980    1.0000 </r>
       <r>    5.4902    1.0000 </r>
       <r>    8.0629    0.0000 </r>
       <r>    8.8052    0.0000 </r>
       <r>    9.0361    0.0000 </r>
       <r>    9.6903    0.0000 </r>
      </set>
      <set comment="kpoint 59">
       <r>  -24.4034    1.0000 </r>
       <r>  -24.3959    1.0000 </r>
       <r>  -24.3933    1.0000 </r>
       <r>   -2.8351    1.0000 </r>
       <r>    1.0186    1.0000 </r>
       <r>    2.1844    1.0000 </r>
       <r>    2.4238    1.0000 </r>
       <r>    3.1628    1.0000 </r>
       <r>    3.4959    1.0000 </r>
       <r>    3.6150    1.0000 </r>
       <r>    4.8494    1.0000 </r>
       <r>    5.5066    1.0000 </r>
       <r>    8.1844    0.0000 </r>
       <r>    8.6344    0.0000 </r>
       <r>    9.0954    0.0000 </r>
       <r>    9.8088    0.0000 </r>
      </set>
      <set comment="kpoint 60">
       <r>  -24.4027    1.0000 </r>
       <r>  -24.3960    1.0000 </r>
       <r>  -24.3931    1.0000 </r>
       <r>   -2.9295    1.0000 </r>
       <r>    1.0539    1.0000 </r>
       <r>    2.2155    1.0000 </r>
       <r>    2.4092    1.0000 </r>
       <r>    3.2311    1.0000 </r>
       <r>    3.5121    1.0000 </r>
       <r>    3.6717    1.0000 </r>
       <r>    4.8133    1.0000 </r>
       <r>    5.5767    1.0000 </r>
       <r>    8.2097    0.0000 </r>
       <r>    8.7831    0.0000 </r>
       <r>    9.0526    0.0000 </r>
       <r>    9.7525    0.0000 </r>
      </set>
      <set comment="kpoint 61">
       <r>  -24.4015    1.0000 </r>
       <r>  -24.3957    1.0000 </r>
       <r>  -24.3929    1.0000 </r>
       <r>   -3.1346    1.0000 </r>
       <r>    1.1422    1.0000 </r>
       <r>    2.2233    1.0000 </r>
       <r>    2.4834    1.0000 </r>
       <r>    3.3274    1.0000 </r>
       <r>    3.5033    1.0000 </r>
       <r>    3.8580    1.0000 </r>
       <r>    4.8130    1.0000 </r>
       <r>    5.7087    1.0000 </r>
       <r>    8.2389    0.0000 </r>
       <r>    8.7064    0.0000 </r>
       <r>    9.2778    0.0000 </r>
       <r>    9.5872    0.0000 </r>
      </set>
      <set comment="kpoint 62">
       <r>  -24.4001    1.0000 </r>
       <r>  -24.3949    1.0000 </r>
       <r>  -24.3928    1.0000 </r>
       <r>   -3.3853    1.0000 </r>
       <r>    1.2925    1.0000 </r>
       <r>    2.2337    1.0000 </r>
       <r>    2.5498    1.0000 </r>
       <r>    3.3475    1.0000 </r>
       <r>    3.4690    1.0000 </r>
       <r>    4.1653    1.0000 </r>
       <r>    4.9671    1.0000 </r>
       <r>    5.8790    1.0000 </r>
       <r>    8.2976    0.0000 </r>
       <r>    8.4901    0.0000 </r>
       <r>    8.8971    0.0000 </r>
       <r>    9.7505    0.0000 </r>
      </set>
      <set comment="kpoint 63">
       <r>  -24.4015    1.0000 </r>
       <r>  -24.3947    1.0000 </r>
       <r>  -24.3940    1.0000 </r>
       <r>   -3.2183    1.0000 </r>
       <r>    1.0672    1.0000 </r>
       <r>    2.5730    1.0000 </r>
       <r>    2.7199    1.0000 </r>
       <r>    3.2097    1.0000 </r>
       <r>    3.5580    1.0000 </r>
       <r>    4.0201    1.0000 </r>
       <r>    5.0479    1.0000 </r>
       <r>    5.3825    1.0000 </r>
       <r>    7.7194    1.0000 </r>
       <r>    8.4390    0.0000 </r>
       <r>    8.7128    0.0000 </r>
       <r>    9.8811    0.0000 </r>
      </set>
      <set comment="kpoint 64">
       <r>  -24.4026    1.0000 </r>
       <r>  -24.3954    1.0000 </r>
       <r>  -24.3940    1.0000 </r>
       <r>   -3.0221    1.0000 </r>
       <r>    1.0635    1.0000 </r>
       <r>    2.4410    1.0000 </r>
       <r>    2.7182    1.0000 </r>
       <r>    3.2913    1.0000 </r>
       <r>    3.5230    1.0000 </r>
       <r>    3.7311    1.0000 </r>
       <r>    4.7765    1.0000 </r>
       <r>    5.3321    1.0000 </r>
       <r>    7.8094    1.0000 </r>
       <r>    8.4845    0.0000 </r>
       <r>    9.1912    0.0000 </r>
       <r>    9.4707    0.0000 </r>
      </set>
      <set comment="kpoint 65">
       <r>  -24.4030    1.0000 </r>
       <r>  -24.3963    1.0000 </r>
       <r>  -24.3940    1.0000 </r>
       <r>   -2.8666    1.0000 </r>
       <r>    1.1369    1.0000 </r>
       <r>    2.2784    1.0000 </r>
       <r>    2.6636    1.0000 </r>
       <r>    3.1905    1.0000 </r>
       <r>    3.4975    1.0000 </r>
       <r>    3.6650    1.0000 </r>
       <r>    4.5707    1.0000 </r>
       <r>    5.3237    1.0000 </r>
       <r>    7.8752    1.0000 </r>
       <r>    8.7151    0.0000 </r>
       <r>    9.0216    0.0000 </r>
       <r>    9.6300    0.0000 </r>
      </set>
      <set comment="kpoint 66">
       <r>  -24.4027    1.0000 </r>
       <r>  -24.3973    1.0000 </r>
       <r>  -24.3937    1.0000 </r>
       <r>   -2.7933    1.0000 </r>
       <r>    1.2159    1.0000 </r>
       <r>    2.1477    1.0000 </r>
       <r>    2.5702    1.0000 </r>
       <r>    3.0500    1.0000 </r>
       <r>    3.5643    1.0000 </r>
       <r>    3.7087    1.0000 </r>
       <r>    4.4343    1.0000 </r>
       <r>    5.3533    1.0000 </r>
       <r>    8.0102    0.1905 </r>
       <r>    8.7172    0.0000 </r>
       <r>    9.0141    0.0000 </r>
       <r>    9.6217    0.0000 </r>
      </set>
      <set comment="kpoint 67">
       <r>  -24.4021    1.0000 </r>
       <r>  -24.3978    1.0000 </r>
       <r>  -24.3934    1.0000 </r>
       <r>   -2.8229    1.0000 </r>
       <r>    1.1989    1.0000 </r>
       <r>    2.1488    1.0000 </r>
       <r>    2.4717    1.0000 </r>
       <r>    3.0834    1.0000 </r>
       <r>    3.5766    1.0000 </r>
       <r>    3.7939    1.0000 </r>
       <r>    4.3863    1.0000 </r>
       <r>    5.4238    1.0000 </r>
       <r>    8.1981    0.0000 </r>
       <r>    8.6384    0.0000 </r>
       <r>    9.0261    0.0000 </r>
       <r>    9.6534    0.0000 </r>
      </set>
      <set comment="kpoint 68">
       <r>  -24.4017    1.0000 </r>
       <r>  -24.3971    1.0000 </r>
       <r>  -24.3931    1.0000 </r>
       <r>   -2.9481    1.0000 </r>
       <r>    1.1364    1.0000 </r>
       <r>    2.2164    1.0000 </r>
       <r>    2.4361    1.0000 </r>
       <r>    3.2175    1.0000 </r>
       <r>    3.5490    1.0000 </r>
       <r>    3.8492    1.0000 </r>
       <r>    4.4867    1.0000 </r>
       <r>    5.5481    1.0000 </r>
       <r>    8.2701    0.0000 </r>
       <r>    8.7902    0.0000 </r>
       <r>    9.0207    0.0000 </r>
       <r>    9.6552    0.0000 </r>
      </set>
      <set comment="kpoint 69">
       <r>  -24.4036    1.0000 </r>
       <r>  -24.3951    1.0000 </r>
       <r>  -24.3945    1.0000 </r>
       <r>   -2.9550    1.0000 </r>
       <r>    1.0748    1.0000 </r>
       <r>    2.6031    1.0000 </r>
       <r>    2.8458    1.0000 </r>
       <r>    3.1713    1.0000 </r>
       <r>    3.4802    1.0000 </r>
       <r>    3.6966    1.0000 </r>
       <r>    4.8271    1.0000 </r>
       <r>    5.1668    1.0000 </r>
       <r>    7.5843    1.0000 </r>
       <r>    8.3020    0.0000 </r>
       <r>    8.9374    0.0000 </r>
       <r>    9.5179    0.0000 </r>
      </set>
      <set comment="kpoint 70">
       <r>  -24.4038    1.0000 </r>
       <r>  -24.3960    1.0000 </r>
       <r>  -24.3945    1.0000 </r>
       <r>   -2.8416    1.0000 </r>
       <r>    1.2055    1.0000 </r>
       <r>    2.4296    1.0000 </r>
       <r>    2.8276    1.0000 </r>
       <r>    3.1250    1.0000 </r>
       <r>    3.3868    1.0000 </r>
       <r>    3.6994    1.0000 </r>
       <r>    4.5214    1.0000 </r>
       <r>    5.1870    1.0000 </r>
       <r>    7.6713    1.0000 </r>
       <r>    8.4079    0.0000 </r>
       <r>    9.1364    0.0000 </r>
       <r>    9.5095    0.0000 </r>
      </set>
      <set comment="kpoint 71">
       <r>  -24.4032    1.0000 </r>
       <r>  -24.3973    1.0000 </r>
       <r>  -24.3942    1.0000 </r>
       <r>   -2.7753    1.0000 </r>
       <r>    1.3517    1.0000 </r>
       <r>    2.2287    1.0000 </r>
       <r>    2.7397    1.0000 </r>
       <r>    2.9341    1.0000 </r>
       <r>    3.5950    1.0000 </r>
       <r>    3.6912    1.0000 </r>
       <r>    4.2638    1.0000 </r>
       <r>    5.2306    1.0000 </r>
       <r>    7.7912    1.0000 </r>
       <r>    8.7029    0.0000 </r>
       <r>    8.9384    0.0000 </r>
       <r>    9.3710    0.0000 </r>
      </set>
      <set comment="kpoint 72">
       <r>  -24.4022    1.0000 </r>
       <r>  -24.3983    1.0000 </r>
       <r>  -24.3939    1.0000 </r>
       <r>   -2.7685    1.0000 </r>
       <r>    1.3625    1.0000 </r>
       <r>    2.1016    1.0000 </r>
       <r>    2.6020    1.0000 </r>
       <r>    2.9469    1.0000 </r>
       <r>    3.6331    1.0000 </r>
       <r>    3.8267    1.0000 </r>
       <r>    4.1476    1.0000 </r>
       <r>    5.3046    1.0000 </r>
       <r>    7.9875    0.9903 </r>
       <r>    8.6808    0.0000 </r>
       <r>    9.0658    0.0000 </r>
       <r>    9.4197    0.0000 </r>
      </set>
      <set comment="kpoint 73">
       <r>  -24.4049    1.0000 </r>
       <r>  -24.3954    1.0000 </r>
       <r>  -24.3948    1.0000 </r>
       <r>   -2.8202    1.0000 </r>
       <r>    1.2517    1.0000 </r>
       <r>    2.6095    1.0000 </r>
       <r>    2.8840    1.0000 </r>
       <r>    3.0389    1.0000 </r>
       <r>    3.1957    1.0000 </r>
       <r>    3.7659    1.0000 </r>
       <r>    4.6937    1.0000 </r>
       <r>    5.0808    1.0000 </r>
       <r>    7.5092    1.0000 </r>
       <r>    8.2045    0.0000 </r>
       <r>    8.9727    0.0000 </r>
       <r>    9.3935    0.0000 </r>
      </set>
      <set comment="kpoint 74">
       <r>  -24.4043    1.0000 </r>
       <r>  -24.3962    1.0000 </r>
       <r>  -24.3946    1.0000 </r>
       <r>   -2.7837    1.0000 </r>
       <r>    1.3481    1.0000 </r>
       <r>    2.4251    1.0000 </r>
       <r>    2.8179    1.0000 </r>
       <r>    2.9513    1.0000 </r>
       <r>    3.3829    1.0000 </r>
       <r>    3.7334    1.0000 </r>
       <r>    4.4170    1.0000 </r>
       <r>    5.1471    1.0000 </r>
       <r>    7.6228    1.0000 </r>
       <r>    8.3688    0.0000 </r>
       <r>    9.1332    0.0000 </r>
       <r>    9.3220    0.0000 </r>
      </set>
      <set comment="kpoint 75">
       <r>  -24.4017    1.0000 </r>
       <r>  -24.3957    1.0000 </r>
       <r>  -24.3934    1.0000 </r>
       <r>   -3.0976    1.0000 </r>
       <r>    1.1010    1.0000 </r>
       <r>    2.3259    1.0000 </r>
       <r>    2.6103    1.0000 </r>
       <r>    3.3433    1.0000 </r>
       <r>    3.4782    1.0000 </r>
       <r>    3.8825    1.0000 </r>
       <r>    4.7065    1.0000 </r>
       <r>    5.5332    1.0000 </r>
       <r>    8.1159    0.0000 </r>
       <r>    8.4984    0.0000 </r>
       <r>    9.2726    0.0000 </r>
       <r>    9.5374    0.0000 </r>
      </set>
      <set comment="kpoint 76">
       <r>  -24.4023    1.0000 </r>
       <r>  -24.3966    1.0000 </r>
       <r>  -24.3936    1.0000 </r>
       <r>   -2.9158    1.0000 </r>
       <r>    1.1232    1.0000 </r>
       <r>    2.2267    1.0000 </r>
       <r>    2.5939    1.0000 </r>
       <r>    3.2486    1.0000 </r>
       <r>    3.4825    1.0000 </r>
       <r>    3.7573    1.0000 </r>
       <r>    4.5162    1.0000 </r>
       <r>    5.4469    1.0000 </r>
       <r>    8.1518    0.0000 </r>
       <r>    8.6251    0.0000 </r>
       <r>    9.0005    0.0000 </r>
       <r>    9.6958    0.0000 </r>
      </set>
      <set comment="kpoint 77">
       <r>  -24.4026    1.0000 </r>
       <r>  -24.3972    1.0000 </r>
       <r>  -24.3937    1.0000 </r>
       <r>   -2.8096    1.0000 </r>
       <r>    1.1844    1.0000 </r>
       <r>    2.1262    1.0000 </r>
       <r>    2.5892    1.0000 </r>
       <r>    3.1061    1.0000 </r>
       <r>    3.5040    1.0000 </r>
       <r>    3.7208    1.0000 </r>
       <r>    4.4370    1.0000 </r>
       <r>    5.4085    1.0000 </r>
       <r>    8.2134    0.0000 </r>
       <r>    8.5628    0.0000 </r>
       <r>    8.9284    0.0000 </r>
       <r>    9.6508    0.0000 </r>
      </set>
      <set comment="kpoint 78">
       <r>  -24.4029    1.0000 </r>
       <r>  -24.3964    1.0000 </r>
       <r>  -24.3942    1.0000 </r>
[...]
       <r>    8.4411    0.0000 </r>
       <r>    9.0511    0.0000 </r>
       <r>    9.5746    0.0000 </r>
      </set>
      <set comment="kpoint 79">
       <r>  -24.4026    1.0000 </r>
       <r>  -24.3974    1.0000 </r>
       <r>  -24.3943    1.0000 </r>
       <r>   -2.7900    1.0000 </r>
       <r>    1.3139    1.0000 </r>
       <r>    2.1570    1.0000 </r>
       <r>    2.7741    1.0000 </r>
       <r>    3.0774    1.0000 </r>
       <r>    3.4842    1.0000 </r>
       <r>    3.7223    1.0000 </r>
       <r>    4.1593    1.0000 </r>
       <r>    5.3297    1.0000 </r>
       <r>    8.0476    0.0000 </r>
       <r>    8.5913    0.0000 </r>
       <r>    8.7405    0.0000 </r>
       <r>    9.4208    0.0000 </r>
      </set>
      <set comment="kpoint 80">
       <r>  -24.4021    1.0000 </r>
       <r>  -24.3982    1.0000 </r>
       <r>  -24.3942    1.0000 </r>
       <r>   -2.7631    1.0000 </r>
       <r>    1.3906    1.0000 </r>
       <r>    2.0576    1.0000 </r>
       <r>    2.7368    1.0000 </r>
       <r>    2.9876    1.0000 </r>
       <r>    3.5566    1.0000 </r>
       <r>    3.7919    1.0000 </r>
       <r>    4.0199    1.0000 </r>
       <r>    5.3497    1.0000 </r>
       <r>    8.2044    0.0000 </r>
       <r>    8.5196    0.0000 </r>
       <r>    8.7833    0.0000 </r>
       <r>    9.3069    0.0000 </r>
      </set>
      <set comment="kpoint 81">
       <r>  -24.4020    1.0000 </r>
       <r>  -24.3979    1.0000 </r>
       <r>  -24.3939    1.0000 </r>
       <r>   -2.8079    1.0000 </r>
       <r>    1.2724    1.0000 </r>
       <r>    2.1171    1.0000 </r>
       <r>    2.6637    1.0000 </r>
       <r>    3.0819    1.0000 </r>
       <r>    3.5324    1.0000 </r>
       <r>    3.8160    1.0000 </r>
       <r>    4.1575    1.0000 </r>
       <r>    5.3821    1.0000 </r>
       <r>    8.2805    0.0000 </r>
       <r>    8.5536    0.0000 </r>
       <r>    8.7284    0.0000 </r>
       <r>    9.5731    0.0000 </r>
      </set>
      <set comment="kpoint 82">
       <r>  -24.4035    1.0000 </r>
       <r>  -24.3968    1.0000 </r>
       <r>  -24.3947    1.0000 </r>
       <r>   -2.7797    1.0000 </r>
       <r>    1.3643    1.0000 </r>
       <r>    2.2803    1.0000 </r>
       <r>    2.8243    1.0000 </r>
       <r>    3.1031    1.0000 </r>
       <r>    3.3671    1.0000 </r>
       <r>    3.6923    1.0000 </r>
       <r>    4.2012    1.0000 </r>
       <r>    5.2554    1.0000 </r>
       <r>    7.8220    1.0000 </r>
       <r>    8.3564    0.0000 </r>
       <r>    8.9941    0.0000 </r>
       <r>    9.3011    0.0000 </r>
      </set>
      <set comment="kpoint 83">
       <r>  -24.4027    1.0000 </r>
       <r>  -24.3977    1.0000 </r>
       <r>  -24.3946    1.0000 </r>
       <r>   -2.7527    1.0000 </r>
       <r>    1.4698    1.0000 </r>
       <r>    2.1202    1.0000 </r>
       <r>    2.7894    1.0000 </r>
       <r>    3.0215    1.0000 </r>
       <r>    3.5531    1.0000 </r>
       <r>    3.6513    1.0000 </r>
       <r>    3.9866    1.0000 </r>
       <r>    5.3090    1.0000 </r>
       <r>    8.0031    0.5555 </r>
       <r>    8.5021    0.0000 </r>
       <r>    8.8199    0.0000 </r>
       <r>    9.1485    0.0000 </r>
      </set>
      <set comment="kpoint 84">
       <r>  -24.4022    1.0000 </r>
       <r>  -24.3982    1.0000 </r>
       <r>  -24.3946    1.0000 </r>
       <r>   -2.7490    1.0000 </r>
       <r>    1.4950    1.0000 </r>
       <r>    2.0482    1.0000 </r>
       <r>    2.7909    1.0000 </r>
       <r>    3.0962    1.0000 </r>
       <r>    3.5059    1.0000 </r>
       <r>    3.6768    1.0000 </r>
       <r>    3.8784    1.0000 </r>
       <r>    5.3512    1.0000 </r>
       <r>    8.2815    0.0000 </r>
       <r>    8.4776    0.0000 </r>
       <r>    8.5669    0.0000 </r>
       <r>    9.1397    0.0000 </r>
      </set>
     </set>
    </set>
   </array>
  </eigenvalues>
  <separator name="orbital magnetization" >
   <v name="MAGDIPOLOUT">      0.00000000      0.00000000      0.00000000</v>
  </separator>
  <dos>
   <i name="efermi">      8.00404160 </i>
   <total>
    <array>
     <dimension dim="1">gridpoints</dimension>
     <dimension dim="2">spin</dimension>
     <field>energy</field>
     <field>total</field>
     <field>integrated</field>
     <set>
      <set comment="spin 1">
       <r>   -26.1483     0.0000     0.0000 </r>
       <r>   -26.0205     0.0000     0.0000 </r>
       <r>   -25.8927     0.0000     0.0000 </r>
       <r>   -25.7649     0.0000     0.0000 </r>
       <r>   -25.6371     0.0000     0.0000 </r>
       <r>   -25.5093     0.0000     0.0000 </r>
       <r>   -25.3814     0.0000     0.0000 </r>
       <r>   -25.2536     0.0000     0.0000 </r>
       <r>   -25.1258     0.0000     0.0000 </r>
       <r>   -24.9980     0.0000     0.0000 </r>
       <r>   -24.8702     0.0000     0.0000 </r>
       <r>   -24.7424     0.0000     0.0000 </r>
       <r>   -24.6145     0.0000     0.0000 </r>
       <r>   -24.4867     0.0000     0.0000 </r>
       <r>   -24.3589    46.9422     6.0000 </r>
       <r>   -24.2311     0.0000     6.0000 </r>
       <r>   -24.1033     0.0000     6.0000 </r>
       <r>   -23.9755     0.0000     6.0000 </r>
       <r>   -23.8476     0.0000     6.0000 </r>
       <r>   -23.7198     0.0000     6.0000 </r>
       <r>   -23.5920     0.0000     6.0000 </r>
       <r>   -23.4642     0.0000     6.0000 </r>
       <r>   -23.3364     0.0000     6.0000 </r>
       <r>   -23.2086     0.0000     6.0000 </r>
       <r>   -23.0807     0.0000     6.0000 </r>
       <r>   -22.9529     0.0000     6.0000 </r>
       <r>   -22.8251     0.0000     6.0000 </r>
       <r>   -22.6973     0.0000     6.0000 </r>
       <r>   -22.5695     0.0000     6.0000 </r>
       <r>   -22.4417     0.0000     6.0000 </r>
       <r>   -22.3138     0.0000     6.0000 </r>
       <r>   -22.1860     0.0000     6.0000 </r>
       <r>   -22.0582     0.0000     6.0000 </r>
       <r>   -21.9304     0.0000     6.0000 </r>
       <r>   -21.8026     0.0000     6.0000 </r>
       <r>   -21.6748     0.0000     6.0000 </r>
       <r>   -21.5469     0.0000     6.0000 </r>
       <r>   -21.4191     0.0000     6.0000 </r>
       <r>   -21.2913     0.0000     6.0000 </r>
       <r>   -21.1635     0.0000     6.0000 </r>
       <r>   -21.0357     0.0000     6.0000 </r>
       <r>   -20.9079     0.0000     6.0000 </r>
       <r>   -20.7800     0.0000     6.0000 </r>
       <r>   -20.6522     0.0000     6.0000 </r>
       <r>   -20.5244     0.0000     6.0000 </r>
       <r>   -20.3966     0.0000     6.0000 </r>
       <r>   -20.2688     0.0000     6.0000 </r>
       <r>   -20.1409     0.0000     6.0000 </r>
       <r>   -20.0131     0.0000     6.0000 </r>
       <r>   -19.8853     0.0000     6.0000 </r>
       <r>   -19.7575     0.0000     6.0000 </r>
       <r>   -19.6297     0.0000     6.0000 </r>
       <r>   -19.5019     0.0000     6.0000 </r>
       <r>   -19.3740     0.0000     6.0000 </r>
       <r>   -19.2462     0.0000     6.0000 </r>
       <r>   -19.1184     0.0000     6.0000 </r>
       <r>   -18.9906     0.0000     6.0000 </r>
       <r>   -18.8628     0.0000     6.0000 </r>
       <r>   -18.7350     0.0000     6.0000 </r>
       <r>   -18.6071     0.0000     6.0000 </r>
       <r>   -18.4793     0.0000     6.0000 </r>
       <r>   -18.3515     0.0000     6.0000 </r>
       <r>   -18.2237     0.0000     6.0000 </r>
       <r>   -18.0959     0.0000     6.0000 </r>
       <r>   -17.9681     0.0000     6.0000 </r>
       <r>   -17.8402     0.0000     6.0000 </r>
       <r>   -17.7124     0.0000     6.0000 </r>
       <r>   -17.5846     0.0000     6.0000 </r>
       <r>   -17.4568     0.0000     6.0000 </r>
       <r>   -17.3290     0.0000     6.0000 </r>
       <r>   -17.2012     0.0000     6.0000 </r>
       <r>   -17.0733     0.0000     6.0000 </r>
       <r>   -16.9455     0.0000     6.0000 </r>
       <r>   -16.8177     0.0000     6.0000 </r>
       <r>   -16.6899     0.0000     6.0000 </r>
       <r>   -16.5621     0.0000     6.0000 </r>
       <r>   -16.4343     0.0000     6.0000 </r>
       <r>   -16.3064     0.0000     6.0000 </r>
       <r>   -16.1786     0.0000     6.0000 </r>
       <r>   -16.0508     0.0000     6.0000 </r>
       <r>   -15.9230     0.0000     6.0000 </r>
       <r>   -15.7952     0.0000     6.0000 </r>
       <r>   -15.6674     0.0000     6.0000 </r>
       <r>   -15.5395     0.0000     6.0000 </r>
       <r>   -15.4117     0.0000     6.0000 </r>
       <r>   -15.2839     0.0000     6.0000 </r>
       <r>   -15.1561     0.0000     6.0000 </r>
       <r>   -15.0283     0.0000     6.0000 </r>
       <r>   -14.9005     0.0000     6.0000 </r>
       <r>   -14.7726     0.0000     6.0000 </r>
       <r>   -14.6448     0.0000     6.0000 </r>
       <r>   -14.5170     0.0000     6.0000 </r>
       <r>   -14.3892     0.0000     6.0000 </r>
       <r>   -14.2614     0.0000     6.0000 </r>
       <r>   -14.1336     0.0000     6.0000 </r>
       <r>   -14.0057     0.0000     6.0000 </r>
       <r>   -13.8779     0.0000     6.0000 </r>
       <r>   -13.7501     0.0000     6.0000 </r>
       <r>   -13.6223     0.0000     6.0000 </r>
       <r>   -13.4945     0.0000     6.0000 </r>
       <r>   -13.3667     0.0000     6.0000 </r>
       <r>   -13.2388     0.0000     6.0000 </r>
       <r>   -13.1110     0.0000     6.0000 </r>
       <r>   -12.9832     0.0000     6.0000 </r>
       <r>   -12.8554     0.0000     6.0000 </r>
       <r>   -12.7276     0.0000     6.0000 </r>
       <r>   -12.5998     0.0000     6.0000 </r>
       <r>   -12.4719     0.0000     6.0000 </r>
       <r>   -12.3441     0.0000     6.0000 </r>
       <r>   -12.2163     0.0000     6.0000 </r>
       <r>   -12.0885     0.0000     6.0000 </r>
       <r>   -11.9607     0.0000     6.0000 </r>
       <r>   -11.8329     0.0000     6.0000 </r>
       <r>   -11.7050     0.0000     6.0000 </r>
       <r>   -11.5772     0.0000     6.0000 </r>
       <r>   -11.4494     0.0000     6.0000 </r>
       <r>   -11.3216     0.0000     6.0000 </r>
       <r>   -11.1938     0.0000     6.0000 </r>
       <r>   -11.0660     0.0000     6.0000 </r>
       <r>   -10.9381     0.0000     6.0000 </r>
       <r>   -10.8103     0.0000     6.0000 </r>
       <r>   -10.6825     0.0000     6.0000 </r>
       <r>   -10.5547     0.0000     6.0000 </r>
       <r>   -10.4269     0.0000     6.0000 </r>
       <r>   -10.2991     0.0000     6.0000 </r>
       <r>   -10.1712     0.0000     6.0000 </r>
       <r>   -10.0434     0.0000     6.0000 </r>
       <r>    -9.9156     0.0000     6.0000 </r>
       <r>    -9.7878     0.0000     6.0000 </r>
       <r>    -9.6600     0.0000     6.0000 </r>
       <r>    -9.5322     0.0000     6.0000 </r>
       <r>    -9.4043     0.0000     6.0000 </r>
       <r>    -9.2765     0.0000     6.0000 </r>
       <r>    -9.1487     0.0000     6.0000 </r>
       <r>    -9.0209     0.0000     6.0000 </r>
       <r>    -8.8931     0.0000     6.0000 </r>
       <r>    -8.7653     0.0000     6.0000 </r>
       <r>    -8.6374     0.0000     6.0000 </r>
       <r>    -8.5096     0.0000     6.0000 </r>
       <r>    -8.3818     0.0000     6.0000 </r>
       <r>    -8.2540     0.0000     6.0000 </r>
       <r>    -8.1262     0.0000     6.0000 </r>
       <r>    -7.9984     0.0000     6.0000 </r>
       <r>    -7.8705     0.0000     6.0000 </r>
       <r>    -7.7427     0.0000     6.0000 </r>
       <r>    -7.6149     0.0000     6.0000 </r>
       <r>    -7.4871     0.0000     6.0000 </r>
       <r>    -7.3593     0.0000     6.0000 </r>
       <r>    -7.2315     0.0000     6.0000 </r>
       <r>    -7.1036     0.0000     6.0000 </r>
       <r>    -6.9758     0.0000     6.0000 </r>
       <r>    -6.8480     0.0000     6.0000 </r>
       <r>    -6.7202     0.0000     6.0000 </r>
       <r>    -6.5924     0.0000     6.0000 </r>
       <r>    -6.4646     0.0000     6.0000 </r>
       <r>    -6.3367     0.0000     6.0000 </r>
       <r>    -6.2089     0.0000     6.0000 </r>
       <r>    -6.0811     0.0000     6.0000 </r>
       <r>    -5.9533     0.0000     6.0000 </r>
       <r>    -5.8255     0.0000     6.0000 </r>
       <r>    -5.6977     0.0000     6.0000 </r>
       <r>    -5.5698     0.0000     6.0000 </r>
       <r>    -5.4420     0.0000     6.0000 </r>
       <r>    -5.3142     0.0000     6.0000 </r>
       <r>    -5.1864     0.0000     6.0000 </r>
       <r>    -5.0586     0.0000     6.0000 </r>
       <r>    -4.9308     0.0000     6.0000 </r>
       <r>    -4.8029     0.0000     6.0000 </r>
       <r>    -4.6751     0.0000     6.0000 </r>
       <r>    -4.5473     0.0000     6.0000 </r>
       <r>    -4.4195     0.0000     6.0000 </r>
       <r>    -4.2917     0.0000     6.0000 </r>
       <r>    -4.1639     0.0466     6.0060 </r>
       <r>    -4.0360     0.0865     6.0247 </r>
       <r>    -3.9082     0.0427     6.0592 </r>
       <r>    -3.7804     0.3339     6.1237 </r>
       <r>    -3.6526     0.0813     6.1642 </r>
       <r>    -3.5248     0.3419     6.2576 </r>
       <r>    -3.3970     0.2976     6.3394 </r>
       <r>    -3.2691     0.8647     6.4847 </r>
       <r>    -3.1413     0.8326     6.5953 </r>
       <r>    -3.0135     1.3272     6.8515 </r>
       <r>    -2.8857     2.5393     7.2303 </r>
       <r>    -2.7579     4.3203     7.9514 </r>
       <r>    -2.6301     0.0000     8.0000 </r>
       <r>    -2.5022     0.0000     8.0000 </r>
       <r>    -2.3744     0.0000     8.0000 </r>
       <r>    -2.2466     0.0000     8.0000 </r>
       <r>    -2.1188     0.0000     8.0000 </r>
       <r>    -1.9910     0.0000     8.0000 </r>
       <r>    -1.8632     0.0000     8.0000 </r>
       <r>    -1.7353     0.0000     8.0000 </r>
       <r>    -1.6075     0.0000     8.0000 </r>
       <r>    -1.4797     0.0000     8.0000 </r>
       <r>    -1.3519     0.0000     8.0000 </r>
       <r>    -1.2241     0.0000     8.0000 </r>
       <r>    -1.0963     0.0000     8.0000 </r>
       <r>    -0.9684     0.0000     8.0000 </r>
       <r>    -0.8406     0.0000     8.0000 </r>
       <r>    -0.7128     0.0000     8.0000 </r>
       <r>    -0.5850     0.0000     8.0000 </r>
       <r>    -0.4572     0.0000     8.0000 </r>
       <r>    -0.3294     0.0000     8.0000 </r>
       <r>    -0.2015     0.0000     8.0000 </r>
       <r>    -0.0737     0.0000     8.0000 </r>
       <r>     0.0541     0.0000     8.0000 </r>
       <r>     0.1819     0.0000     8.0000 </r>
       <r>     0.3097     0.0000     8.0000 </r>
       <r>     0.4376     0.0000     8.0000 </r>
       <r>     0.5654     0.0000     8.0000 </r>
       <r>     0.6932     0.0000     8.0000 </r>
       <r>     0.8210     0.2279     8.0291 </r>
       <r>     0.9488     0.7467     8.1464 </r>
       <r>     1.0766     2.9898     8.5642 </r>
       <r>     1.2045     2.5979     9.1222 </r>
       <r>     1.3323     1.5112     9.5131 </r>
       <r>     1.4601     0.5272     9.7278 </r>
       <r>     1.5879     0.3431     9.8572 </r>
       <r>     1.7157     0.0301     9.8718 </r>
       <r>     1.8435     0.0000     9.9244 </r>
       <r>     1.9714     0.0239     9.9493 </r>
       <r>     2.0992     0.6331    10.0491 </r>
       <r>     2.2270     5.0397    10.8053 </r>
       <r>     2.3548     4.0390    11.7097 </r>
       <r>     2.4826     4.3809    12.5062 </r>
       <r>     2.6104     2.9302    13.2275 </r>
       <r>     2.7383     2.0306    13.5823 </r>
       <r>     2.8661     1.5729    13.9279 </r>
       <r>     2.9939     1.5151    14.1991 </r>
       <r>     3.1217     2.6582    14.5965 </r>
       <r>     3.2495     3.1165    15.1193 </r>
       <r>     3.3773     5.5033    16.1399 </r>
       <r>     3.5052     7.0230    17.4357 </r>
       <r>     3.6330     4.1854    18.3256 </r>
       <r>     3.7608     4.3063    19.1330 </r>
       <r>     3.8886     1.4746    19.5249 </r>
       <r>     4.0164     0.4579    19.6316 </r>
       <r>     4.1442     0.2788    19.7725 </r>
       <r>     4.2721     0.8136    19.9774 </r>
       <r>     4.3999     0.7465    20.1000 </r>
       <r>     4.5277     1.1905    20.4262 </r>
       <r>     4.6555     0.5156    20.5475 </r>
       <r>     4.7833     0.8867    20.7096 </r>
       <r>     4.9111     1.2323    21.0050 </r>
       <r>     5.0390     0.7274    21.1262 </r>
       <r>     5.1668     0.7370    21.4224 </r>
       <r>     5.2946     1.4015    21.7221 </r>
       <r>     5.4224     2.8586    22.4382 </r>
       <r>     5.5502     1.6958    22.7593 </r>
       <r>     5.6780     1.5408    23.1546 </r>
       <r>     5.8059     1.4641    23.4944 </r>
       <r>     5.9337     0.5029    23.6737 </r>
       <r>     6.0615     0.5128    23.8006 </r>
       <r>     6.1893     0.4807    23.9094 </r>
       <r>     6.3171     0.2782    23.9600 </r>
       <r>     6.4449     0.0190    23.9742 </r>
       <r>     6.5728     0.0214    24.0000 </r>
       <r>     6.7006     0.0000    24.0009 </r>
       <r>     6.8284     0.0000    24.0009 </r>
       <r>     6.9562     0.0000    24.0009 </r>
       <r>     7.0840     0.0001    24.0082 </r>
       <r>     7.2118     0.0000    24.0137 </r>
       <r>     7.3397     0.0855    24.0319 </r>
       <r>     7.4675     0.2664    24.0878 </r>
       <r>     7.5953     0.5623    24.2148 </r>
       <r>     7.7231     1.2916    24.4391 </r>
       <r>     7.8509     1.5686    24.6675 </r>
       <r>     7.9787     1.2158    24.8919 </r>
       <r>     8.1066     1.7432    25.3744 </r>
       <r>     8.2344     2.7392    25.9077 </r>
       <r>     8.3622     1.1798    26.2054 </r>
       <r>     8.4900     1.8094    26.5918 </r>
       <r>     8.6178     2.0017    27.0315 </r>
       <r>     8.7456     5.0890    27.8521 </r>
       <r>     8.8735     2.5226    28.5218 </r>
       <r>     9.0013     2.5957    29.0236 </r>
       <r>     9.1291     2.5079    29.6678 </r>
       <r>     9.2569     0.9448    29.9778 </r>
       <r>     9.3847     1.0182    30.2822 </r>
       <r>     9.5125     1.3651    30.6943 </r>
       <r>     9.6404     2.3228    31.1499 </r>
       <r>     9.7682     2.1419    31.6019 </r>
       <r>     9.8960     0.9059    31.8208 </r>
       <r>    10.0238     0.4171    31.9186 </r>
       <r>    10.1516     0.1709    31.9927 </r>
       <r>    10.2794     0.0000    31.9927 </r>
       <r>    10.4073     0.0000    31.9927 </r>
       <r>    10.5351     0.0000    32.0000 </r>
       <r>    10.6629     0.0000    32.0000 </r>
       <r>    10.7907     0.0000    32.0000 </r>
       <r>    10.9185     0.0000    32.0000 </r>
       <r>    11.0463     0.0000    32.0000 </r>
       <r>    11.1742     0.0000    32.0000 </r>
       <r>    11.3020     0.0000    32.0000 </r>
       <r>    11.4298     0.0000    32.0000 </r>
       <r>    11.5576     0.0000    32.0000 </r>
       <r>    11.6854     0.0000    32.0000 </r>
       <r>    11.8132     0.0000    32.0000 </r>
       <r>    11.9411     0.0000    32.0000 </r>
       <r>    12.0689     0.0000    32.0000 </r>
       <r>    12.1967     0.0000    32.0000 </r>
      </set>
     </set>
    </array>
   </total>
  </dos>
 </calculation>
 <structure name="finalpos" >
  <crystal>
   <varray name="basis" >
    <v>       0.00000000       3.26087352       3.26087352 </v>
    <v>       3.26087352       0.00000000       3.26087352 </v>
    <v>       3.26087352       3.26087352       0.00000000 </v>
   </varray>
   <i name="volume">     69.34766714 </i>
   <varray name="rec_basis" >
    <v>      -0.15333315       0.15333315       0.15333315 </v>
    <v>       0.15333315      -0.15333315       0.15333315 </v>
    <v>       0.15333315       0.15333315      -0.15333315 </v>
   </varray>
  </crystal>
  <varray name="positions" >
   <v>       0.75000000       0.75000000       0.75000000 </v>
   <v>       0.25000000       0.25000000       0.25000000 </v>
   <v>       0.00000000       0.00000000       0.00000000 </v>
  </varray>
 </structure>
</modeling>
