   3   3   0   0
  0.3053105E+02  0.5059714E-09  0.5059714E-09  0.5059714E-09  0.5000000E-15
  1.000000000000000E-004
  CAR
 unknown system
     10.82168706    -35.57324386  301      6.99612751      1.00000000
    -35.573  0.0000E+00  0.0000E+00
    -35.419  0.0000E+00  0.0000E+00
    -35.264  0.0000E+00  0.0000E+00
    -35.109  0.0000E+00  0.0000E+00
    -34.955  0.0000E+00  0.0000E+00
    -34.800  0.0000E+00  0.0000E+00
    -34.645  0.0000E+00  0.0000E+00
    -34.491  0.0000E+00  0.0000E+00
    -34.336  0.0000E+00  0.0000E+00
    -34.181  0.0000E+00  0.0000E+00
    -34.027  0.0000E+00  0.0000E+00
    -33.872  0.0000E+00  0.0000E+00
    -33.717  0.0000E+00  0.0000E+00
    -33.563  0.0000E+00  0.0000E+00
    -33.408  0.1293E+02  0.2000E+01
    -33.253  0.0000E+00  0.2000E+01
    -33.099  0.0000E+00  0.2000E+01
    -32.944  0.0000E+00  0.2000E+01
    -32.790  0.0000E+00  0.2000E+01
    -32.635  0.0000E+00  0.2000E+01
    -32.480  0.0000E+00  0.2000E+01
    -32.326  0.0000E+00  0.2000E+01
    -32.171  0.0000E+00  0.2000E+01
    -32.016  0.0000E+00  0.2000E+01
    -31.862  0.0000E+00  0.2000E+01
    -31.707  0.0000E+00  0.2000E+01
    -31.552  0.0000E+00  0.2000E+01
    -31.398  0.0000E+00  0.2000E+01
    -31.243  0.0000E+00  0.2000E+01
    -31.088  0.0000E+00  0.2000E+01
    -30.934  0.0000E+00  0.2000E+01
    -30.779  0.0000E+00  0.2000E+01
    -30.624  0.0000E+00  0.2000E+01
    -30.470  0.0000E+00  0.2000E+01
    -30.315  0.0000E+00  0.2000E+01
    -30.161  0.0000E+00  0.2000E+01
    -30.006  0.0000E+00  0.2000E+01
    -29.851  0.0000E+00  0.2000E+01
    -29.697  0.0000E+00  0.2000E+01
    -29.542  0.0000E+00  0.2000E+01
    -29.387  0.0000E+00  0.2000E+01
    -29.233  0.0000E+00  0.2000E+01
    -29.078  0.0000E+00  0.2000E+01
    -28.923  0.0000E+00  0.2000E+01
    -28.769  0.0000E+00  0.2000E+01
    -28.614  0.0000E+00  0.2000E+01
    -28.459  0.0000E+00  0.2000E+01
    -28.305  0.0000E+00  0.2000E+01
    -28.150  0.0000E+00  0.2000E+01
    -27.995  0.0000E+00  0.2000E+01
    -27.841  0.0000E+00  0.2000E+01
    -27.686  0.0000E+00  0.2000E+01
    -27.531  0.0000E+00  0.2000E+01
    -27.377  0.0000E+00  0.2000E+01
    -27.222  0.0000E+00  0.2000E+01
    -27.068  0.0000E+00  0.2000E+01
    -26.913  0.0000E+00  0.2000E+01
    -26.758  0.0000E+00  0.2000E+01
    -26.604  0.0000E+00  0.2000E+01
    -26.449  0.0000E+00  0.2000E+01
    -26.294  0.0000E+00  0.2000E+01
    -26.140  0.0000E+00  0.2000E+01
    -25.985  0.0000E+00  0.2000E+01
    -25.830  0.0000E+00  0.2000E+01
    -25.676  0.0000E+00  0.2000E+01
    -25.521  0.0000E+00  0.2000E+01
    -25.366  0.0000E+00  0.2000E+01
    -25.212  0.0000E+00  0.2000E+01
    -25.057  0.0000E+00  0.2000E+01
    -24.902  0.0000E+00  0.2000E+01
    -24.748  0.0000E+00  0.2000E+01
    -24.593  0.0000E+00  0.2000E+01
    -24.438  0.0000E+00  0.2000E+01
    -24.284  0.0000E+00  0.2000E+01
    -24.129  0.0000E+00  0.2000E+01
    -23.975  0.0000E+00  0.2000E+01
    -23.820  0.0000E+00  0.2000E+01
    -23.665  0.0000E+00  0.2000E+01
    -23.511  0.0000E+00  0.2000E+01
    -23.356  0.0000E+00  0.2000E+01
    -23.201  0.0000E+00  0.2000E+01
    -23.047  0.0000E+00  0.2000E+01
    -22.892  0.0000E+00  0.2000E+01
    -22.737  0.0000E+00  0.2000E+01
    -22.583  0.0000E+00  0.2000E+01
    -22.428  0.0000E+00  0.2000E+01
    -22.273  0.0000E+00  0.2000E+01
    -22.119  0.0000E+00  0.2000E+01
    -21.964  0.0000E+00  0.2000E+01
    -21.809  0.0000E+00  0.2000E+01
    -21.655  0.0000E+00  0.2000E+01
    -21.500  0.0000E+00  0.2000E+01
    -21.345  0.0000E+00  0.2000E+01
    -21.191  0.0000E+00  0.2000E+01
    -21.036  0.0000E+00  0.2000E+01
    -20.882  0.0000E+00  0.2000E+01
    -20.727  0.0000E+00  0.2000E+01
    -20.572  0.0000E+00  0.2000E+01
    -20.418  0.0000E+00  0.2000E+01
    -20.263  0.0000E+00  0.2000E+01
    -20.108  0.0000E+00  0.2000E+01
    -19.954  0.0000E+00  0.2000E+01
    -19.799  0.0000E+00  0.2000E+01
    -19.644  0.0000E+00  0.2000E+01
    -19.490  0.0000E+00  0.2000E+01
    -19.335  0.0000E+00  0.2000E+01
    -19.180  0.0000E+00  0.2000E+01
    -19.026  0.0000E+00  0.2000E+01
    -18.871  0.0000E+00  0.2000E+01
    -18.716  0.0000E+00  0.2000E+01
    -18.562  0.0000E+00  0.2000E+01
    -18.407  0.0000E+00  0.2000E+01
    -18.252  0.0000E+00  0.2000E+01
    -18.098  0.0000E+00  0.2000E+01
    -17.943  0.0000E+00  0.2000E+01
    -17.789  0.0000E+00  0.2000E+01
    -17.634  0.0000E+00  0.2000E+01
    -17.479  0.0000E+00  0.2000E+01
    -17.325  0.0000E+00  0.2000E+01
    -17.170  0.0000E+00  0.2000E+01
    -17.015  0.0000E+00  0.2000E+01
    -16.861  0.0000E+00  0.2000E+01
    -16.706  0.0000E+00  0.2000E+01
    -16.551  0.0000E+00  0.2000E+01
    -16.397  0.0000E+00  0.2000E+01
    -16.242  0.0000E+00  0.2000E+01
    -16.087  0.0000E+00  0.2000E+01
    -15.933  0.0000E+00  0.2000E+01
    -15.778  0.1574E+02  0.4434E+01
    -15.623  0.0000E+00  0.1200E+02
    -15.469  0.0000E+00  0.1200E+02
    -15.314  0.0000E+00  0.1200E+02
    -15.159  0.0000E+00  0.1200E+02
    -15.005  0.0000E+00  0.1200E+02
    -14.850  0.0000E+00  0.1200E+02
    -14.696  0.0000E+00  0.1200E+02
    -14.541  0.0000E+00  0.1200E+02
    -14.386  0.0000E+00  0.1200E+02
    -14.232  0.0000E+00  0.1200E+02
    -14.077  0.0000E+00  0.1200E+02
    -13.922  0.0000E+00  0.1200E+02
    -13.768  0.0000E+00  0.1200E+02
    -13.613  0.0000E+00  0.1200E+02
    -13.458  0.0000E+00  0.1200E+02
    -13.304  0.0000E+00  0.1200E+02
    -13.149  0.0000E+00  0.1200E+02
    -12.994  0.0000E+00  0.1200E+02
    -12.840  0.0000E+00  0.1200E+02
    -12.685  0.0000E+00  0.1200E+02
    -12.530  0.0000E+00  0.1200E+02
    -12.376  0.0000E+00  0.1200E+02
    -12.221  0.0000E+00  0.1200E+02
    -12.066  0.0000E+00  0.1200E+02
    -11.912  0.0000E+00  0.1200E+02
    -11.757  0.0000E+00  0.1200E+02
    -11.603  0.0000E+00  0.1200E+02
    -11.448  0.6454E-06  0.1200E+02
    -11.293  0.1984E+02  0.1641E+02
    -11.139  0.0000E+00  0.1800E+02
    -10.984  0.0000E+00  0.1800E+02
    -10.829  0.0000E+00  0.1800E+02
    -10.675  0.0000E+00  0.1800E+02
    -10.520  0.0000E+00  0.1800E+02
    -10.365  0.0000E+00  0.1800E+02
    -10.211  0.0000E+00  0.1800E+02
    -10.056  0.0000E+00  0.1800E+02
     -9.901  0.0000E+00  0.1800E+02
     -9.747  0.0000E+00  0.1800E+02
     -9.592  0.0000E+00  0.1800E+02
     -9.437  0.0000E+00  0.1800E+02
     -9.283  0.0000E+00  0.1800E+02
     -9.128  0.0000E+00  0.1800E+02
     -8.973  0.0000E+00  0.1800E+02
     -8.819  0.0000E+00  0.1800E+02
     -8.664  0.0000E+00  0.1800E+02
     -8.510  0.0000E+00  0.1800E+02
     -8.355  0.0000E+00  0.1800E+02
     -8.200  0.0000E+00  0.1800E+02
     -8.046  0.0000E+00  0.1800E+02
     -7.891  0.0000E+00  0.1800E+02
     -7.736  0.0000E+00  0.1800E+02
     -7.582  0.0000E+00  0.1800E+02
     -7.427  0.0000E+00  0.1800E+02
     -7.272  0.0000E+00  0.1800E+02
     -7.118  0.0000E+00  0.1800E+02
     -6.963  0.0000E+00  0.1800E+02
     -6.808  0.0000E+00  0.1800E+02
     -6.654  0.0000E+00  0.1800E+02
     -6.499  0.0000E+00  0.1800E+02
     -6.344  0.0000E+00  0.1800E+02
     -6.190  0.0000E+00  0.1800E+02
     -6.035  0.0000E+00  0.1800E+02
     -5.880  0.0000E+00  0.1800E+02
     -5.726  0.0000E+00  0.1800E+02
     -5.571  0.0000E+00  0.1800E+02
     -5.417  0.0000E+00  0.1800E+02
     -5.262  0.0000E+00  0.1800E+02
     -5.107  0.0000E+00  0.1800E+02
     -4.953  0.0000E+00  0.1800E+02
     -4.798  0.0000E+00  0.1800E+02
     -4.643  0.5428E-13  0.1800E+02
     -4.489  0.1329E+00  0.1802E+02
     -4.334  0.3212E+00  0.1810E+02
     -4.179  0.7989E+00  0.1828E+02
     -4.025  0.3264E+01  0.1898E+02
     -3.870  0.1458E+01  0.2000E+02
     -3.715  0.0000E+00  0.2000E+02
     -3.561  0.0000E+00  0.2000E+02
     -3.406  0.0000E+00  0.2000E+02
     -3.251  0.0000E+00  0.2000E+02
     -3.097  0.0000E+00  0.2000E+02
     -2.942  0.0000E+00  0.2000E+02
     -2.787  0.0000E+00  0.2000E+02
     -2.633  0.0000E+00  0.2000E+02
     -2.478  0.0000E+00  0.2000E+02
     -2.324  0.0000E+00  0.2000E+02
     -2.169  0.0000E+00  0.2000E+02
     -2.014  0.0000E+00  0.2000E+02
     -1.860  0.0000E+00  0.2000E+02
     -1.705  0.0000E+00  0.2000E+02
     -1.550  0.0000E+00  0.2000E+02
     -1.396  0.0000E+00  0.2000E+02
     -1.241  0.0000E+00  0.2000E+02
     -1.086  0.0000E+00  0.2000E+02
     -0.932  0.0000E+00  0.2000E+02
     -0.777  0.0000E+00  0.2000E+02
     -0.622  0.0000E+00  0.2000E+02
     -0.468  0.0000E+00  0.2000E+02
     -0.313  0.0000E+00  0.2000E+02
     -0.158  0.0000E+00  0.2000E+02
     -0.004  0.0000E+00  0.2000E+02
      0.151  0.0000E+00  0.2000E+02
      0.306  0.0000E+00  0.2000E+02
      0.460  0.0000E+00  0.2000E+02
      0.615  0.0000E+00  0.2000E+02
      0.769  0.0000E+00  0.2000E+02
      0.924  0.0000E+00  0.2000E+02
      1.079  0.0000E+00  0.2000E+02
      1.233  0.0000E+00  0.2000E+02
      1.388  0.0000E+00  0.2000E+02
      1.543  0.4905E-12  0.2000E+02
      1.697  0.3576E+00  0.2006E+02
      1.852  0.8534E+00  0.2028E+02
      2.007  0.1747E+01  0.2102E+02
      2.161  0.1870E+01  0.2141E+02
      2.316  0.1149E+01  0.2167E+02
      2.471  0.9203E+00  0.2191E+02
      2.625  0.1383E+00  0.2197E+02
      2.780  0.4169E+01  0.2262E+02
      2.935  0.3396E+01  0.2387E+02
      3.089  0.2515E+01  0.2475E+02
      3.244  0.3661E+01  0.2585E+02
      3.398  0.1955E+00  0.2604E+02
      3.553  0.1184E+01  0.2628E+02
      3.708  0.6196E+01  0.2867E+02
      3.862  0.5291E+01  0.3057E+02
      4.017  0.2556E+01  0.3141E+02
      4.172  0.7174E+00  0.3174E+02
      4.326  0.5045E+00  0.3196E+02
      4.481  0.3225E+00  0.3214E+02
      4.636  0.6852E+00  0.3250E+02
      4.790  0.1071E+01  0.3277E+02
      4.945  0.8395E+00  0.3308E+02
      5.100  0.8858E+00  0.3331E+02
      5.254  0.6672E+00  0.3359E+02
      5.409  0.2790E+01  0.3408E+02
      5.564  0.3445E+01  0.3556E+02
      5.718  0.6420E+00  0.3582E+02
      5.873  0.1301E+00  0.3595E+02
      6.028  0.7244E-01  0.3598E+02
      6.182  0.6601E-01  0.3601E+02
      6.337  0.7273E-01  0.3603E+02
      6.491  0.2551E-01  0.3605E+02
      6.646  0.5459E+00  0.3618E+02
      6.801  0.8021E+00  0.3636E+02
      6.955  0.1670E+01  0.3682E+02
      7.110  0.1252E+01  0.3736E+02
      7.265  0.1202E+01  0.3786E+02
      7.419  0.8924E+00  0.3817E+02
      7.574  0.4481E+00  0.3833E+02
      7.729  0.7514E+00  0.3852E+02
      7.883  0.1154E+01  0.3883E+02
      8.038  0.3264E+01  0.3975E+02
      8.193  0.2466E+01  0.4063E+02
      8.347  0.3907E+01  0.4157E+02
      8.502  0.6316E+01  0.4365E+02
      8.657  0.6113E+01  0.4671E+02
      8.811  0.0000E+00  0.4800E+02
      8.966  0.0000E+00  0.4800E+02
      9.121  0.0000E+00  0.4800E+02
      9.275  0.0000E+00  0.4800E+02
      9.430  0.0000E+00  0.4800E+02
      9.584  0.0000E+00  0.4800E+02
      9.739  0.0000E+00  0.4800E+02
      9.894  0.0000E+00  0.4800E+02
     10.048  0.0000E+00  0.4800E+02
     10.203  0.0000E+00  0.4800E+02
     10.358  0.0000E+00  0.4800E+02
     10.512  0.0000E+00  0.4800E+02
     10.667  0.0000E+00  0.4800E+02
     10.822  0.0000E+00  0.4800E+02
