    3    3    1    1
  0.3053105E+02  0.5059714E-09  0.5059714E-09  0.5059714E-09  0.5000000E-15
  1.000000000000000E-004
  CAR
 unknown system
     37     84     24

  0.0000000E+00  0.0000000E+00  0.0000000E+00  0.4551661E-03
    1      -33.464383   1.000000
    2      -15.777715   1.000000
    3      -15.777715   1.000000
    4      -15.752595   1.000000
    5      -15.752595   1.000000
    6      -15.752595   1.000000
    7      -11.289812   1.000000
    8      -11.289812   1.000000
    9      -11.289812   1.000000
   10       -4.595788   1.000000
   11        3.208051   1.000000
   12        3.208051   1.000000
   13        3.208051   1.000000
   14        3.506429   1.000000
   15        3.506429   1.000000
   16        4.703907   1.000000
   17        6.118402   1.000000
   18        6.118402   1.000000
   19        6.118402   1.000000
   20        7.276587   0.000000
   21        7.276587   0.000000
   22        7.276587   0.000000
   23        7.938538   0.000000
   24        8.631109   0.000000

  0.7692308E-01  0.3185252E-17 -0.4857652E-17  0.3641329E-02
    1      -33.464250   1.000000
    2      -15.778063   1.000000
    3      -15.778063   1.000000
    4      -15.752653   1.000000
    5      -15.752511   1.000000
    6      -15.752511   1.000000
    7      -11.297839   1.000000
    8      -11.288974   1.000000
    9      -11.288974   1.000000
   10       -4.555641   1.000000
   11        3.060455   1.000000
   12        3.137159   1.000000
   13        3.137159   1.000000
   14        3.573378   1.000000
   15        3.573378   1.000000
   16        4.633276   1.000000
   17        6.041433   1.000000
   18        6.041433   1.000000
   19        6.140531   1.000000
   20        7.349061   0.000000
   21        7.359372   0.000000
   22        7.359372   0.000000
   23        8.103422   0.000000
   24        8.639619   0.000000

  0.1538462E+00 -0.4866452E-17  0.1521653E-17  0.3641329E-02
    1      -33.463885   1.000000
    2      -15.779049   1.000000
    3      -15.779049   1.000000
    4      -15.752827   1.000000
    5      -15.752274   1.000000
    6      -15.752274   1.000000
    7      -11.319657   1.000000
    8      -11.286656   1.000000
    9      -11.286656   1.000000
   10       -4.443736   1.000000
   11        2.717511   1.000000
   12        3.020393   1.000000
   13        3.020393   1.000000
   14        3.671190   1.000000
   15        3.671190   1.000000
   16        4.417823   1.000000
   17        5.877650   1.000000
   18        5.877650   1.000000
   19        6.195850   1.000000
   20        7.553156   0.000000
   21        7.553156   0.000000
   22        7.657995   0.000000
   23        8.383333   0.000000
   24        8.655347   0.000000

  0.2307692E+00  0.5990167E-17 -0.1100737E-16  0.3641329E-02
    1      -33.463373   1.000000
    2      -15.780448   1.000000
    3      -15.780448   1.000000
    4      -15.753093   1.000000
    5      -15.751931   1.000000
    6      -15.751931   1.000000
    7      -11.349405   1.000000
    8      -11.283402   1.000000
    9      -11.283402   1.000000
   10       -4.284270   1.000000
   11        2.327582   1.000000
   12        2.925546   1.000000
   13        2.925546   1.000000
   14        3.717872   1.000000
   15        3.717872   1.000000
   16        4.138240   1.000000
   17        5.724067   1.000000
   18        5.724067   1.000000
   19        6.280401   1.000000
   20        7.782628   0.000000
   21        7.782628   0.000000
   22        8.118541   0.000000
   23        8.584658   0.000000
   24        8.670686   0.000000

  0.3076923E+00 -0.9732903E-17  0.3043306E-17  0.3641329E-02
    1      -33.462830   1.000000
    2      -15.781946   1.000000
    3      -15.781946   1.000000
    4      -15.753413   1.000000
    5      -15.751555   1.000000
    6      -15.751555   1.000000
    7      -11.379746   1.000000
    8      -11.279959   1.000000
    9      -11.279959   1.000000
   10       -4.112645   1.000000
   11        1.980116   1.000000
   12        2.868769   1.000000
   13        2.868769   1.000000
   14        3.695867   1.000000
   15        3.695867   1.000000
   16        3.893739   1.000000
   17        5.626646   1.000000
   18        5.626646   1.000000
   19        6.401135   1.000000
   20        7.996437   0.000000
   21        7.996437   0.000000
   22        8.508656   0.000000
   23        8.636107   0.000000
   24        8.636592   0.000000

  0.3846154E+00 -0.3412300E-18 -0.8020767E-17  0.3641329E-02
    1      -33.462378   1.000000
    2      -15.783190   1.000000
    3      -15.783190   1.000000
    4      -15.753700   1.000000
    5      -15.751230   1.000000
    6      -15.751230   1.000000
    7      -11.403978   1.000000
    8      -11.277115   1.000000
    9      -11.277115   1.000000
   10       -3.968407   1.000000
   11        1.724694   1.000000
   12        2.847491   1.000000
   13        2.847491   1.000000
   14        3.632549   1.000000
   15        3.632549   1.000000
   16        3.728833   1.000000
   17        5.583029   1.000000
   18        5.583029   1.000000
   19        6.549956   1.000000
   20        8.153414   0.000000
   21        8.153414   0.000000
   22        8.600609   0.000000
   23        8.601085   0.000000
   24        8.645676   0.000000

  0.4615385E+00  0.1169127E-16 -0.2172567E-16  0.3641329E-02
    1      -33.462126   1.000000
    2      -15.783895   1.000000
    3      -15.783895   1.000000
    4      -15.753869   1.000000
    5      -15.751042   1.000000
    6      -15.751042   1.000000
    7      -11.417307   1.000000
    8      -11.275514   1.000000
    9      -11.275514   1.000000
   10       -3.886143   1.000000
   11        1.590077   1.000000
   12        2.845973   1.000000
   13        2.845973   1.000000
   14        3.579925   1.000000
   15        3.579925   1.000000
   16        3.649329   1.000000
   17        5.569801   1.000000
   18        5.569801   1.000000
   19        6.672829   1.000000
   20        8.233951   0.000000
   21        8.233951   0.000000
   22        8.578235   0.000000
   23        8.578244   0.000000
   24        8.599342   0.000000

  0.7692308E-01  0.7692308E-01 -0.1316349E-17  0.2730997E-02
    1      -33.464206   1.000000
    2      -15.778718   1.000000
    3      -15.777588   1.000000
    4      -15.752756   1.000000
    5      -15.752444   1.000000
    6      -15.752443   1.000000
    7      -11.295775   1.000000
    8      -11.291087   1.000000
    9      -11.291087   1.000000
   10       -4.543318   1.000000
   11        2.881703   1.000000
   12        3.222137   1.000000
   13        3.222137   1.000000
   14        3.521529   1.000000
   15        3.590929   1.000000
   16        4.634386   1.000000
   17        5.937435   1.000000
   18        5.937435   1.000000
   19        6.332966   1.000000
   20        7.116312   0.000000
   21        7.495299   0.000000
   22        7.495299   0.000000
   23        8.132656   0.000000
   24        8.627295   0.000000

  0.1538462E+00  0.7692308E-01 -0.3904388E-17  0.1092399E-01
    1      -33.463920   1.000000
    2      -15.779834   1.000000
    3      -15.777829   1.000000
    4      -15.752919   1.000000
    5      -15.752263   1.000000
    6      -15.752222   1.000000
    7      -11.311992   1.000000
    8      -11.291394   1.000000
    9      -11.288277   1.000000
   10       -4.458462   1.000000
   11        2.610838   1.000000
   12        3.127688   1.000000
   13        3.173973   1.000000
   14        3.585663   1.000000
   15        3.660846   1.000000
   16        4.506558   1.000000
   17        5.754613   1.000000
   18        5.779658   1.000000
   19        6.497950   1.000000
   20        7.130963   0.000000
   21        7.693144   0.000000
   22        7.732202   0.000000
   23        8.342120   0.000000
   24        8.625851   0.000000

  0.2307692E+00  0.7692308E-01 -0.3288091E-17  0.1092399E-01
    1      -33.463459   1.000000
    2      -15.781168   1.000000
    3      -15.778752   1.000000
    4      -15.753117   1.000000
    5      -15.752016   1.000000
    6      -15.751881   1.000000
    7      -11.338889   1.000000
    8      -11.289829   1.000000
    9      -11.284322   1.000000
   10       -4.319919   1.000000
   11        2.315458   1.000000
   12        2.962149   1.000000
   13        3.087513   1.000000
   14        3.648186   1.000000
   15        3.735429   1.000000
   16        4.264422   1.000000
   17        5.577051   1.000000
   18        5.645705   1.000000
   19        6.567218   1.000000
   20        7.413035   0.000000
   21        7.892091   0.000000
   22        8.057659   0.000000
   23        8.544963   0.000000
   24        8.630149   0.000000

  0.3076923E+00  0.7692308E-01 -0.1406310E-16  0.1092399E-01
    1      -33.462929   1.000000
    2      -15.782418   1.000000
    3      -15.780151   1.000000
    4      -15.753349   1.000000
    5      -15.751721   1.000000
    6      -15.751496   1.000000
    7      -11.368621   1.000000
    8      -11.286758   1.000000
    9      -11.281157   1.000000
   10       -4.158850   1.000000
   11        2.031614   1.000000
   12        2.844885   1.000000
   13        3.014761   1.000000
   14        3.648182   1.000000
   15        3.750686   1.000000
   16        4.005350   1.000000
   17        5.472673   1.000000
   18        5.569408   1.000000
   19        6.588861   1.000000
   20        7.777832   0.000000
   21        8.064685   0.000000
   22        8.396341   0.000000
   23        8.618993   0.000000
   24        8.641874   0.000000

  0.3846154E+00  0.7692308E-01 -0.3014924E-18  0.1092399E-01
    1      -33.462449   1.000000
    2      -15.783307   1.000000
    3      -15.781688   1.000000
    4      -15.753573   1.000000
    5      -15.751428   1.000000
    6      -15.751161   1.000000
    7      -11.394387   1.000000
    8      -11.282892   1.000000
    9      -11.279489   1.000000
   10       -4.012112   1.000000
   11        1.802904   1.000000
   12        2.796717   1.000000
   13        2.957507   1.000000
   14        3.607422   1.000000
   15        3.705007   1.000000
   16        3.805667   1.000000
   17        5.430102   1.000000
   18        5.541800   1.000000
   19        6.654525   1.000000
   20        8.045468   0.000000
   21        8.190380   0.000000
   22        8.555355   0.000000
   23        8.599085   0.000000
   24        8.666841   0.000000

  0.4615385E+00  0.7692308E-01 -0.1107651E-16  0.1092399E-01
    1      -33.462129   1.000000
    2      -15.783622   1.000000
    3      -15.783012   1.000000
    4      -15.753733   1.000000
    5      -15.751207   1.000000
    6      -15.750962   1.000000
    7      -11.410933   1.000000
    8      -11.279648   1.000000
    9      -11.279106   1.000000
   10       -3.913771   1.000000
   11        1.661215   1.000000
   12        2.808341   1.000000
   13        2.900794   1.000000
   14        3.581954   1.000000
   15        3.638337   1.000000
   16        3.685229   1.000000
   17        5.419358   1.000000
   18        5.536898   1.000000
   19        6.753327   1.000000
   20        8.172170   0.000000
   21        8.257867   0.000000
   22        8.550462   0.000000
   23        8.574024   0.000000
   24        8.656553   0.000000

 -0.4615385E+00  0.7692308E-01  0.1689369E-17  0.1092399E-01
    1      -33.462045   1.000000
    2      -15.783813   1.000000
    3      -15.783294   1.000000
    4      -15.753768   1.000000
    5      -15.751118   1.000000
    6      -15.750954   1.000000
    7      -11.415207   1.000000
    8      -11.281551   1.000000
    9      -11.276257   1.000000
   10       -3.886850   1.000000
   11        1.623940   1.000000
   12        2.837476   1.000000
   13        2.859108   1.000000
   14        3.585271   1.000000
   15        3.609446   1.000000
   16        3.654073   1.000000
   17        5.411441   1.000000
   18        5.540223   1.000000
   19        6.798453   1.000000
   20        8.201406   0.000000
   21        8.256715   0.000000
   22        8.555750   0.000000
   23        8.562565   0.000000
   24        8.633238   0.000000

 -0.3846154E+00  0.7692308E-01  0.1866993E-16  0.1092399E-01
    1      -33.462213   1.000000
    2      -15.783910   1.000000
    3      -15.782387   1.000000
    4      -15.753659   1.000000
    5      -15.751187   1.000000
    6      -15.751130   1.000000
    7      -11.406493   1.000000
    8      -11.284716   1.000000
    9      -11.274994   1.000000
   10       -3.937761   1.000000
   11        1.696796   1.000000
   12        2.783711   1.000000
   13        2.926149   1.000000
   14        3.572241   1.000000
   15        3.680882   1.000000
   16        3.713731   1.000000
   17        5.389990   1.000000
   18        5.557046   1.000000
   19        6.738143   1.000000
   20        8.172249   0.000000
   21        8.205349   0.000000
   22        8.565873   0.000000
   23        8.572885   0.000000
   24        8.669471   0.000000

 -0.3076923E+00  0.7692308E-01  0.4675968E-17  0.1092399E-01
    1      -33.462597   1.000000
    2      -15.783289   1.000000
    3      -15.781109   1.000000
    4      -15.753442   1.000000
    5      -15.751446   1.000000
    6      -15.751400   1.000000
    7      -11.386418   1.000000
    8      -11.288366   1.000000
    9      -11.275612   1.000000
   10       -4.054670   1.000000
   11        1.875256   1.000000
   12        2.763110   1.000000
   13        2.999311   1.000000
   14        3.601870   1.000000
   15        3.756478   1.000000
   16        3.857902   1.000000
   17        5.360495   1.000000
   18        5.607814   1.000000
   19        6.648891   1.000000
   20        8.002353   0.000000
   21        8.121944   0.000000
   22        8.543472   0.000000
   23        8.594798   0.000000
   24        8.677469   0.000000

 -0.2307692E+00  0.7692308E-01 -0.9028936E-17  0.1092399E-01
    1      -33.463109   1.000000
    2      -15.782097   1.000000
    3      -15.779753   1.000000
    4      -15.753189   1.000000
    5      -15.751826   1.000000
    6      -15.751705   1.000000
    7      -11.358940   1.000000
    8      -11.291578   1.000000
    9      -11.277982   1.000000
   10       -4.210204   1.000000
   11        2.143429   1.000000
   12        2.790862   1.000000
   13        3.084649   1.000000
   14        3.627142   1.000000
   15        3.792259   1.000000
   16        4.081477   1.000000
   17        5.360789   1.000000
   18        5.713627   1.000000
   19        6.589434   1.000000
   20        7.771882   0.000000
   21        7.897342   0.000000
   22        8.312650   0.000000
   23        8.616929   0.000000
   24        8.639200   0.000000

 -0.1538462E+00  0.7692308E-01  0.7662567E-17  0.1092399E-01
    1      -33.463630   1.000000
    2      -15.780609   1.000000
    3      -15.778646   1.000000
    4      -15.752958   1.000000
    5      -15.752174   1.000000
    6      -15.752030   1.000000
    7      -11.330147   1.000000
    8      -11.293380   1.000000
    9      -11.281562   1.000000
   10       -4.368221   1.000000
   11        2.470363   1.000000
   12        2.870762   1.000000
   13        3.182384   1.000000
   14        3.599957   1.000000
   15        3.764049   1.000000
   16        4.339568   1.000000
   17        5.461379   1.000000
   18        5.868040   1.000000
   19        6.528611   1.000000
   20        7.537016   0.000000
   21        7.542410   0.000000
   22        8.022823   0.000000
   23        8.488299   0.000000
   24        8.630260   0.000000

 -0.7692308E-01  0.7692308E-01  0.6370505E-17  0.5461994E-02
    1      -33.464041   1.000000
    2      -15.779155   1.000000
    3      -15.778033   1.000000
    4      -15.752773   1.000000
    5      -15.752417   1.000000
    6      -15.752316   1.000000
    7      -11.307737   1.000000
    8      -11.292522   1.000000
    9      -11.285533   1.000000
   10       -4.492651   1.000000
   11        2.804729   1.000000
   12        2.994845   1.000000
   13        3.234143   1.000000
   14        3.551658   1.000000
   15        3.679618   1.000000
   16        4.538720   1.000000
   17        5.721370   1.000000
   18        6.010316   1.000000
   19        6.353645   1.000000
   20        7.321600   0.000000
   21        7.372864   0.000000
   22        7.712343   0.000000
   23        8.274274   0.000000
   24        8.634961   0.000000

  0.1538462E+00  0.1538462E+00 -0.2632698E-17  0.2730997E-02
    1      -33.463728   1.000000
    2      -15.780804   1.000000
    3      -15.777230   1.000000
    4      -15.753199   1.000000
    5      -15.752008   1.000000
    6      -15.752008   1.000000
    7      -11.312181   1.000000
    8      -11.294682   1.000000
    9      -11.294682   1.000000
   10       -4.409367   1.000000
   11        2.363879   1.000000
   12        3.254458   1.000000
   13        3.254458   1.000000
   14        3.564149   1.000000
   15        3.592411   1.000000
   16        4.516507   1.000000
   17        5.642063   1.000000
   18        5.642063   1.000000
   19        6.638954   1.000000
   20        6.990698   0.778716
   21        7.870973   0.000000
   22        7.870973   0.000000
   23        8.417626   0.000000
   24        8.613081   0.000000

  0.2307692E+00  0.1538462E+00 -0.7538246E-17  0.1092399E-01
    1      -33.463348   1.000000
    2      -15.781738   1.000000
    3      -15.777403   1.000000
    4      -15.753443   1.000000
    5      -15.751736   1.000000
    6      -15.751673   1.000000
    7      -11.331249   1.000000
    8      -11.295775   1.000000
    9      -11.292845   1.000000
   10       -4.308773   1.000000
   11        2.142516   1.000000
   12        3.153587   1.000000
   13        3.226357   1.000000
   14        3.610025   1.000000
   15        3.636635   1.000000
   16        4.391501   1.000000
   17        5.445177   1.000000
   18        5.530982   1.000000
   19        6.833715   1.000000
   20        7.056201   0.000000
   21        8.030194   0.000000
   22        8.079929   0.000000
   23        8.552107   0.000000
   24        8.603214   0.000000

  0.3076923E+00  0.1538462E+00 -0.3702998E-17  0.1092399E-01
    1      -33.462872   1.000000
    2      -15.782422   1.000000
    3      -15.778320   1.000000
    4      -15.753601   1.000000
    5      -15.751525   1.000000
    6      -15.751293   1.000000
    7      -11.357266   1.000000
    8      -11.294436   1.000000
    9      -11.290130   1.000000
   10       -4.180959   1.000000
   11        1.974311   1.000000
   12        2.978412   1.000000
   13        3.161983   1.000000
   14        3.629943   1.000000
   15        3.704098   1.000000
   16        4.176334   1.000000
   17        5.250915   1.000000
   18        5.476201   1.000000
   19        6.867710   1.000000
   20        7.466614   0.000000
   21        8.157108   0.000000
   22        8.315448   0.000000
   23        8.593221   0.000000
   24        8.639491   0.000000

  0.3846154E+00  0.1538462E+00 -0.1476707E-16  0.1092399E-01
    1      -33.462405   1.000000
    2      -15.782710   1.000000
    3      -15.779758   1.000000
    4      -15.753660   1.000000
    5      -15.751395   1.000000
    6      -15.750950   1.000000
    7      -11.381440   1.000000
    8      -11.290976   1.000000
    9      -11.289790   1.000000
   10       -4.055806   1.000000
   11        1.862893   1.000000
   12        2.850549   1.000000
   13        3.084949   1.000000
   14        3.615927   1.000000
   15        3.716723   1.000000
   16        3.954424   1.000000
   17        5.149776   1.000000
   18        5.464221   1.000000
   19        6.854816   1.000000
   20        7.904002   0.000000
   21        8.250123   0.000000
   22        8.488728   0.000000
   23        8.579946   0.000000
   24        8.677709   0.000000

  0.4615385E+00  0.1538462E+00 -0.7163996E-18  0.1092399E-01
    1      -33.462059   1.000000
    2      -15.782541   1.000000
    3      -15.781375   1.000000
    4      -15.753625   1.000000
    5      -15.751346   1.000000
    6      -15.750740   1.000000
    7      -11.398443   1.000000
    8      -11.292066   1.000000
    9      -11.286187   1.000000
   10       -3.960974   1.000000
   11        1.797779   1.000000
   12        2.803816   1.000000
   13        2.987415   1.000000
   14        3.617350   1.000000
   15        3.674982   1.000000
   16        3.797069   1.000000
   17        5.113037   1.000000
   18        5.464867   1.000000
   19        6.903344   1.000000
   20        8.097528   0.000000
   21        8.307393   0.000000
   22        8.522106   0.000000
   23        8.560908   0.000000
   24        8.694119   0.000000

 -0.4615385E+00  0.1538462E+00 -0.1277621E-16  0.1092399E-01
    1      -33.461909   1.000000
    2      -15.782793   1.000000
    3      -15.781952   1.000000
    4      -15.753521   1.000000
    5      -15.751359   1.000000
    6      -15.750721   1.000000
    7      -11.405160   1.000000
    8      -11.296247   1.000000
    9      -11.281154   1.000000
   10       -3.916168   1.000000
   11        1.767835   1.000000
   12        2.838002   1.000000
   13        2.875985   1.000000
   14        3.615977   1.000000
   15        3.663126   1.000000
   16        3.730123   1.000000
   17        5.091900   1.000000
   18        5.465122   1.000000
   19        6.980743   0.985212
   20        8.098086   0.000000
   21        8.316491   0.000000
   22        8.543056   0.000000
   23        8.553208   0.000000
   24        8.667666   0.000000

 -0.3846154E+00  0.1538462E+00 -0.1655429E-17  0.1092399E-01
    1      -33.461990   1.000000
    2      -15.783697   1.000000
    3      -15.781076   1.000000
    4      -15.753381   1.000000
    5      -15.751414   1.000000
    6      -15.750892   1.000000
    7      -11.400730   1.000000
    8      -11.301036   1.000000
    9      -11.277019   1.000000
   10       -3.930681   1.000000
   11        1.775476   1.000000
   12        2.776976   1.000000
   13        2.932482   1.000000
   14        3.572278   1.000000
   15        3.740385   1.000000
   16        3.761646   1.000000
   17        5.049901   1.000000
   18        5.475700   1.000000
   19        7.006624   0.068846
   20        8.123827   0.000000
   21        8.248486   0.000000
   22        8.543286   0.000000
   23        8.565986   0.000000
   24        8.676045   0.000000

 -0.3076923E+00  0.1538462E+00  0.9176291E-17  0.1092399E-01
    1      -33.462284   1.000000
    2      -15.783888   1.000000
    3      -15.780098   1.000000
    4      -15.753252   1.000000
    5      -15.751500   1.000000
    6      -15.751205   1.000000
    7      -11.386518   1.000000
    8      -11.304784   1.000000
    9      -11.274730   1.000000
   10       -4.002564   1.000000
   11        1.837720   1.000000
   12        2.715947   1.000000
   13        3.059571   1.000000
   14        3.555558   1.000000
   15        3.814843   1.000000
   16        3.887766   1.000000
   17        4.983031   1.000000
   18        5.520754   1.000000
   19        6.990762   0.775994
   20        8.093491   0.000000
   21        8.129354   0.000000
   22        8.551609   0.000000
   23        8.560051   0.000000
   24        8.698944   0.000000

 -0.2307692E+00  0.1538462E+00  0.4261061E-17  0.1092399E-01
    1      -33.462725   1.000000
    2      -15.783330   1.000000
    3      -15.779246   1.000000
    4      -15.753158   1.000000
    5      -15.751618   1.000000
    6      -15.751576   1.000000
    7      -11.366189   1.000000
    8      -11.305656   1.000000
    9      -11.274823   1.000000
   10       -4.117572   1.000000
   11        1.974606   1.000000
   12        2.708814   1.000000
   13        3.186277   1.000000
   14        3.554319   1.000000
   15        3.851015   1.000000
   16        4.078610   1.000000
   17        4.946884   1.000000
   18        5.618920   1.000000
   19        6.975149   0.998495
   20        7.879130   0.000000
   21        7.957828   0.000000
   22        8.459942   0.000000
   23        8.582501   0.000000
   24        8.707280   0.000000

 -0.1538462E+00  0.1538462E+00 -0.9732903E-17  0.5461994E-02
    1      -33.463211   1.000000
    2      -15.782144   1.000000
    3      -15.778711   1.000000
    4      -15.753074   1.000000
    5      -15.751918   1.000000
    6      -15.751788   1.000000
    7      -11.345589   1.000000
    8      -11.301788   1.000000
    9      -11.277290   1.000000
   10       -4.249965   1.000000
   11        2.192647   1.000000
   12        2.761651   1.000000
   13        3.259950   1.000000
   14        3.550936   1.000000
   15        3.831537   1.000000
   16        4.248435   1.000000
   17        5.081616   1.000000
   18        5.755813   1.000000
   19        6.876062   1.000000
   20        7.654502   0.000000
   21        7.666952   0.000000
   22        8.286702   0.000000
   23        8.601851   0.000000
   24        8.606096   0.000000

  0.2307692E+00  0.2307692E+00 -0.3949047E-17  0.2730997E-02
    1      -33.463064   1.000000
    2      -15.782014   1.000000
    3      -15.776725   1.000000
    4      -15.753825   1.000000
    5      -15.751347   1.000000
    6      -15.751347   1.000000
    7      -11.335110   1.000000
    8      -11.299884   1.000000
    9      -11.299884   1.000000
   10       -4.255646   1.000000
   11        1.989166   1.000000
   12        3.279871   1.000000
   13        3.279871   1.000000
   14        3.499516   1.000000
   15        3.626274   1.000000
   16        4.389415   1.000000
   17        5.439639   1.000000
   18        5.439639   1.000000
   19        6.647078   1.000000
   20        7.217344   0.000000
   21        8.147555   0.000000
   22        8.147555   0.000000
   23        8.581183   0.000000
   24        8.602340   0.000000

  0.3076923E+00  0.2307692E+00 -0.8396566E-17  0.1092399E-01
    1      -33.462672   1.000000
    2      -15.781945   1.000000
    3      -15.776893   1.000000
    4      -15.754084   1.000000
    5      -15.751052   1.000000
    6      -15.750973   1.000000
    7      -11.352401   1.000000
    8      -11.301225   1.000000
    9      -11.300567   1.000000
   10       -4.175890   1.000000
   11        1.909363   1.000000
   12        3.151238   1.000000
   13        3.255947   1.000000
   14        3.550667   1.000000
   15        3.654148   1.000000
   16        4.271608   1.000000
   17        5.266777   1.000000
   18        5.401959   1.000000
   19        6.793854   1.000000
   20        7.387102   0.000000
   21        8.236080   0.000000
   22        8.276533   0.000000
   23        8.562512   0.000000
   24        8.619463   0.000000

  0.3846154E+00  0.2307692E+00 -0.8512743E-17  0.1092399E-01
    1      -33.462261   1.000000
    2      -15.781529   1.000000
    3      -15.777843   1.000000
    4      -15.754135   1.000000
    5      -15.750933   1.000000
    6      -15.750624   1.000000
    7      -11.371556   1.000000
    8      -11.302106   1.000000
    9      -11.299505   1.000000
   10       -4.089508   1.000000
   11        1.907936   1.000000
   12        2.974630   1.000000
   13        3.188316   1.000000
   14        3.634793   1.000000
   15        3.661089   1.000000
   16        4.095638   1.000000
   17        5.036581   1.000000
   18        5.401692   1.000000
   19        6.912876   1.000000
   20        7.765966   0.000000
   21        8.302780   0.000000
   22        8.420780   0.000000
   23        8.554589   0.000000
   24        8.630459   0.000000

  0.4615385E+00  0.2307692E+00 -0.2075270E-16  0.1092399E-01
    1      -33.461927   1.000000
    2      -15.780888   1.000000
    3      -15.779357   1.000000
    4      -15.753958   1.000000
    5      -15.751029   1.000000
    6      -15.750414   1.000000
    7      -11.385384   1.000000
    8      -11.307118   1.000000
    9      -11.295121   1.000000
   10       -4.014887   1.000000
   11        1.954340   1.000000
   12        2.857128   1.000000
   13        3.081667   1.000000
   14        3.661693   1.000000
   15        3.677785   1.000000
   16        3.930820   1.000000
   17        4.876324   1.000000
   18        5.402283   1.000000
   19        6.969032   0.999936
   20        8.051635   0.000000
   21        8.352481   0.000000
   22        8.488637   0.000000
   23        8.549000   0.000000
   24        8.706667   0.000000

 -0.4615385E+00  0.2307692E+00 -0.5056935E-17  0.1092399E-01
    1      -33.461747   1.000000
    2      -15.781075   1.000000
    3      -15.780170   1.000000
    4      -15.753591   1.000000
    5      -15.751301   1.000000
    6      -15.750390   1.000000
    7      -11.390887   1.000000
    8      -11.314694   1.000000
    9      -11.289065   1.000000
   10       -3.965285   1.000000
   11        1.987941   1.000000
   12        2.824882   1.000000
   13        2.950447   1.000000
   14        3.620379   1.000000
   15        3.726354   1.000000
   16        3.855825   1.000000
   17        4.783938   1.000000
   18        5.390927   1.000000
   19        7.067398   0.000000
   20        8.046156   0.000000
   21        8.378950   0.000000
   22        8.527179   0.000000
   23        8.533699   0.000000
   24        8.684355   0.000000

 -0.3846154E+00  0.2307692E+00  0.6063845E-17  0.1092399E-01
    1      -33.461760   1.000000
    2      -15.782609   1.000000
    3      -15.779540   1.000000
    4      -15.753148   1.000000
    5      -15.751646   1.000000
    6      -15.750553   1.000000
    7      -11.388116   1.000000
    8      -11.322099   1.000000
    9      -11.282711   1.000000
   10       -3.949208   1.000000
   11        1.963669   1.000000
   12        2.824419   1.000000
   13        2.879698   1.000000
   14        3.577131   1.000000
   15        3.794759   1.000000
   16        3.874671   1.000000
   17        4.720166   1.000000
   18        5.385564   1.000000
   19        7.179285   0.000000
   20        8.010844   0.000000
   21        8.348796   0.000000
   22        8.521853   0.000000