 vasp.6.0.8 29Jun18 (build Jun 13 2019 12:54:44) complex

 executed on      IFC18_CrayMPICH date 2021.12.05  14:21:47
 running   64 mpi-ranks, with    1 threads/rank
 distrk:  each k-point on   16 cores,    4 groups
 distr:  one band on NCORES_PER_BAND=   4 cores,    4 groups


--------------------------------------------------------------------------------------------------------


 INCAR:
 POTCAR:    PAW_PBE Th 07Sep2000
 POTCAR:    PAW_PBE Bi_d 06Sep2000
 POTCAR:    PAW_PBE Pt 04Feb2005
 POTCAR:    PAW_PBE Th 07Sep2000
   VRHFIN =Th:  [Xe,5d,4f]
   LEXCH  = PE
   EATOM  =   984.7553 eV,   72.3775 Ry

   TITEL  = PAW_PBE Th 07Sep2000
   LULTRA =        F    use ultrasoft PP ?
   IUNSCR =        1    unscreen: 0-lin 1-nonlin 2-no
   RPACOR =    2.200    partial core radius
   POMASS =  232.039; ZVAL   =   12.000    mass and valenz
   RCORE  =    2.800    outmost cutoff radius
   RWIGS  =    3.000; RWIGS  =    1.588    wigner-seitz radius (au A)
   ENMAX  =  247.306; ENMIN  =  185.480 eV
   RCLOC  =    2.211    cutoff for local pot
   LCOR   =        T    correct aug charges
   LPAW   =        T    paw PP
   EAUG   =  535.431
   DEXC   =    0.000
   RMAX   =    2.862    core radius for proj-oper
   RAUG   =    1.300    factor for augmentation sphere
   RDEP   =    2.926    radius for radial grids
   RDEPT  =    2.250    core radius for aug-charge

   Atomic configuration
   18 entries
     n  l   j            E        occ.
     1  0  0.50   -109990.1879   2.0000
     2  0  0.50    -20388.0147   2.0000
     2  1  1.50    -17049.6156   6.0000
     3  0  0.50     -5106.5436   2.0000
     3  1  1.50     -4175.1262   6.0000
     3  2  2.50     -3342.8437  10.0000
     4  0  0.50     -1280.8211   2.0000
     4  1  1.50      -976.4859   6.0000
     4  2  2.50      -661.8358  10.0000
     4  3  3.50      -324.9124  14.0000
     5  0  0.50      -278.7726   2.0000
     5  1  1.50      -186.2212   6.0000
     5  2  2.50       -86.9031  10.0000
     6  0  0.50       -43.3059   2.0000
     7  0  0.50        -4.0783   2.0000
     6  1  1.50       -21.4071   6.0000
     6  2  1.50        -2.3664   1.0000
     5  3  2.50        -1.2804   1.0000
   Description
     l       E           TYP  RCUT    TYP  RCUT
     0    -43.3059201     23  2.800
     0     -4.0782900     23  2.800
     1    -21.4071032     23  2.500
     1    -22.7676858     23  2.500
     2     -2.3664170     23  2.500
     2      3.0546543     23  2.500
     3     -1.2803910     23  2.800
     3      0.1360583     23  2.800
  local pseudopotential read in
  partial core-charges read in
  partial kinetic energy density read in
  atomic valenz-charges read in
  non local Contribution for L=           0  read in
    real space projection operators read in
  non local Contribution for L=           0  read in
    real space projection operators read in
  non local Contribution for L=           1  read in
    real space projection operators read in
  non local Contribution for L=           1  read in
    real space projection operators read in
  non local Contribution for L=           2  read in
    real space projection operators read in
  non local Contribution for L=           2  read in
    real space projection operators read in
  non local Contribution for L=           3  read in
    real space projection operators read in
  non local Contribution for L=           3  read in
    real space projection operators read in
    PAW grid and wavefunctions read in

   number of l-projection  operators is LMAX  =           8
   number of lm-projection operators is LMMAX =          32

 POTCAR:    PAW_PBE Bi_d 06Sep2000
   VRHFIN =Bi:
   LEXCH  = PE
   EATOM  =  1959.2045 eV,  143.9975 Ry

   TITEL  = PAW_PBE Bi_d 06Sep2000
   LULTRA =        F    use ultrasoft PP ?
   IUNSCR =        1    unscreen: 0-lin 1-nonlin 2-no
   RPACOR =    2.200    partial core radius
   POMASS =  208.980; ZVAL   =   15.000    mass and valenz
   RCORE  =    2.500    outmost cutoff radius
   RWIGS  =    3.090; RWIGS  =    1.635    wigner-seitz radius (au A)
   ENMAX  =  242.839; ENMIN  =  182.129 eV
   ICORE  =        3    local potential
   LCOR   =        T    correct aug charges
   LPAW   =        T    paw PP
   EAUG   =  442.899
   DEXC   =    0.000
   RMAX   =    2.551    core radius for proj-oper
   RAUG   =    1.300    factor for augmentation sphere
   RDEP   =    2.650    radius for radial grids
   RDEPT  =    2.039    core radius for aug-charge

   Atomic configuration
   16 entries
     n  l   j            E        occ.
     1  0  0.50    -90639.6581   2.0000
     2  0  0.50    -16282.4666   2.0000
     2  1  1.50    -13922.8286   6.0000
     3  0  0.50     -3930.4763   2.0000
     3  1  1.50     -3256.7013   6.0000
     3  2  2.50     -2581.6168  10.0000
     4  0  0.50      -902.2614   2.0000
     4  1  1.50      -681.5915   6.0000
     4  2  2.50      -429.8249  10.0000
     4  3  3.50      -152.6004  14.0000
     5  0  0.50      -157.7156   2.0000
     5  1  1.50       -95.8054   6.0000
     5  2  2.50       -27.0806  10.0000
     6  0  0.50       -14.4732   2.0000
     6  1  1.50        -4.5702   3.0000
     5  3  2.50        -2.7212   0.0000
   Description
     l       E           TYP  RCUT    TYP  RCUT
     2    -27.0805982     23  2.500
     2     -1.3605826     23  2.500
     0    -14.4732271     23  2.500
     0      6.8029130     23  2.500
     1     -4.5701651     23  2.500
     1     13.6058260     23  2.500
     3     -1.3605826      7  2.500
  local pseudopotential read in
  partial core-charges read in
  partial kinetic energy density read in
  atomic valenz-charges read in
  non local Contribution for L=           2  read in
    real space projection operators read in
  non local Contribution for L=           2  read in
    real space projection operators read in
  non local Contribution for L=           0  read in
    real space projection operators read in
  non local Contribution for L=           0  read in
    real space projection operators read in
  non local Contribution for L=           1  read in
    real space projection operators read in
  non local Contribution for L=           1  read in
    real space projection operators read in
    PAW grid and wavefunctions read in

   number of l-projection  operators is LMAX  =           6
   number of lm-projection operators is LMMAX =          18

 POTCAR:    PAW_PBE Pt 04Feb2005
   VRHFIN =Pt: s1d9
   LEXCH  = PE
   EATOM  =   729.1176 eV,   53.5886 Ry

   TITEL  = PAW_PBE Pt 04Feb2005
   LULTRA =        F    use ultrasoft PP ?
   IUNSCR =        1    unscreen: 0-lin 1-nonlin 2-no
   RPACOR =    2.330    partial core radius
   POMASS =  195.080; ZVAL   =   10.000    mass and valenz
   RCORE  =    2.600    outmost cutoff radius
   RWIGS  =    2.750; RWIGS  =    1.455    wigner-seitz radius (au A)
   ENMAX  =  230.283; ENMIN  =  172.712 eV
   ICORE  =        3    local potential
   LCOR   =        T    correct aug charges
   LPAW   =        T    paw PP
   EAUG   =  358.966
   DEXC   =    0.000
   RMAX   =    2.658    core radius for proj-oper
   RAUG   =    1.300    factor for augmentation sphere
   RDEP   =    2.761    radius for radial grids
   RDEPT  =    2.203    core radius for aug-charge

   Atomic configuration
   16 entries
     n  l   j            E        occ.
     1  0  0.50    -78401.1885   2.0000
     2  0  0.50    -13770.7750   2.0000
     2  1  1.50    -11931.0468   6.0000
     3  0  0.50     -3234.7234   2.0000
     3  1  1.50     -2699.2216   6.0000
     3  2  2.50     -2119.5714  10.0000
     4  0  0.50      -695.1528   2.0000
     4  1  1.50      -519.6034   6.0000
     4  2  2.50      -306.6786  10.0000
     4  3  3.50       -70.1041  14.0000
     5  0  0.50      -101.7747   2.0000
     5  1  1.50       -55.9873   6.0000
     5  2  2.50        -6.1423   9.0000
     6  0  0.50        -5.6573   1.0000
     6  1  1.50        -6.8029   0.0000
     5  3  2.50        -1.3606   0.0000
   Description
     l       E           TYP  RCUT    TYP  RCUT
     2     -6.1423404     23  2.500
     2     -7.5029230     23  2.500
     0     -5.6573207     23  2.500
     0      0.7416693     23  2.500
     1     -2.7211652     23  2.600
     1     20.4087390     23  2.600
     3     -1.3605826     23  2.500
  local pseudopotential read in
  partial core-charges read in
  partial kinetic energy density read in
  atomic valenz-charges read in
  non local Contribution for L=           2  read in
    real space projection operators read in
  non local Contribution for L=           2  read in
    real space projection operators read in
  non local Contribution for L=           0  read in
    real space projection operators read in
  non local Contribution for L=           0  read in
    real space projection operators read in
  non local Contribution for L=           1  read in
    real space projection operators read in
  non local Contribution for L=           1  read in
    real space projection operators read in
    PAW grid and wavefunctions read in

   number of l-projection  operators is LMAX  =           6
   number of lm-projection operators is LMMAX =          18

 WARNING: PSMAXN for non-local potential too small
          PSMAXN should be >   13.5545592237991       NTYP=           1

 -----------------------------------------------------------------------------
|                                                                             |
|  ADVICE TO THIS USER RUNNING 'VASP/VAMP'   (HEAR YOUR MASTER'S VOICE ...):  |
|                                                                             |
|      You enforced a specific xc-type in the INCAR file,                     |
|      a different type was found on the POTCAR file                          |
|          I HOPE YOU KNOW, WHAT YOU ARE  DOING                               |
|                                                                             |
 -----------------------------------------------------------------------------

  PAW_PBE Th 07Sep2000                  :
 energy of atom  1       EATOM= -984.7553
 kinetic energy error for atom=    0.0005 (will be added to EATOM!!)
  PAW_PBE Bi_d 06Sep2000                :
 energy of atom  2       EATOM=-1959.2045
 kinetic energy error for atom=    0.0012 (will be added to EATOM!!)
  PAW_PBE Pt 04Feb2005                  :
 energy of atom  3       EATOM= -729.1176
 kinetic energy error for atom=    0.0010 (will be added to EATOM!!)


 POSCAR: Th1 Bi1 Pt1
  positions in direct lattice
  No initial velocities read in
 exchange correlation table for  LEXCH =       14
   RHO(1)=    0.500       N(1)  =     2000
   RHO(2)=  100.500       N(2)  =     4000



--------------------------------------------------------------------------------------------------------


 ion  position               nearest neighbor table
   1  0.250  0.250  0.250-   3 3.10   3 3.10   3 3.10   3 3.10   2 3.58   2 3.58   2 3.58   2 3.58
                             2 3.58   2 3.58
   2  0.750  0.750  0.750-   3 3.10   3 3.10   3 3.10   3 3.10   1 3.58   1 3.58   1 3.58   1 3.58
                             1 3.58   1 3.58
   3  0.000  0.000  0.000-   2 3.10   2 3.10   1 3.10   2 3.10   1 3.10   1 3.10   1 3.10   2 3.10


  LATTYP: Found a face centered cubic cell.
 ALAT       =     7.1555163091

  Lattice vectors:

 A1 = (   0.0000000000,   3.5777581546,   3.5777581546)
 A2 = (   3.5777581546,   0.0000000000,   3.5777581546)
 A3 = (   3.5777581546,   3.5777581546,   0.0000000000)


Analysis of symmetry for initial positions (statically):
=====================================================================
 Subroutine PRICEL returns:
 Original cell was already a primitive cell.


 Routine SETGRP: Setting up the symmetry group for a
 face centered cubic supercell.


 Subroutine GETGRP returns: Found 24 space group operations
 (whereof 24 operations were pure point group operations)
 out of a pool of 48 trial point group operations.


The static configuration has the point symmetry T_d .


Analysis of symmetry for dynamics (positions and initial velocities):
=====================================================================
 Subroutine PRICEL returns:
 Original cell was already a primitive cell.


 Routine SETGRP: Setting up the symmetry group for a
 face centered cubic supercell.


 Subroutine GETGRP returns: Found 24 space group operations
 (whereof 24 operations were pure point group operations)
 out of a pool of 48 trial point group operations.


The dynamic configuration has the point symmetry T_d .


 Subroutine INISYM returns: Found 24 space group operations
 (whereof 24 operations are pure point group operations),
 and found     1 'primitive' translations


----------------------------------------------------------------------------------------

                                     Primitive cell

  volume of cell :      91.5931

  direct lattice vectors                    reciprocal lattice vectors
     0.000000000  3.577758155  3.577758155    -0.139752319  0.139752319  0.139752319
     3.577758155  0.000000000  3.577758155     0.139752319 -0.139752319  0.139752319
     3.577758155  3.577758155  0.000000000     0.139752319  0.139752319 -0.139752319

  length of vectors
     5.059714105  5.059714105  5.059714105     0.242058118  0.242058118  0.242058118

  position of ions in fractional coordinates (direct lattice)
     0.250000000  0.250000000  0.250000000
     0.750000000  0.750000000  0.750000000
     0.000000000  0.000000000  0.000000000

  ion indices of the primitive-cell ions
   primitive index   ion index
                 1           1
                 2           2
                 3           3

----------------------------------------------------------------------------------------



 KPOINTS: KPOINTS

Automatic generation of k-mesh.
Space group operators:
 irot       det(A)        alpha          n_x          n_y          n_z        tau_x        tau_y        tau_z
    1     1.000000     0.000000     1.000000     0.000000     0.000000     0.000000     0.000000     0.000000
    2     1.000000   120.000000    -0.577350    -0.577350    -0.577350     0.000000     0.000000     0.000000
    3     1.000000   120.000000     0.577350     0.577350     0.577350     0.000000     0.000000     0.000000
    4    -1.000000    90.000000    -0.000000     0.000000    -1.000000     0.000000     0.000000     0.000000
    5    -1.000000   180.000000     0.000000     0.707107     0.707107     0.000000     0.000000     0.000000
    6    -1.000000    90.000000    -0.000000     1.000000    -0.000000     0.000000     0.000000     0.000000
    7     1.000000   180.000000     0.000000    -0.000000    -1.000000     0.000000     0.000000     0.000000
    8     1.000000   120.000000    -0.577350     0.577350     0.577350     0.000000     0.000000     0.000000
    9     1.000000   120.000000    -0.577350     0.577350    -0.577350     0.000000     0.000000     0.000000
   10    -1.000000    90.000000     0.000000     0.000000     1.000000     0.000000     0.000000     0.000000
   11    -1.000000    90.000000    -1.000000     0.000000     0.000000     0.000000     0.000000     0.000000
   12    -1.000000   180.000000     0.707107     0.000000     0.707107     0.000000     0.000000     0.000000
   13     1.000000   120.000000     0.577350    -0.577350     0.577350     0.000000     0.000000     0.000000
   14     1.000000   120.000000    -0.577350    -0.577350     0.577350     0.000000     0.000000     0.000000
   15     1.000000   180.000000     1.000000     0.000000     0.000000     0.000000     0.000000     0.000000
   16    -1.000000    90.000000     0.000000    -1.000000     0.000000     0.000000     0.000000     0.000000
   17    -1.000000   180.000000     0.707107     0.707107    -0.000000     0.000000     0.000000     0.000000
   18    -1.000000    90.000000     1.000000     0.000000     0.000000     0.000000     0.000000     0.000000
   19     1.000000   120.000000     0.577350    -0.577350    -0.577350     0.000000     0.000000     0.000000
   20     1.000000   180.000000    -0.000000    -1.000000    -0.000000     0.000000     0.000000     0.000000
   21     1.000000   120.000000     0.577350     0.577350    -0.577350     0.000000     0.000000     0.000000
   22    -1.000000   180.000000     0.000000    -0.707107     0.707107     0.000000     0.000000     0.000000
   23    -1.000000   180.000000     0.707107    -0.707107     0.000000     0.000000     0.000000     0.000000
   24    -1.000000   180.000000     0.707107     0.000000    -0.707107     0.000000     0.000000     0.000000

 Subroutine IBZKPT returns following result:
 ===========================================

 Found     84 irreducible k-points:

 Following reciprocal coordinates:
            Coordinates               Weight
  0.000000  0.000000  0.000000      1.000000
  0.076923  0.000000 -0.000000      8.000000
  0.153846 -0.000000  0.000000      8.000000
  0.230769  0.000000 -0.000000      8.000000
  0.307692 -0.000000  0.000000      8.000000
  0.384615 -0.000000 -0.000000      8.000000
  0.461538  0.000000 -0.000000      8.000000
  0.076923  0.076923 -0.000000      6.000000
  0.153846  0.076923 -0.000000     24.000000
  0.230769  0.076923 -0.000000     24.000000
  0.307692  0.076923 -0.000000     24.000000
  0.384615  0.076923 -0.000000     24.000000
  0.461538  0.076923 -0.000000     24.000000
 -0.461538  0.076923  0.000000     24.000000
 -0.384615  0.076923  0.000000     24.000000
 -0.307692  0.076923  0.000000     24.000000
 -0.230769  0.076923 -0.000000     24.000000
 -0.153846  0.076923  0.000000     24.000000
 -0.076923  0.076923  0.000000     12.000000
  0.153846  0.153846 -0.000000      6.000000
  0.230769  0.153846 -0.000000     24.000000
  0.307692  0.153846 -0.000000     24.000000
  0.384615  0.153846 -0.000000     24.000000
  0.461538  0.153846 -0.000000     24.000000
 -0.461538  0.153846 -0.000000     24.000000
 -0.384615  0.153846 -0.000000     24.000000
 -0.307692  0.153846  0.000000     24.000000
 -0.230769  0.153846  0.000000     24.000000
 -0.153846  0.153846 -0.000000     12.000000
  0.230769  0.230769 -0.000000      6.000000
  0.307692  0.230769 -0.000000     24.000000
  0.384615  0.230769 -0.000000     24.000000
  0.461538  0.230769 -0.000000     24.000000
 -0.461538  0.230769 -0.000000     24.000000
 -0.384615  0.230769  0.000000     24.000000
 -0.307692  0.230769 -0.000000     24.000000
 -0.230769  0.230769  0.000000     12.000000
  0.307692  0.307692 -0.000000      6.000000
  0.384615  0.307692  0.000000     24.000000
  0.461538  0.307692 -0.000000     24.000000
 -0.461538  0.307692 -0.000000     24.000000
 -0.384615  0.307692 -0.000000     24.000000
 -0.307692  0.307692 -0.000000     12.000000
  0.384615  0.384615 -0.000000      6.000000
  0.461538  0.384615 -0.000000     24.000000
 -0.461538  0.384615 -0.000000     24.000000
 -0.384615  0.384615 -0.000000     12.000000
  0.461538  0.461538 -0.000000      6.000000
 -0.461538  0.461538  0.000000     12.000000
  0.230769  0.153846  0.076923     24.000000
  0.307692  0.153846  0.076923     48.000000
  0.384615  0.153846  0.076923     48.000000
  0.461538  0.153846  0.076923     48.000000
 -0.461538  0.153846  0.076923     48.000000
  0.307692  0.230769  0.076923     24.000000
  0.384615  0.230769  0.076923     48.000000
  0.461538  0.230769  0.076923     48.000000
 -0.461538  0.230769  0.076923     48.000000
 -0.384615  0.230769  0.076923     48.000000
 -0.307692  0.230769  0.076923     48.000000
 -0.230769  0.230769  0.076923     48.000000
 -0.153846  0.230769  0.076923     24.000000
  0.384615  0.307692  0.076923     24.000000
  0.461538  0.307692  0.076923     48.000000
 -0.461538  0.307692  0.076923     48.000000
 -0.384615  0.307692  0.076923     48.000000
 -0.307692  0.307692  0.076923     48.000000
 -0.230769  0.307692  0.076923     24.000000
  0.461538  0.384615  0.076923     24.000000
 -0.461538  0.384615  0.076923     48.000000
 -0.384615  0.384615  0.076923     48.000000
 -0.307692  0.384615  0.076923     24.000000
 -0.461538  0.461538  0.076923     24.000000
 -0.384615  0.461538  0.076923     24.000000
  0.461538  0.307692  0.153846     24.000000
 -0.461538  0.307692  0.153846     48.000000
 -0.384615  0.307692  0.153846     48.000000
 -0.461538  0.384615  0.153846     24.000000
 -0.384615  0.384615  0.153846     48.000000
 -0.307692  0.384615  0.153846     48.000000
 -0.230769  0.384615  0.153846     24.000000
 -0.384615  0.461538  0.153846     24.000000
 -0.307692  0.461538  0.153846     24.000000
 -0.307692  0.461538  0.230769     24.000000

 Following cartesian coordinates:
            Coordinates               Weight
  0.000000  0.000000  0.000000      1.000000
 -0.011230  0.011230  0.011230      8.000000
 -0.022460  0.022460  0.022460      8.000000
 -0.033690  0.033690  0.033690      8.000000
 -0.044920  0.044920  0.044920      8.000000
 -0.056151  0.056151  0.056151      8.000000
 -0.067381  0.067381  0.067381      8.000000
  0.000000 -0.000000  0.022460      6.000000
 -0.011230  0.011230  0.033690     24.000000
 -0.022460  0.022460  0.044920     24.000000
 -0.033690  0.033690  0.056151     24.000000
 -0.044920  0.044920  0.067381     24.000000
 -0.056151  0.056151  0.078611     24.000000
  0.078611 -0.078611 -0.056151     24.000000
  0.067381 -0.067381 -0.044920     24.000000
  0.056151 -0.056151 -0.033690     24.000000
  0.044920 -0.044920 -0.022460     24.000000
  0.033690 -0.033690 -0.011230     24.000000
  0.022460 -0.022460 -0.000000     12.000000
 -0.000000  0.000000  0.044920      6.000000
 -0.011230  0.011230  0.056151     24.000000
 -0.022460  0.022460  0.067381     24.000000
 -0.033690  0.033690  0.078611     24.000000
 -0.044920  0.044920  0.089841     24.000000
  0.089841 -0.089841 -0.044920     24.000000
  0.078611 -0.078611 -0.033690     24.000000
  0.067381 -0.067381 -0.022460     24.000000
  0.056151 -0.056151 -0.011230     24.000000
  0.044920 -0.044920  0.000000     12.000000
  0.000000 -0.000000  0.067381      6.000000
 -0.011230  0.011230  0.078611     24.000000
 -0.022460  0.022460  0.089841     24.000000
 -0.033690  0.033690  0.101071     24.000000
  0.101071 -0.101071 -0.033690     24.000000
  0.089841 -0.089841 -0.022460     24.000000
  0.078611 -0.078611 -0.011230     24.000000
  0.067381 -0.067381 -0.000000     12.000000
 -0.000000  0.000000  0.089841      6.000000
 -0.011230  0.011230  0.101071     24.000000
 -0.022460  0.022460  0.112301     24.000000
  0.112301 -0.112301 -0.022460     24.000000
  0.101071 -0.101071 -0.011230     24.000000
  0.089841 -0.089841  0.000000     12.000000
  0.000000 -0.000000  0.112301      6.000000
 -0.011230  0.011230  0.123531     24.000000
  0.123531 -0.123531 -0.011230     24.000000
  0.112301 -0.112301  0.000000     12.000000
  0.000000 -0.000000  0.134761      6.000000
  0.134761 -0.134761 -0.000000     12.000000
  0.000000  0.022460  0.044920     24.000000
 -0.011230  0.033690  0.056151     48.000000
 -0.022460  0.044920  0.067381     48.000000
 -0.033690  0.056151  0.078611     48.000000
  0.101071 -0.078611 -0.056151     48.000000
  0.000000  0.022460  0.067381     24.000000
 -0.011230  0.033690  0.078611     48.000000
 -0.022460  0.044920  0.089841     48.000000
  0.112301 -0.089841 -0.044920     48.000000
  0.101071 -0.078611 -0.033690     48.000000
  0.089841 -0.067381 -0.022460     48.000000
  0.078611 -0.056151 -0.011230     48.000000
  0.067381 -0.044920 -0.000000     24.000000
  0.000000  0.022460  0.089841     24.000000
 -0.011230  0.033690  0.101071     48.000000
  0.123531 -0.101071 -0.033690     48.000000
  0.112301 -0.089841 -0.022460     48.000000
  0.101071 -0.078611 -0.011230     48.000000
  0.089841 -0.067381 -0.000000     24.000000
  0.000000  0.022460  0.112301     24.000000
  0.134761 -0.112301 -0.022460     48.000000
  0.123531 -0.101071 -0.011230     48.000000
  0.112301 -0.089841  0.000000     24.000000
  0.145991 -0.123531 -0.011230     24.000000
  0.134761 -0.112301 -0.000000     24.000000
 -0.000000  0.044920  0.089841     24.000000
  0.134761 -0.089841 -0.044920     48.000000
  0.123531 -0.078611 -0.033690     48.000000
  0.145991 -0.101071 -0.033690     24.000000
  0.134761 -0.089841 -0.022460     48.000000
  0.123531 -0.078611 -0.011230     48.000000
  0.112301 -0.067381 -0.000000     24.000000
  0.145991 -0.101071 -0.011230     24.000000
  0.134761 -0.089841 -0.000000     24.000000
  0.145991 -0.078611 -0.011230     24.000000



--------------------------------------------------------------------------------------------------------




 Dimension of arrays:
   k-points           NKPTS =     84   k-points in BZ     NKDIM =     84   number of bands    NBANDS=     24
   number of dos      NEDOS =    301   number of ions     NIONS =      3
   non local maximal  LDIM  =      8   non local SUM 2l+1 LMDIM =     32
   total plane-waves  NPLWV = 110592
   max r-space proj   IRMAX =      1   max aug-charges    IRDMAX= 585177
   dimension x,y,z NGX =    48 NGY =   48 NGZ =   48
   dimension x,y,z NGXF=    96 NGYF=   96 NGZF=   96
   support grid    NGXF=   192 NGYF=  192 NGZF=  192
   ions per type =               1   1   1
   NGX,Y,Z   is equivalent  to a cutoff of  15.77, 15.77, 15.77 a.u.
   NGXF,Y,Z  is equivalent  to a cutoff of  31.54, 31.54, 31.54 a.u.

 SYSTEM =  unknown system
 POSCAR =  Th1 Bi1 Pt1

 Startparameter for this run:
   NWRITE =      2    write-flag & timer
   PREC   = acc       normal or accurate (medium, high low for compatibility)
   ISTART =      0    job   : 0-new  1-cont  2-samecut
   ICHARG =      2    charge: 1-file 2-atom 10-const
   ISPIN  =      1    spin polarized calculation?
   LNONCOLLINEAR =      F non collinear calculations
   LSORBIT =      F    spin-orbit coupling
   INIWAV =      1    electr: 0-lowe 1-rand  2-diag
   LASPH  =      F    aspherical Exc in radial PAW
   METAGGA=      F    non-selfconsistent MetaGGA calc.

 Electronic Relaxation 1
   ENCUT  =  700.0 eV  51.45 Ry    7.17 a.u.  10.92 10.92 10.92*2*pi/ulx,y,z
   ENINI  =  700.0     initial cutoff
   ENAUG  =  535.4 eV  augmentation charge cutoff
   NELM   =     60;   NELMIN=  5; NELMDL= -5     # of ELM steps
   EDIFF  = 0.1E-06   stopping-criterion for ELM
   LREAL  =      F    real-space projection
   NLSPLINE    = F    spline interpolate recip. space projectors
   LCOMPAT=      F    compatible to vasp.4.4
   GGA_COMPAT  = T    GGA compatible to vasp.4.4-vasp.4.6
   LMAXPAW     = -100 max onsite density
   LMAXMIX     =    2 max onsite mixed and CHGCAR
   VOSKOWN=      0    Vosko Wilk Nusair interpolation
   ROPT   =    0.00000   0.00000   0.00000
 Ionic relaxation
   EDIFFG = 0.1E-05   stopping-criterion for IOM
   NSW    =      0    number of steps for IOM
   NBLOCK =      1;   KBLOCK =      1    inner block; outer block
   IBRION =     -1    ionic relax: 0-MD 1-quasi-New 2-CG
   NFREE  =      0    steps in history (QN), initial steepest desc. (CG)
   ISIF   =      3    stress and relaxation
   IWAVPR =     10    prediction:  0-non 1-charg 2-wave 3-comb
   ISYM   =      2    0-nonsym 1-usesym 2-fastsym
   LCORR  =      T    Harris-Foulkes like correction to forces

   POTIM  = 0.5000    time-step for ionic-motion
   TEIN   =    0.0    initial temperature
   TEBEG  =    0.0;   TEEND  =   0.0 temperature during run
   SMASS  =  -3.00    Nose mass-parameter (am)
   estimated Nose-frequenzy (Omega)   =  0.10E-29 period in steps = 0.13E+47 mass=  -0.585E-27a.u.
   SCALEE = 1.0000    scale energy and forces
   NPACO  =    256;   APACO  = 16.0  distance and # of slots for P.C.
   PSTRESS=    0.0 pullay stress

  Mass of Ions in am
   POMASS = 232.04208.98195.08
  Ionic Valenz
   ZVAL   =  12.00 15.00 10.00
  Atomic Wigner-Seitz radii
   RWIGS  =  -1.00 -1.00 -1.00
  virtual crystal weights
   VCA    =   1.00  1.00  1.00
   NELECT =      37.0000    total number of electrons
   NUPDOWN=      -1.0000    fix difference up-down

 DOS related values:
   EMIN   =  10.00;   EMAX   =-10.00  energy-range for DOS
   EFERMI =   0.00
   ISMEAR =     0;   SIGMA  =   0.01  broadening in eV -4-tet -1-fermi 0-gaus

 Electronic relaxation 2 (details)
   IALGO  =     38    algorithm
   LDIAG  =      T    sub-space diagonalisation (order eigenvalues)
   LSUBROT=      F    optimize rotation matrix (better conditioning)
   TURBO    =      0    0=normal 1=particle mesh
   IRESTART =      0    0=no restart 2=restart with 2 vectors
   NREBOOT  =      0    no. of reboots
   NMIN     =      0    reboot dimension
   EREF     =   0.00    reference energy to select bands
   IMIX   =      4    mixing-type and parameters
     AMIX     =   0.40;   BMIX     =  1.00
     AMIX_MAG =   1.60;   BMIX_MAG =  1.00
     AMIN     =   0.10
     WC   =   100.;   INIMIX=   1;  MIXPRE=   1;  MAXMIX= -45

 Intra band minimization:
   WEIMIN = 0.0000     energy-eigenvalue tresh-hold
   EBREAK =  0.10E-08  absolut break condition
   DEPER  =   0.30     relativ break condition

   TIME   =   0.40     timestep for ELM

  volume/ion in A,a.u.               =      30.53       206.03
  Fermi-wavevector in a.u.,A,eV,Ry     =   1.210192  2.286932 19.926626  1.464566
  Thomas-Fermi vector in A             =   2.345747

 Write flags
   LWAVE        =      F    write WAVECAR
   LDOWNSAMPLE  =      F    k-point downsampling of WAVECAR
   LCHARG       =      F    write CHGCAR
   LVTOT        =      F    write LOCPOT, total local potential
   LVHAR        =      F    write LOCPOT, Hartree potential only
   LELF         =      F    write electronic localiz. function (ELF)
   LORBIT       =      0    0 simple, 1 ext, 2 COOP (PROOUT), +10 PAW based schemes


 Dipole corrections
   LMONO  =      F    monopole corrections only (constant potential shift)
   LDIPOL =      F    correct potential (dipole corrections)
   IDIPOL =      0    1-x, 2-y, 3-z, 4-all directions
   EPSILON=  1.0000000 bulk dielectric constant

 Exchange correlation treatment:
   GGA     =    PS    GGA type
   LEXCH   =    14    internal setting for exchange type
   VOSKOWN=      0    Vosko Wilk Nusair interpolation
   LHFCALC =     F    Hartree Fock is set to
   LHFONE  =     F    Hartree Fock one center treatment
   AEXX    =    0.0000 exact exchange contribution

 Linear response parameters
   LEPSILON=     F    determine dielectric tensor
   LRPA    =     F    only Hartree local field effects (RPA)
   LNABLA  =     F    use nabla operator in PAW spheres
   LVEL    =     F    velocity operator in full k-point grid
   LINTERFAST=   F  fast interpolation
   KINTER  =     0    interpolate to denser k-point grid
   CSHIFT  =0.1000    complex shift for real part using Kramers Kronig
   OMEGAMAX=  -1.0    maximum frequency
   DEG_THRESHOLD= 0.2000000E-02 threshold for treating states as degnerate
   RTIME   =   -0.100 relaxation time in fs
  (WPLASMAI=    0.000 imaginary part of plasma frequency in eV, 0.658/RTIME)
   DFIELD  = 0.0000000 0.0000000 0.0000000 field for delta impulse in time

 Orbital magnetization related:
   ORBITALMAG=     F  switch on orbital magnetization
   LCHIMAG   =     F  perturbation theory with respect to B field
   DQ        =  0.001000  dq finite difference perturbation B field
   LLRAUG    =     F  two centre corrections for induced B field



--------------------------------------------------------------------------------------------------------


 Static calculation
 charge density and potential will be updated during run
 non-spin polarized calculation
 Variant of blocked Davidson
 Davidson routine will perform the subspace rotation
 perform sub-space diagonalisation
    after iterative eigenvector-optimisation
 modified Broyden-mixing scheme, WC =      100.0
 initial mixing is a Kerker type mixing with AMIX =  0.4000 and BMIX =      1.0000
 Hartree-type preconditioning will be used
 using additional bands            5
 reciprocal scheme for non local part
 use partial core corrections
 calculate Harris-corrections to forces
   (improved forces if not selfconsistent)
 use gradient corrections
 use of overlap-Matrix (Vanderbilt PP)
 Gauss-broadening in eV      SIGMA  =   0.01


--------------------------------------------------------------------------------------------------------


  energy-cutoff  :      700.00
  volume of cell :       91.59
      direct lattice vectors                 reciprocal lattice vectors
     0.000000000  3.577758155  3.577758155    -0.139752319  0.139752319  0.139752319
     3.577758155  0.000000000  3.577758155     0.139752319 -0.139752319  0.139752319
     3.577758155  3.577758155  0.000000000     0.139752319  0.139752319 -0.139752319

  length of vectors
     5.059714105  5.059714105  5.059714105     0.242058118  0.242058118  0.242058118



 k-points in units of 2pi/SCALE and weight: KPOINTS
   0.00000000  0.00000000  0.00000000       0.000
  -0.01123011  0.01123011  0.01123011       0.004
  -0.02246022  0.02246022  0.02246022       0.004
  -0.03369033  0.03369033  0.03369033       0.004
  -0.04492043  0.04492043  0.04492043       0.004
  -0.05615054  0.05615054  0.05615054       0.004
  -0.06738065  0.06738065  0.06738065       0.004
   0.00000000 -0.00000000  0.02246022       0.003
  -0.01123011  0.01123011  0.03369033       0.011
  -0.02246022  0.02246022  0.04492043       0.011
  -0.03369033  0.03369033  0.05615054       0.011
  -0.04492043  0.04492043  0.06738065       0.011
  -0.05615054  0.05615054  0.07861076       0.011
   0.07861076 -0.07861076 -0.05615054       0.011
   0.06738065 -0.06738065 -0.04492043       0.011
   0.05615054 -0.05615054 -0.03369033       0.011
   0.04492043 -0.04492043 -0.02246022       0.011
   0.03369033 -0.03369033 -0.01123011       0.011
   0.02246022 -0.02246022 -0.00000000       0.005
  -0.00000000  0.00000000  0.04492043       0.003
  -0.01123011  0.01123011  0.05615054       0.011
  -0.02246022  0.02246022  0.06738065       0.011
  -0.03369033  0.03369033  0.07861076       0.011
  -0.04492043  0.04492043  0.08984087       0.011
   0.08984087 -0.08984087 -0.04492043       0.011
   0.07861076 -0.07861076 -0.03369033       0.011
   0.06738065 -0.06738065 -0.02246022       0.011
   0.05615054 -0.05615054 -0.01123011       0.011
   0.04492043 -0.04492043  0.00000000       0.005
   0.00000000 -0.00000000  0.06738065       0.003
  -0.01123011  0.01123011  0.07861076       0.011
  -0.02246022  0.02246022  0.08984087       0.011
  -0.03369033  0.03369033  0.10107098       0.011
   0.10107098 -0.10107098 -0.03369033       0.011
   0.08984087 -0.08984087 -0.02246022       0.011
   0.07861076 -0.07861076 -0.01123011       0.011
   0.06738065 -0.06738065 -0.00000000       0.005
  -0.00000000  0.00000000  0.08984087       0.003
  -0.01123011  0.01123011  0.10107098       0.011
  -0.02246022  0.02246022  0.11230109       0.011
   0.11230109 -0.11230109 -0.02246022       0.011
   0.10107098 -0.10107098 -0.01123011       0.011
   0.08984087 -0.08984087  0.00000000       0.005
   0.00000000 -0.00000000  0.11230109       0.003
  -0.01123011  0.01123011  0.12353119       0.011
   0.12353119 -0.12353119 -0.01123011       0.011
   0.11230109 -0.11230109  0.00000000       0.005
   0.00000000 -0.00000000  0.13476130       0.003
   0.13476130 -0.13476130 -0.00000000       0.005
   0.00000000  0.02246022  0.04492043       0.011
  -0.01123011  0.03369033  0.05615054       0.022
  -0.02246022  0.04492043  0.06738065       0.022
  -0.03369033  0.05615054  0.07861076       0.022
   0.10107098 -0.07861076 -0.05615054       0.022
   0.00000000  0.02246022  0.06738065       0.011
  -0.01123011  0.03369033  0.07861076       0.022
  -0.02246022  0.04492043  0.08984087       0.022
   0.11230109 -0.08984087 -0.04492043       0.022
   0.10107098 -0.07861076 -0.03369033       0.022
   0.08984087 -0.06738065 -0.02246022       0.022
   0.07861076 -0.05615054 -0.01123011       0.022
   0.06738065 -0.04492043 -0.00000000       0.011
   0.00000000  0.02246022  0.08984087       0.011
  -0.01123011  0.03369033  0.10107098       0.022
   0.12353119 -0.10107098 -0.03369033       0.022
   0.11230109 -0.08984087 -0.02246022       0.022
   0.10107098 -0.07861076 -0.01123011       0.022
   0.08984087 -0.06738065 -0.00000000       0.011
   0.00000000  0.02246022  0.11230109       0.011
   0.13476130 -0.11230109 -0.02246022       0.022
   0.12353119 -0.10107098 -0.01123011       0.022
   0.11230109 -0.08984087  0.00000000       0.011
   0.14599141 -0.12353119 -0.01123011       0.011
   0.13476130 -0.11230109 -0.00000000       0.011
  -0.00000000  0.04492043  0.08984087       0.011
   0.13476130 -0.08984087 -0.04492043       0.022
   0.12353119 -0.07861076 -0.03369033       0.022
   0.14599141 -0.10107098 -0.03369033       0.011
   0.13476130 -0.08984087 -0.02246022       0.022
   0.12353119 -0.07861076 -0.01123011       0.022
   0.11230109 -0.06738065 -0.00000000       0.011
   0.14599141 -0.10107098 -0.01123011       0.011
   0.13476130 -0.08984087 -0.00000000       0.011
   0.14599141 -0.07861076 -0.01123011       0.011

 k-points in reciprocal lattice and weights: KPOINTS
   0.00000000  0.00000000  0.00000000       0.000
   0.07692308  0.00000000 -0.00000000       0.004
   0.15384615 -0.00000000  0.00000000       0.004
   0.23076923  0.00000000 -0.00000000       0.004
   0.30769231 -0.00000000  0.00000000       0.004
   0.38461538 -0.00000000 -0.00000000       0.004
   0.46153846  0.00000000 -0.00000000       0.004
   0.07692308  0.07692308 -0.00000000       0.003
   0.15384615  0.07692308 -0.00000000       0.011
   0.23076923  0.07692308 -0.00000000       0.011
   0.30769231  0.07692308 -0.00000000       0.011
   0.38461538  0.07692308 -0.00000000       0.011
   0.46153846  0.07692308 -0.00000000       0.011
  -0.46153846  0.07692308  0.00000000       0.011
  -0.38461538  0.07692308  0.00000000       0.011
  -0.30769231  0.07692308  0.00000000       0.011
  -0.23076923  0.07692308 -0.00000000       0.011
  -0.15384615  0.07692308  0.00000000       0.011
  -0.07692308  0.07692308  0.00000000       0.005
   0.15384615  0.15384615 -0.00000000       0.003
   0.23076923  0.15384615 -0.00000000       0.011
   0.30769231  0.15384615 -0.00000000       0.011
   0.38461538  0.15384615 -0.00000000       0.011
   0.46153846  0.15384615 -0.00000000       0.011
  -0.46153846  0.15384615 -0.00000000       0.011
  -0.38461538  0.15384615 -0.00000000       0.011
  -0.30769231  0.15384615  0.00000000       0.011
  -0.23076923  0.15384615  0.00000000       0.011
  -0.15384615  0.15384615 -0.00000000       0.005
   0.23076923  0.23076923 -0.00000000       0.003
   0.30769231  0.23076923 -0.00000000       0.011
   0.38461538  0.23076923 -0.00000000       0.011
   0.46153846  0.23076923 -0.00000000       0.011
  -0.46153846  0.23076923 -0.00000000       0.011
  -0.38461538  0.23076923  0.00000000       0.011
  -0.30769231  0.23076923 -0.00000000       0.011
  -0.23076923  0.23076923  0.00000000       0.005
   0.30769231  0.30769231 -0.00000000       0.003
   0.38461538  0.30769231  0.00000000       0.011
   0.46153846  0.30769231 -0.00000000       0.011
  -0.46153846  0.30769231 -0.00000000       0.011
  -0.38461538  0.30769231 -0.00000000       0.011
  -0.30769231  0.30769231 -0.00000000       0.005
   0.38461538  0.38461538 -0.00000000       0.003
   0.46153846  0.38461538 -0.00000000       0.011
  -0.46153846  0.38461538 -0.00000000       0.011
  -0.38461538  0.38461538 -0.00000000       0.005
   0.46153846  0.46153846 -0.00000000       0.003
  -0.46153846  0.46153846  0.00000000       0.005
   0.23076923  0.15384615  0.07692308       0.011
   0.30769231  0.15384615  0.07692308       0.022
   0.38461538  0.15384615  0.07692308       0.022
   0.46153846  0.15384615  0.07692308       0.022
  -0.46153846  0.15384615  0.07692308       0.022
   0.30769231  0.23076923  0.07692308       0.011
   0.38461538  0.23076923  0.07692308       0.022
   0.46153846  0.23076923  0.07692308       0.022
  -0.46153846  0.23076923  0.07692308       0.022
  -0.38461538  0.23076923  0.07692308       0.022
  -0.30769231  0.23076923  0.07692308       0.022
  -0.23076923  0.23076923  0.07692308       0.022
  -0.15384615  0.23076923  0.07692308       0.011
   0.38461538  0.30769231  0.07692308       0.011
   0.46153846  0.30769231  0.07692308       0.022
  -0.46153846  0.30769231  0.07692308       0.022
  -0.38461538  0.30769231  0.07692308       0.022
  -0.30769231  0.30769231  0.07692308       0.022
  -0.23076923  0.30769231  0.07692308       0.011
   0.46153846  0.38461538  0.07692308       0.011
  -0.46153846  0.38461538  0.07692308       0.022
  -0.38461538  0.38461538  0.07692308       0.022
  -0.30769231  0.38461538  0.07692308       0.011
  -0.46153846  0.46153846  0.07692308       0.011
  -0.38461538  0.46153846  0.07692308       0.011
   0.46153846  0.30769231  0.15384615       0.011
  -0.46153846  0.30769231  0.15384615       0.022
  -0.38461538  0.30769231  0.15384615       0.022
  -0.46153846  0.38461538  0.15384615       0.011
  -0.38461538  0.38461538  0.15384615       0.022
  -0.30769231  0.38461538  0.15384615       0.022
  -0.23076923  0.38461538  0.15384615       0.011
  -0.38461538  0.46153846  0.15384615       0.011
  -0.30769231  0.46153846  0.15384615       0.011
  -0.30769231  0.46153846  0.23076923       0.011

 position of ions in fractional coordinates (direct lattice)
   0.25000000  0.25000000  0.25000000
   0.75000000  0.75000000  0.75000000
   0.00000000  0.00000000  0.00000000

 position of ions in cartesian coordinates  (Angst):
   1.78887908  1.78887908  1.78887908
   5.36663723  5.36663723  5.36663723
   0.00000000  0.00000000  0.00000000



--------------------------------------------------------------------------------------------------------


 k-point  1 :   0.0000 0.0000 0.0000  plane waves:    3839
 k-point  2 :   0.0769 0.0000-0.0000  plane waves:    3824
 k-point  3 :   0.1538-0.0000 0.0000  plane waves:    3819
 k-point  4 :   0.2308 0.0000-0.0000  plane waves:    3825
 k-point  5 :   0.3077-0.0000 0.0000  plane waves:    3846
 k-point  6 :   0.3846-0.0000-0.0000  plane waves:    3837
 k-point  7 :   0.4615 0.0000-0.0000  plane waves:    3831
 k-point  8 :   0.0769 0.0769-0.0000  plane waves:    3815
 k-point  9 :   0.1538 0.0769-0.0000  plane waves:    3831
 k-point 10 :   0.2308 0.0769-0.0000  plane waves:    3836
 k-point 11 :   0.3077 0.0769-0.0000  plane waves:    3839
 k-point 12 :   0.3846 0.0769-0.0000  plane waves:    3849
 k-point 13 :   0.4615 0.0769-0.0000  plane waves:    3841
 k-point 14 :  -0.4615 0.0769 0.0000  plane waves:    3838
 k-point 15 :  -0.3846 0.0769 0.0000  plane waves:    3840
 k-point 16 :  -0.3077 0.0769 0.0000  plane waves:    3842
 k-point 17 :  -0.2308 0.0769-0.0000  plane waves:    3842
 k-point 18 :  -0.1538 0.0769 0.0000  plane waves:    3836
 k-point 19 :  -0.0769 0.0769 0.0000  plane waves:    3819
 k-point 20 :   0.1538 0.1538-0.0000  plane waves:    3839
 k-point 21 :   0.2308 0.1538-0.0000  plane waves:    3839
 k-point 22 :   0.3077 0.1538-0.0000  plane waves:    3850
 k-point 23 :   0.3846 0.1538-0.0000  plane waves:    3846
 k-point 24 :   0.4615 0.1538-0.0000  plane waves:    3844
 k-point 25 :  -0.4615 0.1538-0.0000  plane waves:    3846
 k-point 26 :  -0.3846 0.1538-0.0000  plane waves:    3861
 k-point 27 :  -0.3077 0.1538 0.0000  plane waves:    3849
 k-point 28 :  -0.2308 0.1538 0.0000  plane waves:    3840
 k-point 29 :  -0.1538 0.1538-0.0000  plane waves:    3843
 k-point 30 :   0.2308 0.2308-0.0000  plane waves:    3863
 k-point 31 :   0.3077 0.2308-0.0000  plane waves:    3858
 k-point 32 :   0.3846 0.2308-0.0000  plane waves:    3859
 k-point 33 :   0.4615 0.2308-0.0000  plane waves:    3861
 k-point 34 :  -0.4615 0.2308-0.0000  plane waves:    3863
 k-point 35 :  -0.3846 0.2308 0.0000  plane waves:    3863
 k-point 36 :  -0.3077 0.2308-0.0000  plane waves:    3854
 k-point 37 :  -0.2308 0.2308 0.0000  plane waves:    3841
 k-point 38 :   0.3077 0.3077-0.0000  plane waves:    3864
 k-point 39 :   0.3846 0.3077 0.0000  plane waves:    3863
 k-point 40 :   0.4615 0.3077-0.0000  plane waves:    3864
 k-point 41 :  -0.4615 0.3077-0.0000  plane waves:    3864
 k-point 42 :  -0.3846 0.3077-0.0000  plane waves:    3856
 k-point 43 :  -0.3077 0.3077-0.0000  plane waves:    3853
 k-point 44 :   0.3846 0.3846-0.0000  plane waves:    3864
 k-point 45 :   0.4615 0.3846-0.0000  plane waves:    3864
 k-point 46 :  -0.4615 0.3846-0.0000  plane waves:    3865
 k-point 47 :  -0.3846 0.3846-0.0000  plane waves:    3863
 k-point 48 :   0.4615 0.4615-0.0000  plane waves:    3860
 k-point 49 :  -0.4615 0.4615 0.0000  plane waves:    3864
 k-point 50 :   0.2308 0.1538 0.0769  plane waves:    3846
 k-point 51 :   0.3077 0.1538 0.0769  plane waves:    3842
 k-point 52 :   0.3846 0.1538 0.0769  plane waves:    3843
 k-point 53 :   0.4615 0.1538 0.0769  plane waves:    3842
 k-point 54 :  -0.4615 0.1538 0.0769  plane waves:    3845
 k-point 55 :   0.3077 0.2308 0.0769  plane waves:    3845
 k-point 56 :   0.3846 0.2308 0.0769  plane waves:    3855
 k-point 57 :   0.4615 0.2308 0.0769  plane waves:    3849
 k-point 58 :  -0.4615 0.2308 0.0769  plane waves:    3853
 k-point 59 :  -0.3846 0.2308 0.0769  plane waves:    3860
 k-point 60 :  -0.3077 0.2308 0.0769  plane waves:    3861
 k-point 61 :  -0.2308 0.2308 0.0769  plane waves:    3848
 k-point 62 :  -0.1538 0.2308 0.0769  plane waves:    3848
 k-point 63 :   0.3846 0.3077 0.0769  plane waves:    3863
 k-point 64 :   0.4615 0.3077 0.0769  plane waves:    3868
 k-point 65 :  -0.4615 0.3077 0.0769  plane waves:    3865
 k-point 66 :  -0.3846 0.3077 0.0769  plane waves:    3855
 k-point 67 :  -0.3077 0.3077 0.0769  plane waves:    3849
 k-point 68 :  -0.2308 0.3077 0.0769  plane waves:    3859
 k-point 69 :   0.4615 0.3846 0.0769  plane waves:    3874
 k-point 70 :  -0.4615 0.3846 0.0769  plane waves:    3857
 k-point 71 :  -0.3846 0.3846 0.0769  plane waves:    3855
 k-point 72 :  -0.3077 0.3846 0.0769  plane waves:    3846
 k-point 73 :  -0.4615 0.4615 0.0769  plane waves:    3865
 k-point 74 :  -0.3846 0.4615 0.0769  plane waves:    3859
 k-point 75 :   0.4615 0.3077 0.1538  plane waves:    3860
 k-point 76 :  -0.4615 0.3077 0.1538  plane waves:    3859
 k-point 77 :  -0.3846 0.3077 0.1538  plane waves:    3855
 k-point 78 :  -0.4615 0.3846 0.1538  plane waves:    3856
 k-point 79 :  -0.3846 0.3846 0.1538  plane waves:    3853
 k-point 80 :  -0.3077 0.3846 0.1538  plane waves:    3855
 k-point 81 :  -0.2308 0.3846 0.1538  plane waves:    3854
 k-point 82 :  -0.3846 0.4615 0.1538  plane waves:    3856
 k-point 83 :  -0.3077 0.4615 0.1538  plane waves:    3862
 k-point 84 :  -0.3077 0.4615 0.2308  plane waves:    3855

 maximum and minimum number of plane-waves per node :       981      942

 maximum number of plane-waves:      3874
 maximum index in each direction:
   IXMAX=   11   IYMAX=   10   IZMAX=   10
   IXMIN=  -11   IYMIN=  -11   IZMIN=  -11


 parallel 3D FFT for wavefunctions:
    minimum data exchange during FFTs selected (reduces bandwidth)
 parallel 3D FFT for charge:
    minimum data exchange during FFTs selected (reduces bandwidth)


 total amount of memory used by VASP MPI-rank0   113976. kBytes
=======================================================================

   base      :      30000. kBytes
   nonl-proj :      62235. kBytes
   fftplans  :       8952. kBytes
   grid      :       4709. kBytes
   one-center:         49. kBytes
   wavefun   :       8031. kBytes

     INWAV:  cpu time    0.0003: real time    0.0007
 Broyden mixing: mesh for mixing (old mesh)
   NGX = 21   NGY = 21   NGZ = 21
  (NGX  = 96   NGY  = 96   NGZ  = 96)
  gives a total of   9261 points

 initial charge density was supplied:
 charge density of overlapping atoms calculated
 number of electron      37.0000000 magnetization
 keeping initial charge density in first step


--------------------------------------------------------------------------------------------------------


 Maximum index for augmentation-charges        35841 (set IRDMAX)


--------------------------------------------------------------------------------------------------------


 First call to EWALD:  gamma=   0.393
 Maximum number of real-space cells 3x 3x 3
 Maximum number of reciprocal cells 3x 3x 3

    FEWALD:  cpu time    0.0053: real time    0.0059


--------------------------------------- Iteration      1(   1)  ---------------------------------------


    POTLOK:  cpu time    0.0578: real time    0.1221
    SETDIJ:  cpu time    0.1275: real time    0.1281
     EDDAV:  cpu time    1.6799: real time    1.7078
       DOS:  cpu time    0.0035: real time    0.0043
    --------------------------------------------
      LOOP:  cpu time    1.8691: real time    1.9628

 eigenvalue-minimisations  :  4032
 total energy-change (2. order) : 0.4355495E+03  (-0.2022974E+04)
 number of electron      37.0000000 magnetization
 augmentation part       37.0000000 magnetization

 Free energy of the ion-electron system (eV)
  ---------------------------------------------------
  alpha Z        PSCENC =       187.58570159
  Ewald energy   TEWEN  =     -2994.10409134
  -Hartree energ DENC   =      -816.13018512
  -exchange      EXHF   =         0.00000000
  -V(xc)+E(xc)   XCENC  =        66.98956239
  PAW double counting   =      3147.30828992    -3070.62761383
  entropy T*S    EENTRO =        -0.00017607
  eigenvalues    EBANDS =       239.85454673
  atomic energy  EATOM  =      3674.67342263
  Solvation  Ediel_sol  =         0.00000000
  ---------------------------------------------------
  free energy    TOTEN  =       435.54945691 eV

  energy without entropy =      435.54963297  energy(sigma->0) =      435.54954494


--------------------------------------------------------------------------------------------------------




--------------------------------------- Iteration      1(   2)  ---------------------------------------


     EDDAV:  cpu time    1.7708: real time    1.7939
       DOS:  cpu time    0.0031: real time    0.0033
    --------------------------------------------
      LOOP:  cpu time    1.7740: real time    1.7998

 eigenvalue-minimisations  :  4288
 total energy-change (2. order) :-0.3916961E+03  (-0.3842929E+03)
 number of electron      37.0000000 magnetization
 augmentation part       37.0000000 magnetization

 Free energy of the ion-electron system (eV)
  ---------------------------------------------------
  alpha Z        PSCENC =       187.58570159
  Ewald energy   TEWEN  =     -2994.10409134
  -Hartree energ DENC   =      -816.13018512
  -exchange      EXHF   =         0.00000000
  -V(xc)+E(xc)   XCENC  =        66.98956239
  PAW double counting   =      3147.30828992    -3070.62761383
  entropy T*S    EENTRO =        -0.00028229
  eigenvalues    EBANDS =      -151.84142772
  atomic energy  EATOM  =      3674.67342263
  Solvation  Ediel_sol  =         0.00000000
  ---------------------------------------------------
  free energy    TOTEN  =        43.85337624 eV

  energy without entropy =       43.85365853  energy(sigma->0) =       43.85351738


--------------------------------------------------------------------------------------------------------




--------------------------------------- Iteration      1(   3)  ---------------------------------------


     EDDAV:  cpu time    2.1511: real time    2.1769
       DOS:  cpu time    0.0030: real time    0.0032
    --------------------------------------------
      LOOP:  cpu time    2.1541: real time    2.1790

 eigenvalue-minimisations  :  5536
 total energy-change (2. order) :-0.6229532E+02  (-0.6165201E+02)
 number of electron      37.0000000 magnetization
 augmentation part       37.0000000 magnetization

 Free energy of the ion-electron system (eV)
  ---------------------------------------------------
  alpha Z        PSCENC =       187.58570159
  Ewald energy   TEWEN  =     -2994.10409134
  -Hartree energ DENC   =      -816.13018512
  -exchange      EXHF   =         0.00000000
  -V(xc)+E(xc)   XCENC  =        66.98956239
  PAW double counting   =      3147.30828992    -3070.62761383
  entropy T*S    EENTRO =        -0.00015085
  eigenvalues    EBANDS =      -214.13688040
  atomic energy  EATOM  =      3674.67342263
  Solvation  Ediel_sol  =         0.00000000
  ---------------------------------------------------
  free energy    TOTEN  =       -18.44194500 eV

  energy without entropy =      -18.44179416  energy(sigma->0) =      -18.44186958


--------------------------------------------------------------------------------------------------------




--------------------------------------- Iteration      1(   4)  ---------------------------------------


     EDDAV:  cpu time    2.6719: real time    2.6947
       DOS:  cpu time    0.0031: real time    0.0033
    --------------------------------------------
      LOOP:  cpu time    2.6750: real time    2.6992

 eigenvalue-minimisations  :  7288
 total energy-change (2. order) :-0.4134083E+01  (-0.4116949E+01)
 number of electron      37.0000000 magnetization
 augmentation part       37.0000000 magnetization

 Free energy of the ion-electron system (eV)
  ---------------------------------------------------
  alpha Z        PSCENC =       187.58570159
  Ewald energy   TEWEN  =     -2994.10409134
  -Hartree energ DENC   =      -816.13018512
  -exchange      EXHF   =         0.00000000
  -V(xc)+E(xc)   XCENC  =        66.98956239
  PAW double counting   =      3147.30828992    -3070.62761383
  entropy T*S    EENTRO =        -0.00019400
  eigenvalues    EBANDS =      -218.27091986
  atomic energy  EATOM  =      3674.67342263
  Solvation  Ediel_sol  =         0.00000000
  ---------------------------------------------------
  free energy    TOTEN  =       -22.57602762 eV

  energy without entropy =      -22.57583362  energy(sigma->0) =      -22.57593062


--------------------------------------------------------------------------------------------------------




--------------------------------------- Iteration      1(   5)  ---------------------------------------


     EDDAV:  cpu time    2.1482: real time    2.1660
       DOS:  cpu time    0.0031: real time    0.0034
    CHARGE:  cpu time    0.4620: real time    0.4626
    MIXING:  cpu time    0.0079: real time    0.0081
    --------------------------------------------
      LOOP:  cpu time    2.6212: real time    2.6381

 eigenvalue-minimisations  :  5568
 total energy-change (2. order) :-0.1271079E+00  (-0.1270611E+00)
 number of electron      37.0000000 magnetization
 augmentation part        6.0370034 magnetization

 Broyden mixing:
  rms(total) = 0.26602E+01    rms(broyden)= 0.26602E+01
  rms(prec ) = 0.30503E+01
  weight for this iteration     100.00

 Free energy of the ion-electron system (eV)
  ---------------------------------------------------
  alpha Z        PSCENC =       187.58570159
  Ewald energy   TEWEN  =     -2994.10409134
  -Hartree energ DENC   =      -816.13018512
  -exchange      EXHF   =         0.00000000
  -V(xc)+E(xc)   XCENC  =        66.98956239
  PAW double counting   =      3147.30828992    -3070.62761383
  entropy T*S    EENTRO =        -0.00018989
  eigenvalues    EBANDS =      -218.39803192
  atomic energy  EATOM  =      3674.67342263
  Solvation  Ediel_sol  =         0.00000000
  ---------------------------------------------------
  free energy    TOTEN  =       -22.70313557 eV

  energy without entropy =      -22.70294568  energy(sigma->0) =      -22.70304063


--------------------------------------------------------------------------------------------------------




--------------------------------------- Iteration      1(   6)  ---------------------------------------


    POTLOK:  cpu time    0.0598: real time    0.0862
    SETDIJ:  cpu time    0.1214: real time    0.1218
     EDDAV:  cpu time    2.0151: real time    2.0154
       DOS:  cpu time    0.0030: real time    0.0034
    CHARGE:  cpu time    0.4090: real time    0.4117
    MIXING:  cpu time    0.0056: real time    0.0059
    --------------------------------------------
      LOOP:  cpu time    2.6140: real time    2.6451

 eigenvalue-minimisations  :  5168
 total energy-change (2. order) : 0.1078918E+01  (-0.2215087E+00)
 number of electron      37.0000000 magnetization
 augmentation part        6.0657287 magnetization

 Broyden mixing:
  rms(total) = 0.17220E+01    rms(broyden)= 0.17220E+01
  rms(prec ) = 0.18522E+01
  weight for this iteration     100.00

 eigenvalues of (default mixing * dielectric matrix)
  average eigenvalue GAMMA=   2.7238
  2.7238

 Free energy of the ion-electron system (eV)
  ---------------------------------------------------
  alpha Z        PSCENC =       187.58570159
  Ewald energy   TEWEN  =     -2994.10409134
  -Hartree energ DENC   =      -801.34889269
  -exchange      EXHF   =         0.00000000
  -V(xc)+E(xc)   XCENC  =        66.52997968
  PAW double counting   =      3341.61156651    -3268.87167061
  entropy T*S    EENTRO =        -0.00026179
  eigenvalues    EBANDS =      -227.69997173
  atomic energy  EATOM  =      3674.67342263
  Solvation  Ediel_sol  =         0.00000000
  ---------------------------------------------------
  free energy    TOTEN  =       -21.62421775 eV

  energy without entropy =      -21.62395596  energy(sigma->0) =      -21.62408685


--------------------------------------------------------------------------------------------------------




--------------------------------------- Iteration      1(   7)  ---------------------------------------


    POTLOK:  cpu time    0.0486: real time    0.0840
    SETDIJ:  cpu time    0.1166: real time    0.1166
     EDDAV:  cpu time    2.2818: real time    2.2823
       DOS:  cpu time    0.0030: real time    0.0034
    CHARGE:  cpu time    0.3778: real time    0.3784
    MIXING:  cpu time    0.0056: real time    0.0066
    --------------------------------------------
      LOOP:  cpu time    2.8334: real time    2.8718

 eigenvalue-minimisations  :  6120
 total energy-change (2. order) : 0.1031901E+00  (-0.2847831E+00)
 number of electron      37.0000000 magnetization
 augmentation part        6.0469813 magnetization

 Broyden mixing:
  rms(total) = 0.63532E+00    rms(broyden)= 0.63532E+00
  rms(prec ) = 0.76917E+00
  weight for this iteration     100.00

 eigenvalues of (default mixing * dielectric matrix)
  average eigenvalue GAMMA=   2.1801
  1.0513  3.3089

 Free energy of the ion-electron system (eV)
  ---------------------------------------------------
  alpha Z        PSCENC =       187.58570159
  Ewald energy   TEWEN  =     -2994.10409134
  -Hartree energ DENC   =      -786.68341872
  -exchange      EXHF   =         0.00000000
  -V(xc)+E(xc)   XCENC  =        66.24857737
  PAW double counting   =      3590.26808737    -3521.55877332
  entropy T*S    EENTRO =        -0.00025457
  eigenvalues    EBANDS =      -237.95027863
  atomic energy  EATOM  =      3674.67342263
  Solvation  Ediel_sol  =         0.00000000
  ---------------------------------------------------
  free energy    TOTEN  =       -21.52102761 eV

  energy without entropy =      -21.52077304  energy(sigma->0) =      -21.52090032


--------------------------------------------------------------------------------------------------------




--------------------------------------- Iteration      1(   8)  ---------------------------------------


    POTLOK:  cpu time    0.0474: real time    0.0869
    SETDIJ:  cpu time    0.1165: real time    0.1167
     EDDAV:  cpu time    2.0950: real time    2.0953
       DOS:  cpu time    0.0032: real time    0.0035
    CHARGE:  cpu time    0.3784: real time    0.3786
    MIXING:  cpu time    0.0051: real time    0.0056
    --------------------------------------------
      LOOP:  cpu time    2.6456: real time    2.6888

 eigenvalue-minimisations  :  5304
 total energy-change (2. order) : 0.6775846E-01  (-0.8920410E-01)
 number of electron      37.0000000 magnetization
 augmentation part        5.9848429 magnetization

 Broyden mixing:
  rms(total) = 0.28459E+00    rms(broyden)= 0.28459E+00
  rms(prec ) = 0.33797E+00
  weight for this iteration     100.00

 eigenvalues of (default mixing * dielectric matrix)
  average eigenvalue GAMMA=   1.7277
  2.8960  1.1435  1.1435

 Free energy of the ion-electron system (eV)
  ---------------------------------------------------
  alpha Z        PSCENC =       187.58570159
  Ewald energy   TEWEN  =     -2994.10409134
  -Hartree energ DENC   =      -789.00972883
  -exchange      EXHF   =         0.00000000
  -V(xc)+E(xc)   XCENC  =        66.30989554
  PAW double counting   =      3608.02537155    -3539.05676739
  entropy T*S    EENTRO =        -0.00038699
  eigenvalues    EBANDS =      -235.87668591
  atomic energy  EATOM  =      3674.67342263
  Solvation  Ediel_sol  =         0.00000000
  ---------------------------------------------------
  free energy    TOTEN  =       -21.45326914 eV

  energy without entropy =      -21.45288215  energy(sigma->0) =      -21.45307565


--------------------------------------------------------------------------------------------------------




--------------------------------------- Iteration      1(   9)  ---------------------------------------


    POTLOK:  cpu time    0.0688: real time    0.1081
    SETDIJ:  cpu time    0.1045: real time    0.1071
     EDDAV:  cpu time    2.5739: real time    2.5755
       DOS:  cpu time    0.0032: real time    0.0088
    CHARGE:  cpu time    0.3785: real time    0.3788
    MIXING:  cpu time    0.0053: real time    0.0056
    --------------------------------------------
      LOOP:  cpu time    3.1342: real time    3.1853

 eigenvalue-minimisations  :  7040
 total energy-change (2. order) :-0.8144560E-05  (-0.2324747E-01)
 number of electron      37.0000000 magnetization
 augmentation part        5.9488695 magnetization

 Broyden mixing:
  rms(total) = 0.62292E-01    rms(broyden)= 0.62292E-01
  rms(prec ) = 0.18035E+00
  weight for this iteration     100.00

 eigenvalues of (default mixing * dielectric matrix)
  average eigenvalue GAMMA=   1.4537
  2.7226  1.2780  1.2780  0.5361

 Free energy of the ion-electron system (eV)
  ---------------------------------------------------
  alpha Z        PSCENC =       187.58570159
  Ewald energy   TEWEN  =     -2994.10409134
  -Hartree energ DENC   =      -790.49056388
  -exchange      EXHF   =         0.00000000
  -V(xc)+E(xc)   XCENC  =        66.33088624
  PAW double counting   =      3642.78060317    -3573.85895394
  entropy T*S    EENTRO =        -0.00048918
  eigenvalues    EBANDS =      -234.36979260
  atomic energy  EATOM  =      3674.67342263
  Solvation  Ediel_sol  =         0.00000000
  ---------------------------------------------------
  free energy    TOTEN  =       -21.45327729 eV

  energy without entropy =      -21.45278811  energy(sigma->0) =      -21.45303270


--------------------------------------------------------------------------------------------------------




--------------------------------------- Iteration      1(  10)  ---------------------------------------


    POTLOK:  cpu time    0.0573: real time    0.1080
    SETDIJ:  cpu time    0.1116: real time    0.1122
     EDDAV:  cpu time    2.1770: real time    2.1778
       DOS:  cpu time    0.0031: real time    0.0037
    CHARGE:  cpu time    0.3775: real time    0.3781
    MIXING:  cpu time    0.0054: real time    0.0062
    --------------------------------------------
      LOOP:  cpu time    2.7319: real time    2.7834

 eigenvalue-minimisations  :  5576
 total energy-change (2. order) : 0.5783630E-02  (-0.3348207E-02)
 number of electron      37.0000000 magnetization
 augmentation part        5.9664726 magnetization

 Broyden mixing:
  rms(total) = 0.89584E-01    rms(broyden)= 0.89584E-01
  rms(prec ) = 0.13301E+00
  weight for this iteration     100.00

 eigenvalues of (default mixing * dielectric matrix)
  average eigenvalue GAMMA=   1.5296
  2.9446  1.9859  1.1700  0.9439  0.6037

 Free energy of the ion-electron system (eV)
  ---------------------------------------------------
  alpha Z        PSCENC =       187.58570159
  Ewald energy   TEWEN  =     -2994.10409134
  -Hartree energ DENC   =      -790.05315390
  -exchange      EXHF   =         0.00000000
  -V(xc)+E(xc)   XCENC  =        66.29889802
  PAW double counting   =      3641.89698080    -3572.88828274
  entropy T*S    EENTRO =        -0.00056392
  eigenvalues    EBANDS =      -234.85640479
  atomic energy  EATOM  =      3674.67342263
  Solvation  Ediel_sol  =         0.00000000
  ---------------------------------------------------
  free energy    TOTEN  =       -21.44749366 eV

  energy without entropy =      -21.44692974  energy(sigma->0) =      -21.44721170


--------------------------------------------------------------------------------------------------------




--------------------------------------- Iteration      1(  11)  ---------------------------------------


    POTLOK:  cpu time    0.0632: real time    0.1095
    SETDIJ:  cpu time    0.1098: real time    0.1103
     EDDAV:  cpu time    2.2312: real time    2.2315
       DOS:  cpu time    0.0032: real time    0.0039
    CHARGE:  cpu time    0.3777: real time    0.3782
    MIXING:  cpu time    0.0071: real time    0.0073
    --------------------------------------------
      LOOP:  cpu time    2.7921: real time    2.8409

 eigenvalue-minimisations  :  5904
 total energy-change (2. order) : 0.3141211E-02  (-0.2568348E-02)
 number of electron      37.0000000 magnetization
 augmentation part        5.9730020 magnetization

 Broyden mixing:
  rms(total) = 0.22477E-01    rms(broyden)= 0.22477E-01
  rms(prec ) = 0.29397E-01
  weight for this iteration     100.00

 eigenvalues of (default mixing * dielectric matrix)
  average eigenvalue GAMMA=   1.3656
  2.4905  2.1220  1.0724  1.0724  0.7620  0.6744

 Free energy of the ion-electron system (eV)
  ---------------------------------------------------
  alpha Z        PSCENC =       187.58570159
  Ewald energy   TEWEN  =     -2994.10409134
  -Hartree energ DENC   =      -790.70551241
  -exchange      EXHF   =         0.00000000
  -V(xc)+E(xc)   XCENC  =        66.29703353
  PAW double counting   =      3647.26842163    -3578.04650629
  entropy T*S    EENTRO =        -0.00050747
  eigenvalues    EBANDS =      -234.41231432
  atomic energy  EATOM  =      3674.67342263
  Solvation  Ediel_sol  =         0.00000000
  ---------------------------------------------------
  free energy    TOTEN  =       -21.44435244 eV

  energy without entropy =      -21.44384498  energy(sigma->0) =      -21.44409871


--------------------------------------------------------------------------------------------------------




--------------------------------------- Iteration      1(  12)  ---------------------------------------


    POTLOK:  cpu time    0.0597: real time    0.0888
    SETDIJ:  cpu time    0.1166: real time    0.1168
     EDDAV:  cpu time    2.5359: real time    2.5363
       DOS:  cpu time    0.0027: real time    0.0073
    CHARGE:  cpu time    0.3781: real time    0.3799
    MIXING:  cpu time    0.0057: real time    0.0063
    --------------------------------------------
      LOOP:  cpu time    3.0987: real time    3.1378

 eigenvalue-minimisations  :  6952
 total energy-change (2. order) : 0.4494596E-04  (-0.2079798E-03)
 number of electron      37.0000000 magnetization
 augmentation part        5.9748615 magnetization

 Broyden mixing:
  rms(total) = 0.52860E-02    rms(broyden)= 0.52860E-02
  rms(prec ) = 0.68310E-02
  weight for this iteration     100.00

 eigenvalues of (default mixing * dielectric matrix)
  average eigenvalue GAMMA=   1.3445
  2.5005  1.9647  1.3105  1.3105  0.6213  0.8521  0.8521

 Free energy of the ion-electron system (eV)
  ---------------------------------------------------
  alpha Z        PSCENC =       187.58570159
  Ewald energy   TEWEN  =     -2994.10409134
  -Hartree energ DENC   =      -790.85779199
  -exchange      EXHF   =         0.00000000
  -V(xc)+E(xc)   XCENC  =        66.30183448
  PAW double counting   =      3642.78327712    -3573.49762072
  entropy T*S    EENTRO =        -0.00051285
  eigenvalues    EBANDS =      -234.32852641
  atomic energy  EATOM  =      3674.67342263
  Solvation  Ediel_sol  =         0.00000000
  ---------------------------------------------------
  free energy    TOTEN  =       -21.44430750 eV

  energy without entropy =      -21.44379465  energy(sigma->0) =      -21.44405107


--------------------------------------------------------------------------------------------------------




--------------------------------------- Iteration      1(  13)  ---------------------------------------


    POTLOK:  cpu time    0.0529: real time    0.1218
    SETDIJ:  cpu time    0.1100: real time    0.1103
     EDDAV:  cpu time    2.1305: real time    2.1310
       DOS:  cpu time    0.0030: real time    0.0035
    CHARGE:  cpu time    0.3791: real time    0.3795
    MIXING:  cpu time    0.0060: real time    0.0067
    --------------------------------------------
      LOOP:  cpu time    2.6815: real time    2.7507

 eigenvalue-minimisations  :  5592
 total energy-change (2. order) :-0.6814499E-05  (-0.9151212E-05)
 number of electron      37.0000000 magnetization
 augmentation part        5.9755724 magnetization

 Broyden mixing:
  rms(total) = 0.50433E-02    rms(broyden)= 0.50433E-02
  rms(prec ) = 0.69517E-02
  weight for this iteration     100.00

 eigenvalues of (default mixing * dielectric matrix)
  average eigenvalue GAMMA=   1.4324
  2.5491  1.8931  1.7257  1.7257  0.9923  0.9923  0.9450  0.6363

 Free energy of the ion-electron system (eV)
  ---------------------------------------------------
  alpha Z        PSCENC =       187.58570159
  Ewald energy   TEWEN  =     -2994.10409134
  -Hartree energ DENC   =      -790.82383572
  -exchange      EXHF   =         0.00000000
  -V(xc)+E(xc)   XCENC  =        66.30146767
  PAW double counting   =      3642.99737424    -3573.71145879
  entropy T*S    EENTRO =        -0.00051077
  eigenvalues    EBANDS =      -234.36238383
  atomic energy  EATOM  =      3674.67342263
  Solvation  Ediel_sol  =         0.00000000
  ---------------------------------------------------
  free energy    TOTEN  =       -21.44431431 eV

  energy without entropy =      -21.44380354  energy(sigma->0) =      -21.44405893


--------------------------------------------------------------------------------------------------------




--------------------------------------- Iteration      1(  14)  ---------------------------------------


    POTLOK:  cpu time    0.0740: real time    0.1233
    SETDIJ:  cpu time    0.1102: real time    0.1104
     EDDAV:  cpu time    2.2025: real time    2.2066
       DOS:  cpu time    0.0032: real time    0.0037
    CHARGE:  cpu time    0.3812: real time    0.3814
    MIXING:  cpu time    0.0060: real time    0.0064
    --------------------------------------------
      LOOP:  cpu time    2.7770: real time    2.8315

 eigenvalue-minimisations  :  5848
 total energy-change (2. order) : 0.7502229E-05  (-0.3466057E-05)
 number of electron      37.0000000 magnetization
 augmentation part        5.9752956 magnetization

 Broyden mixing:
  rms(total) = 0.46622E-03    rms(broyden)= 0.46619E-03
  rms(prec ) = 0.13724E-02
  weight for this iteration     100.00

 eigenvalues of (default mixing * dielectric matrix)
  average eigenvalue GAMMA=   1.4067
  2.5768  2.2842  1.9048  1.4558  1.1219  0.9463  0.9463  0.6340  0.7901

 Free energy of the ion-electron system (eV)
  ---------------------------------------------------
  alpha Z        PSCENC =       187.58570159
  Ewald energy   TEWEN  =     -2994.10409134
  -Hartree energ DENC   =      -790.81703316
  -exchange      EXHF   =         0.00000000
  -V(xc)+E(xc)   XCENC  =        66.30291145
  PAW double counting   =      3642.16959096    -3572.89215451
  entropy T*S    EENTRO =        -0.00051536
  eigenvalues    EBANDS =      -234.36213907
  atomic energy  EATOM  =      3674.67342263
  Solvation  Ediel_sol  =         0.00000000
  ---------------------------------------------------
  free energy    TOTEN  =       -21.44430681 eV

  energy without entropy =      -21.44379145  energy(sigma->0) =      -21.44404913


--------------------------------------------------------------------------------------------------------




--------------------------------------- Iteration      1(  15)  ---------------------------------------


    POTLOK:  cpu time    0.0543: real time    0.0875
    SETDIJ:  cpu time    0.1122: real time    0.1127
     EDDAV:  cpu time    2.3274: real time    2.3277
       DOS:  cpu time    0.0031: real time    0.0043
    CHARGE:  cpu time    0.3784: real time    0.3793
    MIXING:  cpu time    0.0062: real time    0.0063
    --------------------------------------------
      LOOP:  cpu time    2.8815: real time    2.9176

 eigenvalue-minimisations  :  6320
 total energy-change (2. order) : 0.3445894E-06  (-0.6728980E-06)
 number of electron      37.0000000 magnetization
 augmentation part        5.9750182 magnetization

 Broyden mixing:
  rms(total) = 0.19141E-02    rms(broyden)= 0.19141E-02
  rms(prec ) = 0.20082E-02
  weight for this iteration     100.00

 eigenvalues of (default mixing * dielectric matrix)
  average eigenvalue GAMMA=   1.3582
  2.7065  2.2279  1.5347  1.5347  0.6332  1.0448  0.9517  0.9517  0.9983  0.9983

 Free energy of the ion-electron system (eV)
  ---------------------------------------------------
  alpha Z        PSCENC =       187.58570159
  Ewald energy   TEWEN  =     -2994.10409134
  -Hartree energ DENC   =      -790.81124832
  -exchange      EXHF   =         0.00000000
  -V(xc)+E(xc)   XCENC  =        66.30271790
  PAW double counting   =      3642.19886710    -3572.91986814
  entropy T*S    EENTRO =        -0.00051692
  eigenvalues    EBANDS =      -234.36929096
  atomic energy  EATOM  =      3674.67342263
  Solvation  Ediel_sol  =         0.00000000
  ---------------------------------------------------
  free energy    TOTEN  =       -21.44430647 eV

  energy without entropy =      -21.44378954  energy(sigma->0) =      -21.44404800


--------------------------------------------------------------------------------------------------------




--------------------------------------- Iteration      1(  16)  ---------------------------------------


    POTLOK:  cpu time    0.0583: real time    0.0948
    SETDIJ:  cpu time    0.1153: real time    0.1159
     EDDAV:  cpu time    2.0283: real time    2.0287
       DOS:  cpu time    0.0032: real time    0.0039
    --------------------------------------------
      LOOP:  cpu time    2.2050: real time    2.2408

 eigenvalue-minimisations  :  5160
 total energy-change (2. order) :-0.9976520E-07  (-0.5016342E-07)
 number of electron      37.0000000 magnetization
 augmentation part        5.9750182 magnetization

 Free energy of the ion-electron system (eV)
  ---------------------------------------------------
  alpha Z        PSCENC =       187.58570159
  Ewald energy   TEWEN  =     -2994.10409134
  -Hartree energ DENC   =      -790.81098830
  -exchange      EXHF   =         0.00000000
  -V(xc)+E(xc)   XCENC  =        66.30224374
  PAW double counting   =      3642.53947663    -3573.25693600
  entropy T*S    EENTRO =        -0.00051666
  eigenvalues    EBANDS =      -234.37261885
  atomic energy  EATOM  =      3674.67342263
  Solvation  Ediel_sol  =         0.00000000
  ---------------------------------------------------
  free energy    TOTEN  =       -21.44430657 eV

  energy without entropy =      -21.44378991  energy(sigma->0) =      -21.44404824


--------------------------------------------------------------------------------------------------------




 average (electrostatic) potential at core
  the test charge radii are     1.1985  1.0856  1.2059
  (the norm of the test charge is              1.0000)
       1 -59.2017       2-103.6863       3 -66.9427



 E-fermi :   6.9961     XC(G=0): -10.3986     alpha+bet :-12.2829


 k-point     1 :       0.0000    0.0000    0.0000
  band No.  band energies     occupation
      1     -33.4644      2.00000
      2     -15.7777      2.00000
      3     -15.7777      2.00000
      4     -15.7526      2.00000
      5     -15.7526      2.00000
      6     -15.7526      2.00000
      7     -11.2898      2.00000
      8     -11.2898      2.00000
      9     -11.2898      2.00000
     10      -4.5958      2.00000
     11       3.2081      2.00000
     12       3.2081      2.00000
     13       3.2081      2.00000
     14       3.5064      2.00000
     15       3.5064      2.00000
     16       4.7039      2.00000
     17       6.1184      2.00000
     18       6.1184      2.00000
     19       6.1184      2.00000
     20       7.2766      0.00000
     21       7.2766      0.00000
     22       7.2766      0.00000
     23       7.9385      0.00000
     24       8.6311      0.00000

 k-point     2 :       0.0769    0.0000   -0.0000
  band No.  band energies     occupation
      1     -33.4642      2.00000
      2     -15.7781      2.00000
      3     -15.7781      2.00000
      4     -15.7527      2.00000
      5     -15.7525      2.00000
      6     -15.7525      2.00000
      7     -11.2978      2.00000
      8     -11.2890      2.00000
      9     -11.2890      2.00000
     10      -4.5556      2.00000
     11       3.0605      2.00000
     12       3.1372      2.00000
     13       3.1372      2.00000
     14       3.5734      2.00000
     15       3.5734      2.00000
     16       4.6333      2.00000
     17       6.0414      2.00000
     18       6.0414      2.00000
     19       6.1405      2.00000
     20       7.3491      0.00000
     21       7.3594      0.00000
     22       7.3594      0.00000
     23       8.1034      0.00000
     24       8.6396      0.00000

 k-point     3 :       0.1538   -0.0000    0.0000
  band No.  band energies     occupation
      1     -33.4639      2.00000
      2     -15.7790      2.00000
      3     -15.7790      2.00000
      4     -15.7528      2.00000
      5     -15.7523      2.00000
      6     -15.7523      2.00000
      7     -11.3197      2.00000
      8     -11.2867      2.00000
      9     -11.2867      2.00000
     10      -4.4437      2.00000
     11       2.7175      2.00000
     12       3.0204      2.00000
     13       3.0204      2.00000
     14       3.6712      2.00000
     15       3.6712      2.00000
     16       4.4178      2.00000
     17       5.8776      2.00000
     18       5.8776      2.00000
     19       6.1959      2.00000
     20       7.5532      0.00000
     21       7.5532      0.00000
     22       7.6580      0.00000
     23       8.3833      0.00000
     24       8.6553      0.00000

 k-point     4 :       0.2308    0.0000   -0.0000
  band No.  band energies     occupation
      1     -33.4634      2.00000
      2     -15.7804      2.00000
      3     -15.7804      2.00000
      4     -15.7531      2.00000
      5     -15.7519      2.00000
      6     -15.7519      2.00000
      7     -11.3494      2.00000
      8     -11.2834      2.00000
      9     -11.2834      2.00000
     10      -4.2843      2.00000
     11       2.3276      2.00000
     12       2.9255      2.00000
     13       2.9255      2.00000
     14       3.7179      2.00000
     15       3.7179      2.00000
     16       4.1382      2.00000
     17       5.7241      2.00000
     18       5.7241      2.00000
     19       6.2804      2.00000
     20       7.7826      0.00000
     21       7.7826      0.00000
     22       8.1185      0.00000
     23       8.5847      0.00000
     24       8.6707      0.00000

 k-point     5 :       0.3077   -0.0000    0.0000
  band No.  band energies     occupation
      1     -33.4628      2.00000
      2     -15.7819      2.00000
      3     -15.7819      2.00000
      4     -15.7534      2.00000
      5     -15.7516      2.00000
      6     -15.7516      2.00000
      7     -11.3797      2.00000
      8     -11.2800      2.00000
      9     -11.2800      2.00000
     10      -4.1126      2.00000
     11       1.9801      2.00000
[...]
  212              fftbas_plan_mpi                       0.099123                     12   6
  213                dfftw_execute                         0.039631                   36   7
  214                map_backward                          0.006816                   12   7
  215                  map_gather                            0.001607                  6   8
  216                  m_alltoallv_z                         0.002658                  6   8
  217                  map_scatter                           0.002256                  6   8
  218                map_forward                           0.049262                   12   7
  219                  map_gather                            0.027952                  6   8
  220                  m_alltoallv_z                         0.009083                  6   8
  221                  map_scatter                           0.011911                  6   8
  222            M_sumb_d                              0.004338                        6   5
  223          M_sumb_d                              0.000025                          1   4
  224        setdij_                               1.971400                           20   3
  225          fft3d_mpi                             0.355184                         40   4
  226            fftbas_plan_mpi                       0.325909                       40   5
  227              dfftw_execute                         0.132752                    120   6
  228              map_backward                          0.024946                     40   6
  229                map_gather                            0.005430                   20   7
  230                m_alltoallv_z                         0.011384                   20   7
  231                map_scatter                           0.007171                   20   7
  232              map_forward                           0.157048                     40   6
  233                map_gather                            0.088318                   20   7
  234                m_alltoallv_z                         0.028998                   20   7
  235                map_scatter                           0.038713                   20   7
  236          M_sumb_d                              0.005249                         20   4
  237        set_dd_magatom                        0.000003                            1   3
  238        set_dd_paw                            0.019391                            1   3
  239          set_rsgf_all                          0.000004                          1   4
  240          M_sumb_d                              0.019063                          8   4
  241        strkin                                0.001325                            1   3
  242          M_sumb_d                              0.000504                          1   4
  243        strelo                                0.003770                            1   3
  244          M_sumb_d                              0.000429                          2   4
  245        strenl                                1.322790                            1   3
  246          spher                                 0.990223                         19   4
  247          phase                                 0.015270                        189   4
  248          proj1                                 0.292071                       1134   4
  249            crexp_mul_wave                        0.037028                     3402   5
  250            M_sumb_d                              0.081714                     1134   5
  251          M_sumb_d                              0.001837                          1   4
  252        M_sumb_d                              0.000239                            6   3
  253        fft3d_mpi                             0.022507                           11   3
  254          fftbas_plan_mpi                       0.020783                         11   4
  255            dfftw_execute                         0.007724                       33   5
  256            map_forward                           0.004476                       10   5
  257              map_gather                            0.001550                      5   6
  258              m_alltoallv_z                         0.001546                      5   6
  259              map_scatter                           0.001133                      5   6
  260            map_backward                          0.005822                       12   5
  261              map_gather                            0.001691                      6   6
  262              m_alltoallv_z                         0.001803                      6   6
  263              map_scatter                           0.002037                      6   6
  264        ggaall_grid                           0.002590                            1   3
  265        forhar                                0.010528                            2   3
  266          M_sumb_d                              0.000434                          2   4
  267        strehar                               0.004146                            1   3
  268          M_sumb_d                              0.000054                          1   4
  269        chggra                                0.009479                            1   3
  270          fft3d_mpi                             0.005939                          3   4
  271            fftbas_plan_mpi                       0.005456                        3   5
  272              dfftw_execute                         0.002078                      9   6
  273              map_backward                          0.000976                      2   6
  274                map_gather                            0.000244                    1   7
  275                m_alltoallv_z                         0.000319                    1   7
  276                map_scatter                           0.000355                    1   7
  277              map_forward                           0.001636                      4   6
  278                map_gather                            0.000543                    2   7
  279                m_alltoallv_z                         0.000556                    2   7
  280                map_scatter                           0.000434                    2   7
  281          M_sumb_d                              0.000143                          3   4
  282        brmix                                 0.009274                            1   3
  283          M_sumb_d                              0.000337                          6   4
  284          brpre                                 0.000056                          1   4
  285          setg0                                 0.002466                          1   4
  286          broyd                                 0.002386                          1   4
  287            M_sumb_d                              0.000616                       18   5
  288            brget                                 0.000309                       64   5
  289            brsav                                 0.000073                       16   5
  290          M_bcast_z                             0.002469                          1   4
  291          M_bcast_d                             0.000056                          1   4
  292        M_bcast_d                             0.000046                            2   3
  293      potlok                                0.041091                              1   2
  294        fft3d_mpi                             0.027449                           13   3
  295          fftbas_plan_mpi                       0.025349                         13   4
  296            dfftw_execute                         0.008961                       39   5
  297            map_forward                           0.007183                       14   5
  298              map_gather                            0.002276                      8   6
  299              m_alltoallv_z                         0.002585                      8   6
  300              map_scatter                           0.001954                      8   6
  301            map_backward                          0.006117                       12   5
  302              map_gather                            0.001724                      6   6
  303              m_alltoallv_z                         0.001949                      6   6
  304              map_scatter                           0.002148                      6   6
  305        ggaall_grid                           0.002669                            1   3
  306        M_sumb_d                              0.000291                            6   3
  307        M_bcast_d                             0.000126                            1   3
  308      potlok_metagga                        0.000005                              1   2
  309      set_dd_magatom                        0.000003                              1   2
  310      set_dd_paw                            0.000457                              1   2
  311        set_rsgf_all                          0.000004                            1   3
  312        M_sumb_d                              0.000266                            8   3
  313      densta                                0.002385                              1   2
  314        M_sumb_d                              0.000810                           43   3
  315      lprj_proall                           0.000007                              1   2

 Flat profile
 ============

             routine name                   CPU           calls
 ---------------------------------------------------------------
 total_time                             14.380123           1
 dfftw_execute                           7.793582       51300
 eddav                                   5.383526          16
 fftbas_plan_mpi                         3.724697       17102
 setdij_                                 3.346291          40
 M_sumb_d                                2.875240       47618
 set_charge                              2.774172          12
 m_alltoallv_z                           2.168258       17125
 elmin                                   1.663352           1
 pdssyex_zheevx                          1.493473         336
 vhamil                                  1.336610        7776
 M_alltoall_d                            1.298672       57078
 proj1                                   1.174969        7020
 spher                                   1.144562          20
 fftwav_mpi                              1.087744        9036
 gemm                                    1.075900       23328
 map_forward                             1.056845       18350
 orth1                                   1.044745       11685
 map_gather                              0.937408       17125
 map_scatter                             0.893874       17125
 vnlac0                                  0.534132        7776
 M_bcast_z                               0.515444        6439
 redis_pw                                0.492304       22026
 hamiltmu                                0.446454        3888
 redis_proj                              0.423687       27807
 w1_copy                                 0.373238       23328
 fft3d_mpi                               0.323559       17100
 work_mul_crexp                          0.312861       23328
 eccp                                    0.303956        2016
 map_backward                            0.286052       15850
 fftext_mpi                              0.281478        7776
 crpa_reader                             0.251321           1
 crexp_mul_wave                          0.245643       21060
 pw_charge                               0.178329        1260
 kinhamil                                0.167335        7776
 overl                                   0.156669       13557
 potlok                                  0.132165          13
 M_bcast_d                               0.128819        3920
 overl1                                  0.093457        7776
 apply_precond                           0.087025        5760
 setup_precond                           0.075058        2016
 lincom                                  0.069637         357
 w1_projall                              0.063338        2880
 force_and_stress                        0.057088           1
 fornl                                   0.056708           1
 phase                                   0.045803         568
 soft_charge                             0.038626          12
 ggaall_grid                             0.036502          14
 truncate_high_frequency_w1              0.033301        9792
 densta                                  0.025866          17
 setg0                                   0.024150          13
 strenl                                  0.023389           1
 brmix                                   0.018552          12
 forhar                                  0.010094           2
 broyd                                   0.008566          12
 depsum                                  0.005282          12
 forloc                                  0.005141           1
 strehar                                 0.004092           1
 chggra                                  0.003397           1
 strelo                                  0.003341           1
 set_dd_paw                              0.003299          14
 orthch                                  0.002111           1
 brget                                   0.002037         432
 choleski                                0.001829          21
 proj                                    0.001614          21
 brgrid                                  0.001349           1
 brsav                                   0.001035         128
 brpre                                   0.000969          12
 strkin                                  0.000821           1
 fordep                                  0.000118           1
 vectorpot                               0.000075          13
 set_rsgf_all                            0.000066          14
 potlok_metagga                          0.000053          13
 set_dd_magatom                          0.000048          14
 set_kineden                             0.000040          11
 rotate_active_occupied_orbital          0.000015           1
 lprj_proall                             0.000007           1
 redis_pw_over_bands                     0.000003           1
 ---------------------------------------------------------------
  summed up times    63.0113890171051

 Accumulative profile
 ====================

             routine name                   CPU           calls
 ---------------------------------------------------------------
 total_time                             63.011389           1
 elmin                                  42.844124           1
 eddav                                  34.959915          16
 fft3d_mpi                              17.129224       17100
 fftbas_plan_mpi                        16.860716       17102
 hamiltmu                               11.576904        3888
 fftwav_mpi                              9.963242        9036
 dfftw_execute                           7.793582       51300
 kinhamil                                7.269561        7776
 fftext_mpi                              7.102226        7776
 set_charge                              4.648870          12
 force_and_stress                        4.490797           1
 setdij_                                 4.118099          40
 map_forward                             3.311381       18350
 M_sumb_d                                2.875240       47618
 vnlac0                                  2.430823        7776
 m_alltoallv_z                           2.168258       17125
 map_backward                            2.031057       15850
 proj1                                   1.926639        7020
 w1_projall                              1.665390        2880
 soft_charge                             1.626593          12
 pdssyex_zheevx                          1.493473         336
 vhamil                                  1.336610        7776
 strenl                                  1.322790           1
 M_alltoall_d                            1.298672       57078
 redis_pw                                1.248776       22026
 spher                                   1.144562          20
 gemm                                    1.075900       23328
 orth1                                   1.044745       11685
 redis_proj                              0.965887       27807
 map_gather                              0.937408       17125
 map_scatter                             0.893874       17125
 fordep                                  0.600638           1
 M_bcast_z                               0.515444        6439
 potlok                                  0.513229          13
 eccp                                    0.428151        2016
 w1_copy                                 0.373238       23328
 work_mul_crexp                          0.312861       23328
 crpa_reader                             0.251321           1
 crexp_mul_wave                          0.245643       21060
 pw_charge                               0.178329        1260
 set_dd_paw                              0.159540          14
 overl                                   0.156669       13557
 M_bcast_d                               0.128819        3920
 setup_precond                           0.123352        2016
 overl1                                  0.093457        7776
 apply_precond                           0.087025        5760
 fornl                                   0.073951           1
 brmix                                   0.072950          12
 lincom                                  0.069637         357
 phase                                   0.045803         568
 densta                                  0.038975          17
 ggaall_grid                             0.036502          14
 orthch                                  0.034389           1
 proj                                    0.034130          21
 truncate_high_frequency_w1              0.033301        9792
 setg0                                   0.024150          13
 broyd                                   0.016807          12
 forhar                                  0.010528           2
 depsum                                  0.010018          12
 chggra                                  0.009479           1
 forloc                                  0.005201           1
 strehar                                 0.004146           1
 strelo                                  0.003770           1
 brget                                   0.002037         432
 choleski                                0.001829          21
 brgrid                                  0.001349           1
 strkin                                  0.001325           1
 brsav                                   0.001035         128
 brpre                                   0.000969          12
 vectorpot                               0.000075          13
 set_rsgf_all                            0.000066          14
 potlok_metagga                          0.000053          13
 set_dd_magatom                          0.000048          14
 set_kineden                             0.000040          11
 rotate_active_occupied_orbital          0.000015           1
 lprj_proall                             0.000007           1
 redis_pw_over_bands                     0.000003           1
 ---------------------------------------------------------------

Profiling took   1.416438  1.638846  0.005938  0.004365 seconds
Profiling took   1.403627 seconds
