 ----------------------------------------------------
    OOO  PPPP  EEEEE N   N M   M PPPP
   O   O P   P E     NN  N MM MM P   P
   O   O PPPP  EEEEE N N N M M M PPPP   -- VERSION
   O   O P     E     N  NN M   M P
    OOO  P     EEEEE N   N M   M P
 ----------------------------------------------------
 running   64 mpi-ranks, with    1 threads/rank
 distrk:  each k-point on   16 cores,    4 groups
 distr:  one band on    4 cores,    4 groups
 using from now: INCAR
 vasp.6.0.8 29Jun18 (build Jun 13 2019 12:54:44) complex

 POSCAR found type information on POSCAR  Th Bi Pt
 POSCAR found :  3 types and       3 ions
 scaLAPACK will be used
 WARNING: PSMAXN for non-local potential too small

 -----------------------------------------------------------------------------
|                                                                             |
|  ADVICE TO THIS USER RUNNING 'VASP/VAMP'   (HEAR YOUR MASTER'S VOICE ...):  |
|                                                                             |
|      You enforced a specific xc-type in the INCAR file,                     |
|      a different type was found on the POTCAR file                          |
|          I HOPE YOU KNOW, WHAT YOU ARE  DOING                               |
|                                                                             |
 -----------------------------------------------------------------------------

 LDA part: xc-table for Pade appr. of Perdew
 POSCAR, INCAR and KPOINTS ok, starting setup
 FFT: planning ...
 WAVECAR not read
 entering main loop
       N       E                     dE             d eps       ncg     rms          rms(c)
 ELPA: falling back to scaLAPACK
 ELPA: falling back to scaLAPACK
 ELPA: falling back to scaLAPACK
 ELPA: falling back to scaLAPACK
DAV:   1     0.435549456905E+03    0.43555E+03   -0.20230E+04  4032   0.195E+03
DAV:   2     0.438533762379E+02   -0.39170E+03   -0.38429E+03  4288   0.480E+02
DAV:   3    -0.184419450040E+02   -0.62295E+02   -0.61652E+02  5536   0.161E+02
DAV:   4    -0.225760276248E+02   -0.41341E+01   -0.41169E+01  7288   0.432E+01
DAV:   5    -0.227031355713E+02   -0.12711E+00   -0.12706E+00  5568   0.597E+00    0.266E+01
DAV:   6    -0.216242177457E+02    0.10789E+01   -0.22151E+00  5168   0.792E+00    0.172E+01
DAV:   7    -0.215210276060E+02    0.10319E+00   -0.28478E+00  6120   0.868E+00    0.635E+00
DAV:   8    -0.214532691417E+02    0.67758E-01   -0.89204E-01  5304   0.406E+00    0.285E+00
DAV:   9    -0.214532772863E+02   -0.81446E-05   -0.23247E-01  7040   0.225E+00    0.623E-01
DAV:  10    -0.214474936562E+02    0.57836E-02   -0.33482E-02  5576   0.101E+00    0.896E-01
DAV:  11    -0.214443524447E+02    0.31412E-02   -0.25683E-02  5904   0.698E-01    0.225E-01
DAV:  12    -0.214443074987E+02    0.44946E-04   -0.20798E-03  6952   0.259E-01    0.529E-02
DAV:  13    -0.214443143132E+02   -0.68145E-05   -0.91512E-05  5592   0.567E-02    0.504E-02
DAV:  14    -0.214443068110E+02    0.75022E-05   -0.34661E-05  5848   0.299E-02    0.466E-03
DAV:  15    -0.214443064664E+02    0.34459E-06   -0.67290E-06  6320   0.128E-02    0.191E-02
DAV:  16    -0.214443065662E+02   -0.99765E-07   -0.50163E-07  5160   0.525E-03
   1 F= -.21444307E+02 E0= -.21444048E+02  d E =-.516659E-03
