<?xml version="1.0" encoding="ISO-8859-1"?>
<modeling>
 <generator>
  <i name="program" type="string">vasp </i>
  <i name="version" type="string">6.0.8  </i>
  <i name="subversion" type="string">29Jun18 (build Jun 13 2019 12:54:44) complex                          parallel </i>
  <i name="platform" type="string">IFC18_CrayMPICH </i>
  <i name="date" type="string">2021 12 05 </i>
  <i name="time" type="string">14:21:47 </i>
 </generator>
 <incar>
  <i type="int" name="KPAR">     4</i>
  <i type="int" name="NPAR">     4</i>
  <i type="int" name="ISTART">     0</i>
  <i type="string" name="PREC"> ACC</i>
  <i type="string" name="ALGO"> Normal</i>
  <i type="logical" name="ADDGRID"> T  </i>
  <i type="int" name="ISPIN">     1</i>
  <i type="int" name="NELMIN">     5</i>
  <i type="int" name="IBRION">    -1</i>
  <i name="EDIFF">      0.00000010</i>
  <i type="int" name="NSW">     0</i>
  <i type="int" name="ISIF">     3</i>
  <i name="ENCUT">    700.00000000</i>
  <i type="logical" name="LREAL"> F  </i>
  <i type="int" name="ISMEAR">     0</i>
  <i name="SIGMA">      0.01000000</i>
  <i type="logical" name="LWAVE"> F  </i>
  <i type="logical" name="LCHARG"> F  </i>
  <i type="logical" name="LVTOT"> F  </i>
  <i type="string" name="ALGO"> Normal</i>
  <i type="string" name="GGA"> PS</i>
  <i name="EDIFF">      0.00000010</i>
  <i type="int" name="ISPIN">     1</i>
 </incar>
 <structure name="primitive_cell" >
  <crystal>
   <varray name="basis" >
    <v>       0.00000000       3.57775815       3.57775815 </v>
    <v>       3.57775815       0.00000000       3.57775815 </v>
    <v>       3.57775815       3.57775815       0.00000000 </v>
   </varray>
   <i name="volume">     91.59313761 </i>
   <varray name="rec_basis" >
    <v>      -0.13975232       0.13975232       0.13975232 </v>
    <v>       0.13975232      -0.13975232       0.13975232 </v>
    <v>       0.13975232       0.13975232      -0.13975232 </v>
   </varray>
  </crystal>
  <varray name="positions" >
   <v>       0.25000000       0.25000000       0.25000000 </v>
   <v>       0.75000000       0.75000000       0.75000000 </v>
   <v>       0.00000000       0.00000000       0.00000000 </v>
  </varray>
 </structure>
 <varray name="primitive_index" >
  <v type="int" >        1 </v>
  <v type="int" >        2 </v>
  <v type="int" >        3 </v>
 </varray>
 <kpoints>
  <generation param="Gamma">
   <v type="int" name="divisions">      13       13       13 </v>
   <v name="usershift">      0.00000000       0.00000000       0.00000000 </v>
   <v name="genvec1">      0.07692308       0.00000000      -0.00000000 </v>
   <v name="genvec2">      0.00000000       0.07692308       0.00000000 </v>
   <v name="genvec3">     -0.00000000      -0.00000000       0.07692308 </v>
   <v name="shift">      0.00000000       0.00000000       0.00000000 </v>
  </generation>
  <varray name="kpointlist" >
   <v>       0.00000000       0.00000000       0.00000000 </v>
   <v>       0.07692308       0.00000000      -0.00000000 </v>
   <v>       0.15384615      -0.00000000       0.00000000 </v>
   <v>       0.23076923       0.00000000      -0.00000000 </v>
   <v>       0.30769231      -0.00000000       0.00000000 </v>
   <v>       0.38461538      -0.00000000      -0.00000000 </v>
   <v>       0.46153846       0.00000000      -0.00000000 </v>
   <v>       0.07692308       0.07692308      -0.00000000 </v>
   <v>       0.15384615       0.07692308      -0.00000000 </v>
   <v>       0.23076923       0.07692308      -0.00000000 </v>
   <v>       0.30769231       0.07692308      -0.00000000 </v>
   <v>       0.38461538       0.07692308      -0.00000000 </v>
   <v>       0.46153846       0.07692308      -0.00000000 </v>
   <v>      -0.46153846       0.07692308       0.00000000 </v>
   <v>      -0.38461538       0.07692308       0.00000000 </v>
   <v>      -0.30769231       0.07692308       0.00000000 </v>
   <v>      -0.23076923       0.07692308      -0.00000000 </v>
   <v>      -0.15384615       0.07692308       0.00000000 </v>
   <v>      -0.07692308       0.07692308       0.00000000 </v>
   <v>       0.15384615       0.15384615      -0.00000000 </v>
   <v>       0.23076923       0.15384615      -0.00000000 </v>
   <v>       0.30769231       0.15384615      -0.00000000 </v>
   <v>       0.38461538       0.15384615      -0.00000000 </v>
   <v>       0.46153846       0.15384615      -0.00000000 </v>
   <v>      -0.46153846       0.15384615      -0.00000000 </v>
   <v>      -0.38461538       0.15384615      -0.00000000 </v>
   <v>      -0.30769231       0.15384615       0.00000000 </v>
   <v>      -0.23076923       0.15384615       0.00000000 </v>
   <v>      -0.15384615       0.15384615      -0.00000000 </v>
   <v>       0.23076923       0.23076923      -0.00000000 </v>
   <v>       0.30769231       0.23076923      -0.00000000 </v>
   <v>       0.38461538       0.23076923      -0.00000000 </v>
   <v>       0.46153846       0.23076923      -0.00000000 </v>
   <v>      -0.46153846       0.23076923      -0.00000000 </v>
   <v>      -0.38461538       0.23076923       0.00000000 </v>
   <v>      -0.30769231       0.23076923      -0.00000000 </v>
   <v>      -0.23076923       0.23076923       0.00000000 </v>
   <v>       0.30769231       0.30769231      -0.00000000 </v>
   <v>       0.38461538       0.30769231       0.00000000 </v>
   <v>       0.46153846       0.30769231      -0.00000000 </v>
   <v>      -0.46153846       0.30769231      -0.00000000 </v>
   <v>      -0.38461538       0.30769231      -0.00000000 </v>
   <v>      -0.30769231       0.30769231      -0.00000000 </v>
   <v>       0.38461538       0.38461538      -0.00000000 </v>
   <v>       0.46153846       0.38461538      -0.00000000 </v>
   <v>      -0.46153846       0.38461538      -0.00000000 </v>
   <v>      -0.38461538       0.38461538      -0.00000000 </v>
   <v>       0.46153846       0.46153846      -0.00000000 </v>
   <v>      -0.46153846       0.46153846       0.00000000 </v>
   <v>       0.23076923       0.15384615       0.07692308 </v>
   <v>       0.30769231       0.15384615       0.07692308 </v>
   <v>       0.38461538       0.15384615       0.07692308 </v>
   <v>       0.46153846       0.15384615       0.07692308 </v>
   <v>      -0.46153846       0.15384615       0.07692308 </v>
   <v>       0.30769231       0.23076923       0.07692308 </v>
   <v>       0.38461538       0.23076923       0.07692308 </v>
   <v>       0.46153846       0.23076923       0.07692308 </v>
   <v>      -0.46153846       0.23076923       0.07692308 </v>
   <v>      -0.38461538       0.23076923       0.07692308 </v>
   <v>      -0.30769231       0.23076923       0.07692308 </v>
   <v>      -0.23076923       0.23076923       0.07692308 </v>
   <v>      -0.15384615       0.23076923       0.07692308 </v>
   <v>       0.38461538       0.30769231       0.07692308 </v>
   <v>       0.46153846       0.30769231       0.07692308 </v>
   <v>      -0.46153846       0.30769231       0.07692308 </v>
   <v>      -0.38461538       0.30769231       0.07692308 </v>
   <v>      -0.30769231       0.30769231       0.07692308 </v>
   <v>      -0.23076923       0.30769231       0.07692308 </v>
   <v>       0.46153846       0.38461538       0.07692308 </v>
   <v>      -0.46153846       0.38461538       0.07692308 </v>
   <v>      -0.38461538       0.38461538       0.07692308 </v>
   <v>      -0.30769231       0.38461538       0.07692308 </v>
   <v>      -0.46153846       0.46153846       0.07692308 </v>
   <v>      -0.38461538       0.46153846       0.07692308 </v>
   <v>       0.46153846       0.30769231       0.15384615 </v>
   <v>      -0.46153846       0.30769231       0.15384615 </v>
   <v>      -0.38461538       0.30769231       0.15384615 </v>
   <v>      -0.46153846       0.38461538       0.15384615 </v>
   <v>      -0.38461538       0.38461538       0.15384615 </v>
   <v>      -0.30769231       0.38461538       0.15384615 </v>
   <v>      -0.23076923       0.38461538       0.15384615 </v>
   <v>      -0.38461538       0.46153846       0.15384615 </v>
   <v>      -0.30769231       0.46153846       0.15384615 </v>
   <v>      -0.30769231       0.46153846       0.23076923 </v>
  </varray>
  <varray name="weights" >
   <v>       0.00045517 </v>
   <v>       0.00364133 </v>
   <v>       0.00364133 </v>
   <v>       0.00364133 </v>
   <v>       0.00364133 </v>
   <v>       0.00364133 </v>
   <v>       0.00364133 </v>
   <v>       0.00273100 </v>
   <v>       0.01092399 </v>
   <v>       0.01092399 </v>
   <v>       0.01092399 </v>
   <v>       0.01092399 </v>
   <v>       0.01092399 </v>
   <v>       0.01092399 </v>
   <v>       0.01092399 </v>
   <v>       0.01092399 </v>
   <v>       0.01092399 </v>
   <v>       0.01092399 </v>
   <v>       0.00546199 </v>
   <v>       0.00273100 </v>
   <v>       0.01092399 </v>
   <v>       0.01092399 </v>
   <v>       0.01092399 </v>
   <v>       0.01092399 </v>
   <v>       0.01092399 </v>
   <v>       0.01092399 </v>
   <v>       0.01092399 </v>
   <v>       0.01092399 </v>
   <v>       0.00546199 </v>
   <v>       0.00273100 </v>
   <v>       0.01092399 </v>
   <v>       0.01092399 </v>
   <v>       0.01092399 </v>
   <v>       0.01092399 </v>
   <v>       0.01092399 </v>
   <v>       0.01092399 </v>
   <v>       0.00546199 </v>
   <v>       0.00273100 </v>
   <v>       0.01092399 </v>
   <v>       0.01092399 </v>
   <v>       0.01092399 </v>
   <v>       0.01092399 </v>
   <v>       0.00546199 </v>
   <v>       0.00273100 </v>
   <v>       0.01092399 </v>
   <v>       0.01092399 </v>
   <v>       0.00546199 </v>
   <v>       0.00273100 </v>
   <v>       0.00546199 </v>
   <v>       0.01092399 </v>
   <v>       0.02184797 </v>
   <v>       0.02184797 </v>
   <v>       0.02184797 </v>
   <v>       0.02184797 </v>
   <v>       0.01092399 </v>
   <v>       0.02184797 </v>
   <v>       0.02184797 </v>
   <v>       0.02184797 </v>
   <v>       0.02184797 </v>
   <v>       0.02184797 </v>
   <v>       0.02184797 </v>
   <v>       0.01092399 </v>
   <v>       0.01092399 </v>
   <v>       0.02184797 </v>
   <v>       0.02184797 </v>
   <v>       0.02184797 </v>
   <v>       0.02184797 </v>
   <v>       0.01092399 </v>
   <v>       0.01092399 </v>
   <v>       0.02184797 </v>
   <v>       0.02184797 </v>
   <v>       0.01092399 </v>
   <v>       0.01092399 </v>
   <v>       0.01092399 </v>
   <v>       0.01092399 </v>
   <v>       0.02184797 </v>
   <v>       0.02184797 </v>
   <v>       0.01092399 </v>
   <v>       0.02184797 </v>
   <v>       0.02184797 </v>
   <v>       0.01092399 </v>
   <v>       0.01092399 </v>
   <v>       0.01092399 </v>
   <v>       0.01092399 </v>
  </varray>
 </kpoints>
 <parameters>
  <separator name="general" >
   <i type="string" name="SYSTEM">unknown system</i>
   <i type="logical" name="LCOMPAT"> F  </i>
  </separator>
  <separator name="electronic" >
   <i type="string" name="PREC">acc</i>
   <i name="ENMAX">    700.00000000</i>
   <i name="ENAUG">    535.43100000</i>
   <i name="EDIFF">      0.00000010</i>
   <i type="int" name="IALGO">    38</i>
   <i type="int" name="IWAVPR">    10</i>
   <i type="int" name="NBANDS">    24</i>
   <i type="int" name="NBANDSLOW">    -1</i>
   <i type="int" name="NBANDSHIGH">    -1</i>
   <i name="NELECT">     37.00000000</i>
   <i type="int" name="TURBO">     0</i>
   <i type="int" name="IRESTART">     0</i>
   <i type="int" name="NREBOOT">     0</i>
   <i type="int" name="NMIN">     0</i>
   <i name="EREF">      0.00000000</i>
   <separator name="electronic smearing" >
    <i type="int" name="ISMEAR">     0</i>
    <i name="SIGMA">      0.01000000</i>
    <i name="KSPACING">      0.50000000</i>
    <i type="logical" name="KGAMMA"> T  </i>
    <i type="logical" name="KBLOWUP"> T  </i>
   </separator>
   <separator name="electronic projectors" >
    <i type="logical" name="LREAL"> F  </i>
    <v name="ROPT">      0.00000000      0.00000000      0.00000000</v>
    <i type="int" name="LMAXPAW">  -100</i>
    <i type="int" name="LMAXMIX">     2</i>
    <i type="logical" name="NLSPLINE"> F  </i>
   </separator>
   <separator name="electronic startup" >
    <i type="int" name="ISTART">     0</i>
    <i type="int" name="ICHARG">     2</i>
    <i type="int" name="INIWAV">     1</i>
   </separator>
   <separator name="electronic spin" >
    <i type="int" name="ISPIN">     1</i>
    <i type="logical" name="LNONCOLLINEAR"> F  </i>
    <v name="MAGMOM">      1.00000000      1.00000000      1.00000000</v>
    <i name="NUPDOWN">     -1.00000000</i>
    <i type="logical" name="LSORBIT"> F  </i>
    <v name="SAXIS">      0.00000000      0.00000000      1.00000000</v>
    <i type="logical" name="LSPIRAL"> F  </i>
    <v name="QSPIRAL">      0.00000000      0.00000000      0.00000000</v>
    <i type="logical" name="LZEROZ"> F  </i>
   </separator>
   <separator name="electronic exchange-correlation" >
    <i type="logical" name="LASPH"> F  </i>
    <i type="logical" name="LMETAGGA"> F  </i>
   </separator>
   <separator name="electronic convergence" >
    <i type="int" name="NELM">    60</i>
    <i type="int" name="NELMDL">    -5</i>
    <i type="int" name="NELMIN">     5</i>
    <i name="ENINI">    700.00000000</i>
    <separator name="electronic convergence detail" >
     <i type="logical" name="LDIAG"> T  </i>
     <i type="logical" name="LSUBROT"> F  </i>
     <i name="WEIMIN">      0.00000000</i>
     <i name="EBREAK">      0.00000000</i>
     <i name="DEPER">      0.30000000</i>
     <i type="int" name="NRMM">     4</i>
     <i name="TIME">      0.40000000</i>
    </separator>
   </separator>
   <separator name="electronic mixer" >
    <i name="AMIX">      0.40000000</i>
    <i name="BMIX">      1.00000000</i>
    <i name="AMIN">      0.10000000</i>
    <i name="AMIX_MAG">      1.60000000</i>
    <i name="BMIX_MAG">      1.00000000</i>
    <separator name="electronic mixer details" >
     <i type="int" name="IMIX">     4</i>
     <i type="logical" name="MIXFIRST"> F  </i>
     <i type="int" name="MAXMIX">   -45</i>
     <i name="WC">    100.00000000</i>
     <i type="int" name="INIMIX">     1</i>
     <i type="int" name="MIXPRE">     1</i>
     <i type="int" name="MREMOVE">     5</i>
    </separator>
   </separator>
   <separator name="electronic dipolcorrection" >
    <i type="logical" name="LDIPOL"> F  </i>
    <i type="logical" name="LMONO"> F  </i>
    <i type="int" name="IDIPOL">     0</i>
    <i name="EPSILON">      1.00000000</i>
    <v name="DIPOL">   -100.00000000   -100.00000000   -100.00000000</v>
    <i name="EFIELD">      0.00000000</i>
   </separator>
  </separator>
  <separator name="grids" >
   <i type="int" name="NGX">    48</i>
   <i type="int" name="NGY">    48</i>
   <i type="int" name="NGZ">    48</i>
   <i type="int" name="NGXF">    96</i>
   <i type="int" name="NGYF">    96</i>
   <i type="int" name="NGZF">    96</i>
   <i type="logical" name="ADDGRID"> T  </i>
  </separator>
  <separator name="ionic" >
   <i type="int" name="NSW">     0</i>
   <i type="int" name="IBRION">    -1</i>
   <i type="int" name="MDALGO">     0</i>
   <i type="int" name="ISIF">     3</i>
   <i name="PSTRESS">      0.00000000</i>
   <i name="EDIFFG">      0.00000100</i>
   <i type="int" name="NFREE">     0</i>
   <i name="POTIM">      0.50000000</i>
   <i name="SMASS">     -3.00000000</i>
   <i name="SCALEE">      1.00000000</i>
  </separator>
  <separator name="ionic md" >
   <i name="TEBEG">      0.00010000</i>
   <i name="TEEND">      0.00010000</i>
   <i type="int" name="NBLOCK">     1</i>
   <i type="int" name="KBLOCK">     1</i>
   <i type="int" name="NPACO">   256</i>
   <i name="APACO">     16.00000000</i>
  </separator>
  <separator name="symmetry" >
   <i type="int" name="ISYM">     2</i>
   <i name="SYMPREC">      0.00001000</i>
  </separator>
  <separator name="dos" >
   <i type="int" name="LORBIT">     0</i>
   <v name="RWIGS">     -1.00000000     -1.00000000     -1.00000000</v>
   <i type="int" name="NEDOS">   301</i>
   <i name="EMIN">     10.00000000</i>
   <i name="EMAX">    -10.00000000</i>
   <i name="EFERMI">      0.00000000</i>
  </separator>
  <separator name="writing" >
   <i type="int" name="NWRITE">     2</i>
   <i type="logical" name="LWAVE"> F  </i>
   <i type="logical" name="LDOWNSAMPLE"> F  </i>
   <i type="logical" name="LCHARG"> F  </i>
   <i type="logical" name="LPARD"> F  </i>
   <i type="logical" name="LVTOT"> F  </i>
   <i type="logical" name="LVHAR"> F  </i>
   <i type="logical" name="LELF"> F  </i>
   <i type="logical" name="LOPTICS"> F  </i>
   <v name="STM">      0.00000000      0.00000000      0.00000000      0.00000000      0.00000000      0.00000000      0.00000000</v>
  </separator>
  <separator name="performance" >
   <i type="int" name="NPAR">     4</i>
   <i type="int" name="NSIM">     4</i>
   <i type="int" name="NBLK">    -1</i>
   <i type="logical" name="LPLANE"> T  </i>
   <i type="logical" name="LSCALAPACK"> T  </i>
   <i type="logical" name="LSCAAWARE"> F  </i>
   <i type="logical" name="LSCALU"> F  </i>
   <i type="logical" name="LASYNC"> F  </i>
   <i type="logical" name="LORBITALREAL"> F  </i>
  </separator>
  <separator name="miscellaneous" >
   <i type="int" name="IDIOT">     3</i>
   <i type="int" name="PHON_NSTRUCT">    -1</i>
   <i type="logical" name="LMUSIC"> F  </i>
   <v name="POMASS">    232.03900000    208.98000000    195.08000000</v>
   <v name="DARWINR">      0.00000000      0.00000000      0.00000000</v>
   <v name="DARWINV">      1.00000000      1.00000000      1.00000000</v>
   <i type="logical" name="LCORR"> T  </i>
  </separator>
  <i type="logical" name="GGA_COMPAT"> T  </i>
  <i type="logical" name="LBERRY"> F  </i>
  <i type="int" name="ICORELEVEL">     0</i>
  <i type="logical" name="LDAU"> F  </i>
  <i type="int" name="I_CONSTRAINED_M">     0</i>
  <separator name="electronic exchange-correlation" >
   <i type="string" name="GGA">PS</i>
   <i type="int" name="VOSKOWN">     0</i>
   <i type="logical" name="LHFCALC"> F  </i>
   <i type="string" name="PRECFOCK"></i>
   <i type="logical" name="LSYMGRAD"> F  </i>
   <i type="logical" name="LHFONE"> F  </i>
   <i type="logical" name="LRHFCALC"> F  </i>
   <i type="logical" name="LTHOMAS"> F  </i>
   <i type="logical" name="LMODELHF"> F  </i>
   <i type="logical" name="LFOCKACE"> F  </i>
   <i name="ENCUT4O">     -1.00000000</i>
   <i type="int" name="EXXOEP">     0</i>
   <i type="int" name="FOURORBIT">     0</i>
   <i name="AEXX">      0.00000000</i>
   <i name="HFALPHA">      0.00000000</i>
   <i name="MCALPHA">      0.00000000</i>
   <i name="ALDAX">      1.00000000</i>
   <i name="AGGAX">      1.00000000</i>
   <i name="ALDAC">      1.00000000</i>
   <i name="AGGAC">      1.00000000</i>
   <i type="int" name="NKREDX">     1</i>
   <i type="int" name="NKREDY">     1</i>
   <i type="int" name="NKREDZ">     1</i>
   <i type="logical" name="SHIFTRED"> F  </i>
   <i type="logical" name="ODDONLY"> F  </i>
   <i type="logical" name="EVENONLY"> F  </i>
   <i type="int" name="LMAXFOCK">     0</i>
   <i type="int" name="NMAXFOCKAE">     0</i>
   <i type="logical" name="LFOCKAEDFT"> F  </i>
   <i name="HFSCREEN">      0.00000000</i>
   <i name="HFSCREENC">      0.00000000</i>
   <i type="int" name="NBANDSGWLOW">     0</i>
  </separator>
  <separator name="vdW DFT" >
   <i type="logical" name="LUSE_VDW"> F  </i>
   <i name="Zab_VDW">     -0.84910000</i>
   <i name="PARAM1">      0.12340000</i>
   <i name="PARAM2">      1.00000000</i>
   <i name="PARAM3">      0.00000000</i>
  </separator>
  <separator name="model GW" >
   <i type="int" name="MODEL_GW">     0</i>
   <i name="MODEL_EPS0">     18.31862752</i>
   <i name="MODEL_ALPHA">      1.00000000</i>
  </separator>
  <separator name="linear response parameters" >
   <i type="logical" name="LEPSILON"> F  </i>
   <i type="logical" name="LRPA"> F  </i>
   <i type="logical" name="LNABLA"> F  </i>
   <i type="logical" name="LVEL"> F  </i>
   <i type="int" name="KINTER">     0</i>
   <i name="CSHIFT">      0.10000000</i>
   <i name="OMEGAMAX">     -1.00000000</i>
   <i name="DEG_THRESHOLD">      0.00200000</i>
   <i name="RTIME">     -0.10000000</i>
   <i name="WPLASMAI">      0.00000000</i>
   <v name="DFIELD">      0.00000000      0.00000000      0.00000000</v>
   <v name="WPLASMA">      0.00000000      0.00000000      0.00000000      0.00000000      0.00000000      0.00000000      0.00000000      0.00000000      0.00000000</v>
  </separator>
  <separator name="orbital magnetization" >
   <i type="logical" name="NUCIND"> F  </i>
   <v name="MAGPOS">      0.00000000      0.00000000      0.00000000</v>
   <i type="logical" name="LNICSALL"> T  </i>
   <i type="logical" name="ORBITALMAG"> F  </i>
   <i type="logical" name="LMAGBLOCH"> F  </i>
   <i type="logical" name="LCHIMAG"> F  </i>
   <i type="logical" name="LGAUGE"> T  </i>
   <i type="int" name="MAGATOM">     0</i>
   <v name="MAGDIPOL">      0.00000000      0.00000000      0.00000000</v>
   <v name="AVECCONST">      0.00000000      0.00000000      0.00000000</v>
  </separator>
  <separator name="response functions" >
   <i type="logical" name="LFINITE_TEMPERATURE"> F  </i>
   <i type="logical" name="LADDER"> F  </i>
   <i type="logical" name="LRPAFORCE"> F  </i>
   <i type="logical" name="LFXC"> F  </i>
   <i type="logical" name="LHARTREE"> T  </i>
   <i type="int" name="IBSE">     0</i>
   <v type="int" name="KPOINT">    -1     0     0     0</v>
   <i type="logical" name="LTCTC"> F  </i>
   <i type="logical" name="LTCTE"> F  </i>
   <i type="logical" name="LTETE"> F  </i>
   <i type="logical" name="LTRIPLET"> F  </i>
   <i type="logical" name="LFXCEPS"> F  </i>
   <i type="logical" name="LFXHEG"> F  </i>
   <i type="int" name="NATURALO">     2</i>
   <i type="logical" name="L2ORDER"> F  </i>
   <i type="logical" name="LDMP1"> F  </i>
   <i type="logical" name="LMP2LT"> F  </i>
   <i type="logical" name="LSMP2LT"> F  </i>
   <i type="logical" name="LUSEW"> F  </i>
   <i name="ENCUTGW">     -2.00000000</i>
   <i name="ENCUTGWSOFT">     -2.00000000</i>
   <i name="ENCUTLF">     -1.00000000</i>
   <i type="int" name="LMAXMP2">    -1</i>
   <i name="SCISSOR">      0.00000000</i>
   <i type="int" name="NOMEGA">     0</i>
   <i type="int" name="NOMEGAR">     0</i>
   <i type="int" name="NBANDSGW">    -1</i>
   <i type="int" name="NBANDSO">    -1</i>
   <i type="int" name="NBANDSV">    -1</i>
   <i type="int" name="NELM">     1</i>
   <i type="int" name="NELMHF">     1</i>
   <i type="int" name="DIM">     3</i>
   <i type="int" name="IESPILON">     4</i>
   <i type="int" name="ANTIRES">     0</i>
   <i name="OMEGAMAX">    -30.00000000</i>
   <i name="OMEGAMIN">    -30.00000000</i>
   <i name="OMEGATL">   -200.00000000</i>
   <i type="int" name="OMEGAGRID">   145</i>
   <i name="CSHIFT">     -0.10000000</i>
   <i type="logical" name="LSELFENERGY"> F  </i>
   <i type="logical" name="LSPECTRAL"> F  </i>
   <i type="logical" name="LSPECTRALGW"> F  </i>
   <i type="logical" name="LSINGLES"> F  </i>
   <i type="logical" name="LFERMIGW"> F  </i>
   <i type="logical" name="ODDONLYGW"> F  </i>
   <i type="logical" name="EVENONLYGW"> F  </i>
   <i type="int" name="NKREDLFX">     1</i>
   <i type="int" name="NKREDLFY">     1</i>
   <i type="int" name="NKREDLFZ">     1</i>
   <i type="int" name="MAXMEM">  2800</i>
   <i type="int" name="TELESCOPE">     0</i>
   <i type="int" name="NTAUPAR">     1</i>
   <i type="int" name="NOMEGAPAR">    -1</i>
   <i name="LAMBDA">      1.00000000</i>
  </separator>
  <separator name="External order field" >
   <i name="OFIELD_KAPPA">      0.00000000</i>
   <v name="OFIELD_K">      0.00000000      0.00000000      0.00000000</v>
   <i name="OFIELD_Q6_NEAR">      0.00000000</i>
   <i name="OFIELD_Q6_FAR">      0.00000000</i>
   <i name="OFIELD_A">      0.00000000</i>
  </separator>
 </parameters>
 <atominfo>
  <atoms>       3 </atoms>
  <types>       3 </types>
  <array name="atoms" >
   <dimension dim="1">ion</dimension>
   <field type="string">element</field>
   <field type="int">atomtype</field>
   <set>
    <rc><c>Th</c><c>   1</c></rc>
    <rc><c>Bi</c><c>   2</c></rc>
    <rc><c>Pt</c><c>   3</c></rc>
   </set>
  </array>
  <array name="atomtypes" >
   <dimension dim="1">type</dimension>
   <field type="int">atomspertype</field>
   <field type="string">element</field>
   <field>mass</field>
   <field>valence</field>
   <field type="string">pseudopotential</field>
   <set>
    <rc><c>   1</c><c>Th</c><c>    232.03900000</c><c>     12.00000000</c><c>  PAW_PBE Th 07Sep2000                  </c></rc>
    <rc><c>   1</c><c>Bi</c><c>    208.98000000</c><c>     15.00000000</c><c>  PAW_PBE Bi_d 06Sep2000                </c></rc>
    <rc><c>   1</c><c>Pt</c><c>    195.08000000</c><c>     10.00000000</c><c>  PAW_PBE Pt 04Feb2005                  </c></rc>
   </set>
  </array>
 </atominfo>
 <structure name="initialpos" >
  <crystal>
   <varray name="basis" >
    <v>       0.00000000       3.57775815       3.57775815 </v>
    <v>       3.57775815       0.00000000       3.57775815 </v>
    <v>       3.57775815       3.57775815       0.00000000 </v>
   </varray>
   <i name="volume">     91.59313761 </i>
   <varray name="rec_basis" >
    <v>      -0.13975232       0.13975232       0.13975232 </v>
    <v>       0.13975232      -0.13975232       0.13975232 </v>
    <v>       0.13975232       0.13975232      -0.13975232 </v>
   </varray>
  </crystal>
  <varray name="positions" >
   <v>       0.25000000       0.25000000       0.25000000 </v>
   <v>       0.75000000       0.75000000       0.75000000 </v>
   <v>       0.00000000       0.00000000       0.00000000 </v>
  </varray>
 </structure>
 <calculation>
  <scstep>
   <time name="dav">    1.68    1.71</time>
   <time name="total">    1.87    1.96</time>
   <energy>
    <i name="alphaZ">    187.58570159 </i>
    <i name="ewald">  -2994.10409134 </i>
    <i name="hartreedc">   -816.13018512 </i>
    <i name="XCdc">     66.98956239 </i>
    <i name="pawpsdc">   3147.30828992 </i>
    <i name="pawaedc">  -3070.62761383 </i>
    <i name="eentropy">     -0.00017607 </i>
    <i name="bandstr">    239.85454673 </i>
    <i name="atom">   3674.67342263 </i>
    <i name="e_fr_energy">    435.54945691 </i>
    <i name="e_wo_entrp">    435.54963297 </i>
    <i name="e_0_energy">    435.54954494 </i>
   </energy>
  </scstep>
  <scstep>
   <time name="dav">    1.77    1.79</time>
   <time name="total">    1.77    1.80</time>
   <energy>
    <i name="e_fr_energy">     43.85337624 </i>
    <i name="e_wo_entrp">     43.85365853 </i>
    <i name="e_0_energy">     43.85351738 </i>
   </energy>
  </scstep>
  <scstep>
   <time name="dav">    2.15    2.18</time>
   <time name="total">    2.15    2.18</time>
   <energy>
    <i name="e_fr_energy">    -18.44194500 </i>
    <i name="e_wo_entrp">    -18.44179416 </i>
    <i name="e_0_energy">    -18.44186958 </i>
   </energy>
  </scstep>
  <scstep>
   <time name="dav">    2.67    2.69</time>
   <time name="total">    2.67    2.70</time>
   <energy>
    <i name="e_fr_energy">    -22.57602762 </i>
    <i name="e_wo_entrp">    -22.57583362 </i>
    <i name="e_0_energy">    -22.57593062 </i>
   </energy>
  </scstep>
  <scstep>
   <time name="dav">    2.15    2.17</time>
   <time name="total">    2.62    2.64</time>
   <energy>
    <i name="e_fr_energy">    -22.70313557 </i>
    <i name="e_wo_entrp">    -22.70294568 </i>
    <i name="e_0_energy">    -22.70304063 </i>
   </energy>
  </scstep>
  <scstep>
   <time name="dav">    2.02    2.02</time>
   <time name="total">    2.61    2.65</time>
   <energy>
    <i name="e_fr_energy">    -21.62421775 </i>
    <i name="e_wo_entrp">    -21.62395596 </i>
    <i name="e_0_energy">    -21.62408685 </i>
   </energy>
  </scstep>
  <scstep>
   <time name="dav">    2.28    2.28</time>
   <time name="total">    2.83    2.87</time>
   <energy>
    <i name="e_fr_energy">    -21.52102761 </i>
    <i name="e_wo_entrp">    -21.52077304 </i>
    <i name="e_0_energy">    -21.52090032 </i>
   </energy>
  </scstep>
  <scstep>
   <time name="dav">    2.09    2.10</time>
   <time name="total">    2.65    2.69</time>
   <energy>
    <i name="e_fr_energy">    -21.45326914 </i>
    <i name="e_wo_entrp">    -21.45288215 </i>
    <i name="e_0_energy">    -21.45307565 </i>
   </energy>
  </scstep>
  <scstep>
   <time name="dav">    2.57    2.58</time>
   <time name="total">    3.13    3.19</time>
   <energy>
    <i name="e_fr_energy">    -21.45327729 </i>
    <i name="e_wo_entrp">    -21.45278811 </i>
    <i name="e_0_energy">    -21.45303270 </i>
   </energy>
  </scstep>
  <scstep>
   <time name="dav">    2.18    2.18</time>
   <time name="total">    2.73    2.78</time>
   <energy>
    <i name="e_fr_energy">    -21.44749366 </i>
    <i name="e_wo_entrp">    -21.44692974 </i>
    <i name="e_0_energy">    -21.44721170 </i>
   </energy>
  </scstep>
  <scstep>
   <time name="dav">    2.23    2.23</time>
   <time name="total">    2.79    2.84</time>
   <energy>
    <i name="e_fr_energy">    -21.44435244 </i>
    <i name="e_wo_entrp">    -21.44384498 </i>
    <i name="e_0_energy">    -21.44409871 </i>
   </energy>
  </scstep>
  <scstep>
   <time name="dav">    2.54    2.54</time>
   <time name="total">    3.10    3.14</time>
   <energy>
    <i name="e_fr_energy">    -21.44430750 </i>
    <i name="e_wo_entrp">    -21.44379465 </i>
    <i name="e_0_energy">    -21.44405107 </i>
   </energy>
  </scstep>
  <scstep>
   <time name="dav">    2.13    2.13</time>
   <time name="total">    2.68    2.75</time>
   <energy>
    <i name="e_fr_energy">    -21.44431431 </i>
    <i name="e_wo_entrp">    -21.44380354 </i>
    <i name="e_0_energy">    -21.44405893 </i>
   </energy>
  </scstep>
  <scstep>
   <time name="dav">    2.20    2.21</time>
   <time name="total">    2.78    2.83</time>
   <energy>
    <i name="e_fr_energy">    -21.44430681 </i>
    <i name="e_wo_entrp">    -21.44379145 </i>
    <i name="e_0_energy">    -21.44404913 </i>
   </energy>
  </scstep>
  <scstep>
   <time name="dav">    2.33    2.33</time>
   <time name="total">    2.88    2.92</time>
   <energy>
    <i name="e_fr_energy">    -21.44430647 </i>
    <i name="e_wo_entrp">    -21.44378954 </i>
    <i name="e_0_energy">    -21.44404800 </i>
   </energy>
  </scstep>
  <scstep>
   <time name="dav">    2.03    2.03</time>
   <time name="total">    2.20    2.24</time>
   <energy>
    <i name="alphaZ">    187.58570159 </i>
    <i name="ewald">  -2994.10409134 </i>
    <i name="hartreedc">   -790.81098830 </i>
    <i name="XCdc">     66.30224374 </i>
    <i name="pawpsdc">   3642.53947663 </i>
    <i name="pawaedc">  -3573.25693600 </i>
    <i name="eentropy">     -0.00051666 </i>
    <i name="bandstr">   -234.37261885 </i>
    <i name="atom">   3674.67342263 </i>
    <i name="e_fr_energy">    -21.44430657 </i>
    <i name="e_wo_entrp">    -21.44378991 </i>
    <i name="e_0_energy">    -21.44404824 </i>
   </energy>
  </scstep>
  <structure>
   <crystal>
    <varray name="basis" >
     <v>       0.00000000       3.57775815       3.57775815 </v>
     <v>       3.57775815       0.00000000       3.57775815 </v>
     <v>       3.57775815       3.57775815       0.00000000 </v>
    </varray>
    <i name="volume">     91.59313761 </i>
    <varray name="rec_basis" >
     <v>      -0.13975232       0.13975232       0.13975232 </v>
     <v>       0.13975232      -0.13975232       0.13975232 </v>
     <v>       0.13975232       0.13975232      -0.13975232 </v>
    </varray>
   </crystal>
   <varray name="positions" >
    <v>       0.25000000       0.25000000       0.25000000 </v>
    <v>       0.75000000       0.75000000       0.75000000 </v>
    <v>       0.00000000       0.00000000       0.00000000 </v>
   </varray>
  </structure>
  <varray name="forces" >
   <v>      -0.00000000      -0.00000000       0.00000000 </v>
   <v>      -0.00000000      -0.00000000      -0.00000000 </v>
   <v>       0.00000000       0.00000000      -0.00000000 </v>
  </varray>
  <varray name="stress" >
   <v>    -102.43424229      -0.00000000       0.00000000 </v>
   <v>      -0.00000000    -102.43424229       0.00000000 </v>
   <v>       0.00000000      -0.00000000    -102.43424229 </v>
  </varray>
  <energy>
   <i name="e_fr_energy">    -21.44430657 </i>
   <i name="e_wo_entrp">    -21.44404824 </i>
   <i name="e_0_energy">     -0.00051666 </i>
  </energy>
  <time name="totalsc">   46.27   47.58</time>
  <eigenvalues>
   <array>
    <dimension dim="1">band</dimension>
    <dimension dim="2">kpoint</dimension>
    <dimension dim="3">spin</dimension>
    <field>eigene</field>
    <field>occ</field>
    <set>
     <set comment="spin 1">
      <set comment="kpoint 1">
       <r>  -33.4644    1.0000 </r>
       <r>  -15.7777    1.0000 </r>
       <r>  -15.7777    1.0000 </r>
       <r>  -15.7526    1.0000 </r>
       <r>  -15.7526    1.0000 </r>
       <r>  -15.7526    1.0000 </r>
       <r>  -11.2898    1.0000 </r>
       <r>  -11.2898    1.0000 </r>
       <r>  -11.2898    1.0000 </r>
       <r>   -4.5958    1.0000 </r>
       <r>    3.2081    1.0000 </r>
       <r>    3.2081    1.0000 </r>
       <r>    3.2081    1.0000 </r>
       <r>    3.5064    1.0000 </r>
       <r>    3.5064    1.0000 </r>
       <r>    4.7039    1.0000 </r>
       <r>    6.1184    1.0000 </r>
       <r>    6.1184    1.0000 </r>
       <r>    6.1184    1.0000 </r>
       <r>    7.2766    0.0000 </r>
       <r>    7.2766    0.0000 </r>
       <r>    7.2766    0.0000 </r>
       <r>    7.9385    0.0000 </r>
       <r>    8.6311    0.0000 </r>
      </set>
      <set comment="kpoint 2">
       <r>  -33.4642    1.0000 </r>
       <r>  -15.7781    1.0000 </r>
       <r>  -15.7781    1.0000 </r>
       <r>  -15.7527    1.0000 </r>
       <r>  -15.7525    1.0000 </r>
       <r>  -15.7525    1.0000 </r>
       <r>  -11.2978    1.0000 </r>
       <r>  -11.2890    1.0000 </r>
       <r>  -11.2890    1.0000 </r>
       <r>   -4.5556    1.0000 </r>
       <r>    3.0605    1.0000 </r>
       <r>    3.1372    1.0000 </r>
       <r>    3.1372    1.0000 </r>
       <r>    3.5734    1.0000 </r>
       <r>    3.5734    1.0000 </r>
       <r>    4.6333    1.0000 </r>
       <r>    6.0414    1.0000 </r>
       <r>    6.0414    1.0000 </r>
       <r>    6.1405    1.0000 </r>
       <r>    7.3491    0.0000 </r>
       <r>    7.3594    0.0000 </r>
       <r>    7.3594    0.0000 </r>
       <r>    8.1034    0.0000 </r>
       <r>    8.6396    0.0000 </r>
      </set>
      <set comment="kpoint 3">
       <r>  -33.4639    1.0000 </r>
       <r>  -15.7790    1.0000 </r>
       <r>  -15.7790    1.0000 </r>
       <r>  -15.7528    1.0000 </r>
       <r>  -15.7523    1.0000 </r>
       <r>  -15.7523    1.0000 </r>
       <r>  -11.3197    1.0000 </r>
       <r>  -11.2867    1.0000 </r>
       <r>  -11.2867    1.0000 </r>
       <r>   -4.4437    1.0000 </r>
       <r>    2.7175    1.0000 </r>
       <r>    3.0204    1.0000 </r>
       <r>    3.0204    1.0000 </r>
       <r>    3.6712    1.0000 </r>
       <r>    3.6712    1.0000 </r>
       <r>    4.4178    1.0000 </r>
       <r>    5.8776    1.0000 </r>
       <r>    5.8776    1.0000 </r>
       <r>    6.1959    1.0000 </r>
       <r>    7.5532    0.0000 </r>
       <r>    7.5532    0.0000 </r>
       <r>    7.6580    0.0000 </r>
       <r>    8.3833    0.0000 </r>
       <r>    8.6553    0.0000 </r>
      </set>
      <set comment="kpoint 4">
       <r>  -33.4634    1.0000 </r>
       <r>  -15.7804    1.0000 </r>
       <r>  -15.7804    1.0000 </r>
       <r>  -15.7531    1.0000 </r>
       <r>  -15.7519    1.0000 </r>
       <r>  -15.7519    1.0000 </r>
       <r>  -11.3494    1.0000 </r>
       <r>  -11.2834    1.0000 </r>
       <r>  -11.2834    1.0000 </r>
       <r>   -4.2843    1.0000 </r>
       <r>    2.3276    1.0000 </r>
       <r>    2.9255    1.0000 </r>
       <r>    2.9255    1.0000 </r>
       <r>    3.7179    1.0000 </r>
       <r>    3.7179    1.0000 </r>
       <r>    4.1382    1.0000 </r>
       <r>    5.7241    1.0000 </r>
       <r>    5.7241    1.0000 </r>
       <r>    6.2804    1.0000 </r>
       <r>    7.7826    0.0000 </r>
       <r>    7.7826    0.0000 </r>
       <r>    8.1185    0.0000 </r>
       <r>    8.5847    0.0000 </r>
       <r>    8.6707    0.0000 </r>
      </set>
      <set comment="kpoint 5">
       <r>  -33.4628    1.0000 </r>
       <r>  -15.7819    1.0000 </r>
       <r>  -15.7819    1.0000 </r>
       <r>  -15.7534    1.0000 </r>
       <r>  -15.7516    1.0000 </r>
       <r>  -15.7516    1.0000 </r>
       <r>  -11.3797    1.0000 </r>
       <r>  -11.2800    1.0000 </r>
       <r>  -11.2800    1.0000 </r>
       <r>   -4.1126    1.0000 </r>
       <r>    1.9801    1.0000 </r>
       <r>    2.8688    1.0000 </r>
       <r>    2.8688    1.0000 </r>
       <r>    3.6959    1.0000 </r>
       <r>    3.6959    1.0000 </r>
       <r>    3.8937    1.0000 </r>
       <r>    5.6266    1.0000 </r>
       <r>    5.6266    1.0000 </r>
       <r>    6.4011    1.0000 </r>
       <r>    7.9964    0.0000 </r>
       <r>    7.9964    0.0000 </r>
       <r>    8.5087    0.0000 </r>
       <r>    8.6361    0.0000 </r>
       <r>    8.6366    0.0000 </r>
      </set>
      <set comment="kpoint 6">
       <r>  -33.4624    1.0000 </r>
       <r>  -15.7832    1.0000 </r>
       <r>  -15.7832    1.0000 </r>
       <r>  -15.7537    1.0000 </r>
       <r>  -15.7512    1.0000 </r>
       <r>  -15.7512    1.0000 </r>
       <r>  -11.4040    1.0000 </r>
       <r>  -11.2771    1.0000 </r>
       <r>  -11.2771    1.0000 </r>
       <r>   -3.9684    1.0000 </r>
       <r>    1.7247    1.0000 </r>
       <r>    2.8475    1.0000 </r>
       <r>    2.8475    1.0000 </r>
       <r>    3.6325    1.0000 </r>
       <r>    3.6325    1.0000 </r>
       <r>    3.7288    1.0000 </r>
       <r>    5.5830    1.0000 </r>
       <r>    5.5830    1.0000 </r>
       <r>    6.5500    1.0000 </r>
       <r>    8.1534    0.0000 </r>
       <r>    8.1534    0.0000 </r>
       <r>    8.6006    0.0000 </r>
       <r>    8.6011    0.0000 </r>
       <r>    8.6457    0.0000 </r>
      </set>
      <set comment="kpoint 7">
       <r>  -33.4621    1.0000 </r>
       <r>  -15.7839    1.0000 </r>
       <r>  -15.7839    1.0000 </r>
       <r>  -15.7539    1.0000 </r>
       <r>  -15.7510    1.0000 </r>
       <r>  -15.7510    1.0000 </r>
       <r>  -11.4173    1.0000 </r>
       <r>  -11.2755    1.0000 </r>
       <r>  -11.2755    1.0000 </r>
       <r>   -3.8861    1.0000 </r>
       <r>    1.5901    1.0000 </r>
       <r>    2.8460    1.0000 </r>
       <r>    2.8460    1.0000 </r>
       <r>    3.5799    1.0000 </r>
       <r>    3.5799    1.0000 </r>
       <r>    3.6493    1.0000 </r>
       <r>    5.5698    1.0000 </r>
       <r>    5.5698    1.0000 </r>
       <r>    6.6728    1.0000 </r>
       <r>    8.2340    0.0000 </r>
       <r>    8.2340    0.0000 </r>
       <r>    8.5782    0.0000 </r>
       <r>    8.5782    0.0000 </r>
       <r>    8.5993    0.0000 </r>
      </set>
      <set comment="kpoint 8">
       <r>  -33.4642    1.0000 </r>
       <r>  -15.7787    1.0000 </r>
       <r>  -15.7776    1.0000 </r>
       <r>  -15.7528    1.0000 </r>
       <r>  -15.7524    1.0000 </r>
       <r>  -15.7524    1.0000 </r>
       <r>  -11.2958    1.0000 </r>
       <r>  -11.2911    1.0000 </r>
       <r>  -11.2911    1.0000 </r>
       <r>   -4.5433    1.0000 </r>
       <r>    2.8817    1.0000 </r>
       <r>    3.2221    1.0000 </r>
       <r>    3.2221    1.0000 </r>
       <r>    3.5215    1.0000 </r>
       <r>    3.5909    1.0000 </r>
       <r>    4.6344    1.0000 </r>
       <r>    5.9374    1.0000 </r>
       <r>    5.9374    1.0000 </r>
       <r>    6.3330    1.0000 </r>
       <r>    7.1163    0.0000 </r>
       <r>    7.4953    0.0000 </r>
       <r>    7.4953    0.0000 </r>
       <r>    8.1327    0.0000 </r>
       <r>    8.6273    0.0000 </r>
      </set>
      <set comment="kpoint 9">
       <r>  -33.4639    1.0000 </r>
       <r>  -15.7798    1.0000 </r>
       <r>  -15.7778    1.0000 </r>
       <r>  -15.7529    1.0000 </r>
       <r>  -15.7523    1.0000 </r>
       <r>  -15.7522    1.0000 </r>
       <r>  -11.3120    1.0000 </r>
       <r>  -11.2914    1.0000 </r>
       <r>  -11.2883    1.0000 </r>
       <r>   -4.4585    1.0000 </r>
       <r>    2.6108    1.0000 </r>
       <r>    3.1277    1.0000 </r>
       <r>    3.1740    1.0000 </r>
       <r>    3.5857    1.0000 </r>
       <r>    3.6608    1.0000 </r>
       <r>    4.5066    1.0000 </r>
       <r>    5.7546    1.0000 </r>
       <r>    5.7797    1.0000 </r>
       <r>    6.4979    1.0000 </r>
       <r>    7.1310    0.0000 </r>
       <r>    7.6931    0.0000 </r>
       <r>    7.7322    0.0000 </r>
       <r>    8.3421    0.0000 </r>
       <r>    8.6259    0.0000 </r>
      </set>
      <set comment="kpoint 10">
       <r>  -33.4635    1.0000 </r>
       <r>  -15.7812    1.0000 </r>
       <r>  -15.7788    1.0000 </r>
       <r>  -15.7531    1.0000 </r>
       <r>  -15.7520    1.0000 </r>
       <r>  -15.7519    1.0000 </r>
       <r>  -11.3389    1.0000 </r>
       <r>  -11.2898    1.0000 </r>
       <r>  -11.2843    1.0000 </r>
       <r>   -4.3199    1.0000 </r>
       <r>    2.3155    1.0000 </r>
       <r>    2.9621    1.0000 </r>
       <r>    3.0875    1.0000 </r>
       <r>    3.6482    1.0000 </r>
       <r>    3.7354    1.0000 </r>
       <r>    4.2644    1.0000 </r>
       <r>    5.5771    1.0000 </r>
       <r>    5.6457    1.0000 </r>
       <r>    6.5672    1.0000 </r>
       <r>    7.4130    0.0000 </r>
       <r>    7.8921    0.0000 </r>
       <r>    8.0577    0.0000 </r>
       <r>    8.5450    0.0000 </r>
       <r>    8.6301    0.0000 </r>
      </set>
      <set comment="kpoint 11">
       <r>  -33.4629    1.0000 </r>
       <r>  -15.7824    1.0000 </r>
       <r>  -15.7802    1.0000 </r>
       <r>  -15.7533    1.0000 </r>
       <r>  -15.7517    1.0000 </r>
       <r>  -15.7515    1.0000 </r>
       <r>  -11.3686    1.0000 </r>
       <r>  -11.2868    1.0000 </r>
       <r>  -11.2812    1.0000 </r>
       <r>   -4.1589    1.0000 </r>
       <r>    2.0316    1.0000 </r>
       <r>    2.8449    1.0000 </r>
       <r>    3.0148    1.0000 </r>
       <r>    3.6482    1.0000 </r>
       <r>    3.7507    1.0000 </r>
       <r>    4.0053    1.0000 </r>
       <r>    5.4727    1.0000 </r>
       <r>    5.5694    1.0000 </r>
       <r>    6.5889    1.0000 </r>
       <r>    7.7778    0.0000 </r>
       <r>    8.0647    0.0000 </r>
       <r>    8.3963    0.0000 </r>
       <r>    8.6190    0.0000 </r>
       <r>    8.6419    0.0000 </r>
      </set>
      <set comment="kpoint 12">
       <r>  -33.4624    1.0000 </r>
       <r>  -15.7833    1.0000 </r>
       <r>  -15.7817    1.0000 </r>
       <r>  -15.7536    1.0000 </r>
       <r>  -15.7514    1.0000 </r>
       <r>  -15.7512    1.0000 </r>
       <r>  -11.3944    1.0000 </r>
       <r>  -11.2829    1.0000 </r>
       <r>  -11.2795    1.0000 </r>
       <r>   -4.0121    1.0000 </r>
       <r>    1.8029    1.0000 </r>
       <r>    2.7967    1.0000 </r>
       <r>    2.9575    1.0000 </r>
       <r>    3.6074    1.0000 </r>
       <r>    3.7050    1.0000 </r>
       <r>    3.8057    1.0000 </r>
       <r>    5.4301    1.0000 </r>
       <r>    5.5418    1.0000 </r>
       <r>    6.6545    1.0000 </r>
       <r>    8.0455    0.0000 </r>
       <r>    8.1904    0.0000 </r>
       <r>    8.5554    0.0000 </r>
       <r>    8.5991    0.0000 </r>
       <r>    8.6668    0.0000 </r>
      </set>
      <set comment="kpoint 13">
       <r>  -33.4621    1.0000 </r>
       <r>  -15.7836    1.0000 </r>
       <r>  -15.7830    1.0000 </r>
       <r>  -15.7537    1.0000 </r>
       <r>  -15.7512    1.0000 </r>
       <r>  -15.7510    1.0000 </r>
       <r>  -11.4109    1.0000 </r>
       <r>  -11.2796    1.0000 </r>
       <r>  -11.2791    1.0000 </r>
       <r>   -3.9138    1.0000 </r>
       <r>    1.6612    1.0000 </r>
       <r>    2.8083    1.0000 </r>
       <r>    2.9008    1.0000 </r>
       <r>    3.5820    1.0000 </r>
       <r>    3.6383    1.0000 </r>
       <r>    3.6852    1.0000 </r>
       <r>    5.4194    1.0000 </r>
       <r>    5.5369    1.0000 </r>
       <r>    6.7533    1.0000 </r>
       <r>    8.1722    0.0000 </r>
       <r>    8.2579    0.0000 </r>
       <r>    8.5505    0.0000 </r>
       <r>    8.5740    0.0000 </r>
       <r>    8.6566    0.0000 </r>
      </set>
      <set comment="kpoint 14">
       <r>  -33.4620    1.0000 </r>
       <r>  -15.7838    1.0000 </r>
       <r>  -15.7833    1.0000 </r>
       <r>  -15.7538    1.0000 </r>
       <r>  -15.7511    1.0000 </r>
       <r>  -15.7510    1.0000 </r>
       <r>  -11.4152    1.0000 </r>
       <r>  -11.2816    1.0000 </r>
       <r>  -11.2763    1.0000 </r>
       <r>   -3.8869    1.0000 </r>
       <r>    1.6239    1.0000 </r>
       <r>    2.8375    1.0000 </r>
       <r>    2.8591    1.0000 </r>
       <r>    3.5853    1.0000 </r>
       <r>    3.6094    1.0000 </r>
       <r>    3.6541    1.0000 </r>
       <r>    5.4114    1.0000 </r>
       <r>    5.5402    1.0000 </r>
       <r>    6.7985    1.0000 </r>
       <r>    8.2014    0.0000 </r>
       <r>    8.2567    0.0000 </r>
       <r>    8.5558    0.0000 </r>
       <r>    8.5626    0.0000 </r>
       <r>    8.6332    0.0000 </r>
      </set>
      <set comment="kpoint 15">
       <r>  -33.4622    1.0000 </r>
       <r>  -15.7839    1.0000 </r>
       <r>  -15.7824    1.0000 </r>
       <r>  -15.7537    1.0000 </r>
       <r>  -15.7512    1.0000 </r>
       <r>  -15.7511    1.0000 </r>
       <r>  -11.4065    1.0000 </r>
       <r>  -11.2847    1.0000 </r>
       <r>  -11.2750    1.0000 </r>
       <r>   -3.9378    1.0000 </r>
       <r>    1.6968    1.0000 </r>
       <r>    2.7837    1.0000 </r>
       <r>    2.9261    1.0000 </r>
       <r>    3.5722    1.0000 </r>
       <r>    3.6809    1.0000 </r>
       <r>    3.7137    1.0000 </r>
       <r>    5.3900    1.0000 </r>
       <r>    5.5570    1.0000 </r>
       <r>    6.7381    1.0000 </r>
       <r>    8.1722    0.0000 </r>
       <r>    8.2053    0.0000 </r>
       <r>    8.5659    0.0000 </r>
       <r>    8.5729    0.0000 </r>
       <r>    8.6695    0.0000 </r>
      </set>
      <set comment="kpoint 16">
       <r>  -33.4626    1.0000 </r>
       <r>  -15.7833    1.0000 </r>
       <r>  -15.7811    1.0000 </r>
       <r>  -15.7534    1.0000 </r>
       <r>  -15.7514    1.0000 </r>
       <r>  -15.7514    1.0000 </r>
       <r>  -11.3864    1.0000 </r>
       <r>  -11.2884    1.0000 </r>
       <r>  -11.2756    1.0000 </r>
       <r>   -4.0547    1.0000 </r>
       <r>    1.8753    1.0000 </r>
       <r>    2.7631    1.0000 </r>
       <r>    2.9993    1.0000 </r>
       <r>    3.6019    1.0000 </r>
       <r>    3.7565    1.0000 </r>
       <r>    3.8579    1.0000 </r>
       <r>    5.3605    1.0000 </r>
       <r>    5.6078    1.0000 </r>
       <r>    6.6489    1.0000 </r>
       <r>    8.0024    0.0000 </r>
       <r>    8.1219    0.0000 </r>
       <r>    8.5435    0.0000 </r>
       <r>    8.5948    0.0000 </r>
       <r>    8.6775    0.0000 </r>
      </set>
      <set comment="kpoint 17">
       <r>  -33.4631    1.0000 </r>
       <r>  -15.7821    1.0000 </r>
       <r>  -15.7798    1.0000 </r>
       <r>  -15.7532    1.0000 </r>
       <r>  -15.7518    1.0000 </r>
       <r>  -15.7517    1.0000 </r>
       <r>  -11.3589    1.0000 </r>
       <r>  -11.2916    1.0000 </r>
       <r>  -11.2780    1.0000 </r>
       <r>   -4.2102    1.0000 </r>
       <r>    2.1434    1.0000 </r>
       <r>    2.7909    1.0000 </r>
       <r>    3.0846    1.0000 </r>
       <r>    3.6271    1.0000 </r>
       <r>    3.7923    1.0000 </r>
       <r>    4.0815    1.0000 </r>
       <r>    5.3608    1.0000 </r>
       <r>    5.7136    1.0000 </r>
       <r>    6.5894    1.0000 </r>
       <r>    7.7719    0.0000 </r>
       <r>    7.8973    0.0000 </r>
       <r>    8.3127    0.0000 </r>
       <r>    8.6169    0.0000 </r>
       <r>    8.6392    0.0000 </r>
      </set>
      <set comment="kpoint 18">
       <r>  -33.4636    1.0000 </r>
       <r>  -15.7806    1.0000 </r>
       <r>  -15.7786    1.0000 </r>
       <r>  -15.7530    1.0000 </r>
       <r>  -15.7522    1.0000 </r>
       <r>  -15.7520    1.0000 </r>
       <r>  -11.3301    1.0000 </r>
       <r>  -11.2934    1.0000 </r>
       <r>  -11.2816    1.0000 </r>
       <r>   -4.3682    1.0000 </r>
       <r>    2.4704    1.0000 </r>
       <r>    2.8708    1.0000 </r>
       <r>    3.1824    1.0000 </r>
       <r>    3.6000    1.0000 </r>
       <r>    3.7640    1.0000 </r>
       <r>    4.3396    1.0000 </r>
       <r>    5.4614    1.0000 </r>
       <r>    5.8680    1.0000 </r>
       <r>    6.5286    1.0000 </r>
       <r>    7.5370    0.0000 </r>
       <r>    7.5424    0.0000 </r>
       <r>    8.0228    0.0000 </r>
       <r>    8.4883    0.0000 </r>
       <r>    8.6303    0.0000 </r>
      </set>
      <set comment="kpoint 19">
       <r>  -33.4640    1.0000 </r>
       <r>  -15.7792    1.0000 </r>
       <r>  -15.7780    1.0000 </r>
       <r>  -15.7528    1.0000 </r>
       <r>  -15.7524    1.0000 </r>
       <r>  -15.7523    1.0000 </r>
       <r>  -11.3077    1.0000 </r>
       <r>  -11.2925    1.0000 </r>
       <r>  -11.2855    1.0000 </r>
       <r>   -4.4927    1.0000 </r>
       <r>    2.8047    1.0000 </r>
       <r>    2.9948    1.0000 </r>
       <r>    3.2341    1.0000 </r>
       <r>    3.5517    1.0000 </r>
       <r>    3.6796    1.0000 </r>
       <r>    4.5387    1.0000 </r>
       <r>    5.7214    1.0000 </r>
       <r>    6.0103    1.0000 </r>
       <r>    6.3536    1.0000 </r>
       <r>    7.3216    0.0000 </r>
       <r>    7.3729    0.0000 </r>
       <r>    7.7123    0.0000 </r>
       <r>    8.2743    0.0000 </r>
       <r>    8.6350    0.0000 </r>
      </set>
      <set comment="kpoint 20">
       <r>  -33.4637    1.0000 </r>
       <r>  -15.7808    1.0000 </r>
       <r>  -15.7772    1.0000 </r>
       <r>  -15.7532    1.0000 </r>
       <r>  -15.7520    1.0000 </r>
       <r>  -15.7520    1.0000 </r>
       <r>  -11.3122    1.0000 </r>
       <r>  -11.2947    1.0000 </r>
       <r>  -11.2947    1.0000 </r>
       <r>   -4.4094    1.0000 </r>
       <r>    2.3639    1.0000 </r>
       <r>    3.2545    1.0000 </r>
       <r>    3.2545    1.0000 </r>
       <r>    3.5641    1.0000 </r>
       <r>    3.5924    1.0000 </r>
       <r>    4.5165    1.0000 </r>
       <r>    5.6421    1.0000 </r>
       <r>    5.6421    1.0000 </r>
       <r>    6.6390    1.0000 </r>
       <r>    6.9907    0.7787 </r>
       <r>    7.8710    0.0000 </r>
       <r>    7.8710    0.0000 </r>
       <r>    8.4176    0.0000 </r>
       <r>    8.6131    0.0000 </r>
      </set>
      <set comment="kpoint 21">
       <r>  -33.4633    1.0000 </r>
       <r>  -15.7817    1.0000 </r>
       <r>  -15.7774    1.0000 </r>
       <r>  -15.7534    1.0000 </r>
       <r>  -15.7517    1.0000 </r>
       <r>  -15.7517    1.0000 </r>
       <r>  -11.3312    1.0000 </r>
       <r>  -11.2958    1.0000 </r>
       <r>  -11.2928    1.0000 </r>
       <r>   -4.3088    1.0000 </r>
       <r>    2.1425    1.0000 </r>
       <r>    3.1536    1.0000 </r>
       <r>    3.2264    1.0000 </r>
       <r>    3.6100    1.0000 </r>
       <r>    3.6366    1.0000 </r>
       <r>    4.3915    1.0000 </r>
       <r>    5.4452    1.0000 </r>
       <r>    5.5310    1.0000 </r>
       <r>    6.8337    1.0000 </r>
       <r>    7.0562    0.0000 </r>
       <r>    8.0302    0.0000 </r>
       <r>    8.0799    0.0000 </r>
       <r>    8.5521    0.0000 </r>
       <r>    8.6032    0.0000 </r>
      </set>
      <set comment="kpoint 22">
       <r>  -33.4629    1.0000 </r>
       <r>  -15.7824    1.0000 </r>
       <r>  -15.7783    1.0000 </r>
       <r>  -15.7536    1.0000 </r>
       <r>  -15.7515    1.0000 </r>
       <r>  -15.7513    1.0000 </r>
       <r>  -11.3573    1.0000 </r>
       <r>  -11.2944    1.0000 </r>
       <r>  -11.2901    1.0000 </r>
       <r>   -4.1810    1.0000 </r>
       <r>    1.9743    1.0000 </r>
       <r>    2.9784    1.0000 </r>
       <r>    3.1620    1.0000 </r>
       <r>    3.6299    1.0000 </r>
       <r>    3.7041    1.0000 </r>
       <r>    4.1763    1.0000 </r>
       <r>    5.2509    1.0000 </r>
       <r>    5.4762    1.0000 </r>
       <r>    6.8677    1.0000 </r>
       <r>    7.4666    0.0000 </r>
       <r>    8.1571    0.0000 </r>
       <r>    8.3154    0.0000 </r>
       <r>    8.5932    0.0000 </r>
       <r>    8.6395    0.0000 </r>
      </set>
      <set comment="kpoint 23">
       <r>  -33.4624    1.0000 </r>
       <r>  -15.7827    1.0000 </r>
       <r>  -15.7798    1.0000 </r>
       <r>  -15.7537    1.0000 </r>
       <r>  -15.7514    1.0000 </r>
       <r>  -15.7509    1.0000 </r>
       <r>  -11.3814    1.0000 </r>
       <r>  -11.2910    1.0000 </r>
       <r>  -11.2898    1.0000 </r>
       <r>   -4.0558    1.0000 </r>
       <r>    1.8629    1.0000 </r>
       <r>    2.8505    1.0000 </r>
       <r>    3.0849    1.0000 </r>
       <r>    3.6159    1.0000 </r>
       <r>    3.7167    1.0000 </r>
       <r>    3.9544    1.0000 </r>
       <r>    5.1498    1.0000 </r>
       <r>    5.4642    1.0000 </r>
       <r>    6.8548    1.0000 </r>
       <r>    7.9040    0.0000 </r>
       <r>    8.2501    0.0000 </r>
       <r>    8.4887    0.0000 </r>
       <r>    8.5799    0.0000 </r>
       <r>    8.6777    0.0000 </r>
      </set>
      <set comment="kpoint 24">
       <r>  -33.4621    1.0000 </r>
       <r>  -15.7825    1.0000 </r>
       <r>  -15.7814    1.0000 </r>
       <r>  -15.7536    1.0000 </r>
       <r>  -15.7513    1.0000 </r>
       <r>  -15.7507    1.0000 </r>
       <r>  -11.3984    1.0000 </r>
       <r>  -11.2921    1.0000 </r>
       <r>  -11.2862    1.0000 </r>
       <r>   -3.9610    1.0000 </r>
       <r>    1.7978    1.0000 </r>
       <r>    2.8038    1.0000 </r>
       <r>    2.9874    1.0000 </r>
       <r>    3.6174    1.0000 </r>
       <r>    3.6750    1.0000 </r>
       <r>    3.7971    1.0000 </r>
       <r>    5.1130    1.0000 </r>
       <r>    5.4649    1.0000 </r>
       <r>    6.9033    1.0000 </r>
       <r>    8.0975    0.0000 </r>
       <r>    8.3074    0.0000 </r>
       <r>    8.5221    0.0000 </r>
       <r>    8.5609    0.0000 </r>
       <r>    8.6941    0.0000 </r>
      </set>
      <set comment="kpoint 25">
       <r>  -33.4619    1.0000 </r>
       <r>  -15.7828    1.0000 </r>
       <r>  -15.7820    1.0000 </r>
       <r>  -15.7535    1.0000 </r>
       <r>  -15.7514    1.0000 </r>
       <r>  -15.7507    1.0000 </r>
       <r>  -11.4052    1.0000 </r>
       <r>  -11.2962    1.0000 </r>
       <r>  -11.2812    1.0000 </r>
       <r>   -3.9162    1.0000 </r>
       <r>    1.7678    1.0000 </r>
       <r>    2.8380    1.0000 </r>
       <r>    2.8760    1.0000 </r>
       <r>    3.6160    1.0000 </r>
       <r>    3.6631    1.0000 </r>
       <r>    3.7301    1.0000 </r>
       <r>    5.0919    1.0000 </r>
       <r>    5.4651    1.0000 </r>
       <r>    6.9807    0.9852 </r>
       <r>    8.0981    0.0000 </r>
       <r>    8.3165    0.0000 </r>
       <r>    8.5431    0.0000 </r>
       <r>    8.5532    0.0000 </r>
       <r>    8.6677    0.0000 </r>
      </set>
      <set comment="kpoint 26">
       <r>  -33.4620    1.0000 </r>
       <r>  -15.7837    1.0000 </r>
       <r>  -15.7811    1.0000 </r>
       <r>  -15.7534    1.0000 </r>
       <r>  -15.7514    1.0000 </r>
       <r>  -15.7509    1.0000 </r>
       <r>  -11.4007    1.0000 </r>
       <r>  -11.3010    1.0000 </r>
       <r>  -11.2770    1.0000 </r>
       <r>   -3.9307    1.0000 </r>
       <r>    1.7755    1.0000 </r>
       <r>    2.7770    1.0000 </r>
       <r>    2.9325    1.0000 </r>
       <r>    3.5723    1.0000 </r>
       <r>    3.7404    1.0000 </r>
       <r>    3.7616    1.0000 </r>
       <r>    5.0499    1.0000 </r>
       <r>    5.4757    1.0000 </r>
       <r>    7.0066    0.0688 </r>
       <r>    8.1238    0.0000 </r>
       <r>    8.2485    0.0000 </r>
       <r>    8.5433    0.0000 </r>
       <r>    8.5660    0.0000 </r>
       <r>    8.6760    0.0000 </r>
      </set>
      <set comment="kpoint 27">
       <r>  -33.4623    1.0000 </r>
       <r>  -15.7839    1.0000 </r>
       <r>  -15.7801    1.0000 </r>
       <r>  -15.7533    1.0000 </r>
       <r>  -15.7515    1.0000 </r>
       <r>  -15.7512    1.0000 </r>
       <r>  -11.3865    1.0000 </r>
       <r>  -11.3048    1.0000 </r>
       <r>  -11.2747    1.0000 </r>
       <r>   -4.0026    1.0000 </r>
       <r>    1.8377    1.0000 </r>
       <r>    2.7159    1.0000 </r>
       <r>    3.0596    1.0000 </r>
       <r>    3.5556    1.0000 </r>
       <r>    3.8148    1.0000 </r>
       <r>    3.8878    1.0000 </r>
       <r>    4.9830    1.0000 </r>
       <r>    5.5208    1.0000 </r>
       <r>    6.9908    0.7760 </r>
       <r>    8.0935    0.0000 </r>
       <r>    8.1294    0.0000 </r>
       <r>    8.5516    0.0000 </r>
       <r>    8.5601    0.0000 </r>
       <r>    8.6989    0.0000 </r>
      </set>
      <set comment="kpoint 28">
       <r>  -33.4627    1.0000 </r>
       <r>  -15.7833    1.0000 </r>
       <r>  -15.7792    1.0000 </r>
       <r>  -15.7532    1.0000 </r>
       <r>  -15.7516    1.0000 </r>
       <r>  -15.7516    1.0000 </r>
       <r>  -11.3662    1.0000 </r>
       <r>  -11.3057    1.0000 </r>
       <r>  -11.2748    1.0000 </r>
       <r>   -4.1176    1.0000 </r>
       <r>    1.9746    1.0000 </r>
       <r>    2.7088    1.0000 </r>
       <r>    3.1863    1.0000 </r>
       <r>    3.5543    1.0000 </r>
       <r>    3.8510    1.0000 </r>
       <r>    4.0786    1.0000 </r>
       <r>    4.9469    1.0000 </r>
       <r>    5.6189    1.0000 </r>
       <r>    6.9751    0.9985 </r>
       <r>    7.8791    0.0000 </r>
       <r>    7.9578    0.0000 </r>
       <r>    8.4599    0.0000 </r>
       <r>    8.5825    0.0000 </r>
       <r>    8.7073    0.0000 </r>
      </set>
      <set comment="kpoint 29">
       <r>  -33.4632    1.0000 </r>
       <r>  -15.7821    1.0000 </r>
       <r>  -15.7787    1.0000 </r>
       <r>  -15.7531    1.0000 </r>
       <r>  -15.7519    1.0000 </r>
       <r>  -15.7518    1.0000 </r>
       <r>  -11.3456    1.0000 </r>
       <r>  -11.3018    1.0000 </r>
       <r>  -11.2773    1.0000 </r>
       <r>   -4.2500    1.0000 </r>
       <r>    2.1926    1.0000 </r>
       <r>    2.7617    1.0000 </r>
       <r>    3.2600    1.0000 </r>
       <r>    3.5509    1.0000 </r>
       <r>    3.8315    1.0000 </r>
       <r>    4.2484    1.0000 </r>
       <r>    5.0816    1.0000 </r>
       <r>    5.7558    1.0000 </r>
       <r>    6.8761    1.0000 </r>
       <r>    7.6545    0.0000 </r>
       <r>    7.6670    0.0000 </r>
       <r>    8.2867    0.0000 </r>
       <r>    8.6019    0.0000 </r>
       <r>    8.6061    0.0000 </r>
      </set>
      <set comment="kpoint 30">
       <r>  -33.4631    1.0000 </r>
       <r>  -15.7820    1.0000 </r>
       <r>  -15.7767    1.0000 </r>
       <r>  -15.7538    1.0000 </r>
       <r>  -15.7513    1.0000 </r>
       <r>  -15.7513    1.0000 </r>
       <r>  -11.3351    1.0000 </r>
       <r>  -11.2999    1.0000 </r>
       <r>  -11.2999    1.0000 </r>
       <r>   -4.2556    1.0000 </r>
       <r>    1.9892    1.0000 </r>
       <r>    3.2799    1.0000 </r>
       <r>    3.2799    1.0000 </r>
       <r>    3.4995    1.0000 </r>
       <r>    3.6263    1.0000 </r>
       <r>    4.3894    1.0000 </r>
       <r>    5.4396    1.0000 </r>
       <r>    5.4396    1.0000 </r>
       <r>    6.6471    1.0000 </r>
       <r>    7.2173    0.0000 </r>
       <r>    8.1476    0.0000 </r>
       <r>    8.1476    0.0000 </r>
       <r>    8.5812    0.0000 </r>
       <r>    8.6023    0.0000 </r>
      </set>
      <set comment="kpoint 31">
       <r>  -33.4627    1.0000 </r>
       <r>  -15.7819    1.0000 </r>
       <r>  -15.7769    1.0000 </r>
       <r>  -15.7541    1.0000 </r>
       <r>  -15.7511    1.0000 </r>
       <r>  -15.7510    1.0000 </r>
       <r>  -11.3524    1.0000 </r>
       <r>  -11.3012    1.0000 </r>
       <r>  -11.3006    1.0000 </r>
       <r>   -4.1759    1.0000 </r>
       <r>    1.9094    1.0000 </r>
       <r>    3.1512    1.0000 </r>
       <r>    3.2559    1.0000 </r>
       <r>    3.5507    1.0000 </r>
       <r>    3.6541    1.0000 </r>
       <r>    4.2716    1.0000 </r>
       <r>    5.2668    1.0000 </r>
       <r>    5.4020    1.0000 </r>
       <r>    6.7939    1.0000 </r>
       <r>    7.3871    0.0000 </r>
       <r>    8.2361    0.0000 </r>
       <r>    8.2765    0.0000 </r>
       <r>    8.5625    0.0000 </r>
       <r>    8.6195    0.0000 </r>
      </set>
      <set comment="kpoint 32">
       <r>  -33.4623    1.0000 </r>
       <r>  -15.7815    1.0000 </r>
       <r>  -15.7778    1.0000 </r>
       <r>  -15.7541    1.0000 </r>
       <r>  -15.7509    1.0000 </r>
       <r>  -15.7506    1.0000 </r>
       <r>  -11.3716    1.0000 </r>
       <r>  -11.3021    1.0000 </r>
       <r>  -11.2995    1.0000 </r>
       <r>   -4.0895    1.0000 </r>
       <r>    1.9079    1.0000 </r>
       <r>    2.9746    1.0000 </r>
       <r>    3.1883    1.0000 </r>
       <r>    3.6348    1.0000 </r>
       <r>    3.6611    1.0000 </r>
       <r>    4.0956    1.0000 </r>
       <r>    5.0366    1.0000 </r>
       <r>    5.4017    1.0000 </r>
       <r>    6.9129    1.0000 </r>
       <r>    7.7660    0.0000 </r>
       <r>    8.3028    0.0000 </r>
       <r>    8.4208    0.0000 </r>
       <r>    8.5546    0.0000 </r>
       <r>    8.6305    0.0000 </r>
      </set>
      <set comment="kpoint 33">
       <r>  -33.4619    1.0000 </r>
       <r>  -15.7809    1.0000 </r>
       <r>  -15.7794    1.0000 </r>
       <r>  -15.7540    1.0000 </r>
       <r>  -15.7510    1.0000 </r>
       <r>  -15.7504    1.0000 </r>
       <r>  -11.3854    1.0000 </r>
       <r>  -11.3071    1.0000 </r>
       <r>  -11.2951    1.0000 </r>
       <r>   -4.0149    1.0000 </r>
       <r>    1.9543    1.0000 </r>
       <r>    2.8571    1.0000 </r>
       <r>    3.0817    1.0000 </r>
       <r>    3.6617    1.0000 </r>
       <r>    3.6778    1.0000 </r>
       <r>    3.9308    1.0000 </r>
       <r>    4.8763    1.0000 </r>
       <r>    5.4023    1.0000 </r>
       <r>    6.9690    0.9999 </r>
       <r>    8.0516    0.0000 </r>
       <r>    8.3525    0.0000 </r>
       <r>    8.4886    0.0000 </r>
       <r>    8.5490    0.0000 </r>
       <r>    8.7067    0.0000 </r>
      </set>
      <set comment="kpoint 34">
       <r>  -33.4617    1.0000 </r>
       <r>  -15.7811    1.0000 </r>
       <r>  -15.7802    1.0000 </r>
       <r>  -15.7536    1.0000 </r>
       <r>  -15.7513    1.0000 </r>
       <r>  -15.7504    1.0000 </r>
       <r>  -11.3909    1.0000 </r>
       <r>  -11.3147    1.0000 </r>
       <r>  -11.2891    1.0000 </r>
       <r>   -3.9653    1.0000 </r>
       <r>    1.9879    1.0000 </r>
       <r>    2.8249    1.0000 </r>
       <r>    2.9504    1.0000 </r>
       <r>    3.6204    1.0000 </r>
       <r>    3.7264    1.0000 </r>
       <r>    3.8558    1.0000 </r>
       <r>    4.7839    1.0000 </r>
       <r>    5.3909    1.0000 </r>
       <r>    7.0674    0.0000 </r>
       <r>    8.0462    0.0000 </r>
       <r>    8.3789    0.0000 </r>
       <r>    8.5272    0.0000 </r>
       <r>    8.5337    0.0000 </r>
       <r>    8.6844    0.0000 </r>
      </set>
      <set comment="kpoint 35">
       <r>  -33.4618    1.0000 </r>
       <r>  -15.7826    1.0000 </r>
       <r>  -15.7795    1.0000 </r>
       <r>  -15.7531    1.0000 </r>
       <r>  -15.7516    1.0000 </r>
       <r>  -15.7506    1.0000 </r>
       <r>  -11.3881    1.0000 </r>
       <r>  -11.3221    1.0000 </r>
       <r>  -11.2827    1.0000 </r>
       <r>   -3.9492    1.0000 </r>
       <r>    1.9637    1.0000 </r>
       <r>    2.8244    1.0000 </r>
       <r>    2.8797    1.0000 </r>
       <r>    3.5771    1.0000 </r>
       <r>    3.7948    1.0000 </r>
       <r>    3.8747    1.0000 </r>
       <r>    4.7202    1.0000 </r>
       <r>    5.3856    1.0000 </r>
       <r>    7.1793    0.0000 </r>
       <r>    8.0108    0.0000 </r>
       <r>    8.3488    0.0000 </r>
       <r>    8.5219    0.0000 </r>
       <r>    8.5564    0.0000 </r>
       <r>    8.6738    0.0000 </r>
      </set>
      <set comment="kpoint 36">
       <r>  -33.4620    1.0000 </r>
       <r>  -15.7836    1.0000 </r>
       <r>  -15.7791    1.0000 </r>
       <r>  -15.7529    1.0000 </r>
       <r>  -15.7518    1.0000 </r>
       <r>  -15.7509    1.0000 </r>
       <r>  -11.3802    1.0000 </r>
       <r>  -11.3251    1.0000 </r>
       <r>  -11.2775    1.0000 </r>
       <r>   -3.9714    1.0000 </r>
       <r>    1.9100    1.0000 </r>
       <r>    2.7311    1.0000 </r>
       <r>    2.9949    1.0000 </r>
       <r>    3.5580    1.0000 </r>
       <r>    3.8536    1.0000 </r>
       <r>    3.9699    1.0000 </r>
       <r>    4.6667    1.0000 </r>
       <r>    5.4162    1.0000 </r>
       <r>    7.2284    0.0000 </r>
       <r>    8.0408    0.0000 </r>
       <r>    8.2317    0.0000 </r>
       <r>    8.5329    0.0000 </r>
       <r>    8.5725    0.0000 </r>
       <r>    8.6849    0.0000 </r>
      </set>
      <set comment="kpoint 37">
       <r>  -33.4623    1.0000 </r>
       <r>  -15.7839    1.0000 </r>
       <r>  -15.7790    1.0000 </r>
       <r>  -15.7530    1.0000 </r>
       <r>  -15.7517    1.0000 </r>
       <r>  -15.7512    1.0000 </r>
       <r>  -11.3724    1.0000 </r>
       <r>  -11.3192    1.0000 </r>
       <r>  -11.2747    1.0000 </r>
       <r>   -4.0311    1.0000 </r>
       <r>    1.8973    1.0000 </r>
       <r>    2.6892    1.0000 </r>
       <r>    3.1250    1.0000 </r>
       <r>    3.5473    1.0000 </r>
       <r>    3.8752    1.0000 </r>
       <r>    4.0676    1.0000 </r>
       <r>    4.6991    1.0000 </r>
       <r>    5.5004    1.0000 </r>
       <r>    7.1843    0.0000 </r>
       <r>    8.0210    0.0000 </r>
       <r>    8.0558    0.0000 </r>
       <r>    8.5468    0.0000 </r>
       <r>    8.5550    0.0000 </r>
       <r>    8.7128    0.0000 </r>
      </set>
      <set comment="kpoint 38">
       <r>  -33.4624    1.0000 </r>
       <r>  -15.7811    1.0000 </r>
       <r>  -15.7762    1.0000 </r>
       <r>  -15.7545    1.0000 </r>
       <r>  -15.7506    1.0000 </r>
       <r>  -15.7506    1.0000 </r>
       <r>  -11.3594    1.0000 </r>
       <r>  -11.3056    1.0000 </r>
       <r>  -11.3056    1.0000 </r>
       <r>   -4.1486    1.0000 </r>
       <r>    1.9085    1.0000 </r>
       <r>    3.2770    1.0000 </r>
       <r>    3.2770    1.0000 </r>
       <r>    3.3653    1.0000 </r>
       <r>    3.6951    1.0000 </r>
       <r>    4.2148    1.0000 </r>
       <r>    5.3797    1.0000 </r>
       <r>    5.3797    1.0000 </r>
       <r>    6.6499    1.0000 </r>
       <r>    7.4930    0.0000 </r>
       <r>    8.2953    0.0000 </r>
       <r>    8.2953    0.0000 </r>
       <r>    8.5256    0.0000 </r>
       <r>    8.5913    0.0000 </r>
      </set>
      <set comment="kpoint 39">
       <r>  -33.4620    1.0000 </r>
       <r>  -15.7800    1.0000 </r>
       <r>  -15.7764    1.0000 </r>
       <r>  -15.7547    1.0000 </r>
       <r>  -15.7503    1.0000 </r>
       <r>  -15.7503    1.0000 </r>
       <r>  -11.3718    1.0000 </r>
       <r>  -11.3087    1.0000 </r>
       <r>  -11.3065    1.0000 </r>
       <r>   -4.1082    1.0000 </r>
       <r>    1.9865    1.0000 </r>
       <r>    3.1104    1.0000 </r>
       <r>    3.2432    1.0000 </r>
       <r>    3.4588    1.0000 </r>
       <r>    3.7182    1.0000 </r>
       <r>    4.0808    1.0000 </r>
       <r>    5.2310    1.0000 </r>
       <r>    5.3926    1.0000 </r>
       <r>    6.7871    1.0000 </r>
       <r>    7.7066    0.0000 </r>
       <r>    8.3411    0.0000 </r>
       <r>    8.3685    0.0000 </r>
       <r>    8.5103    0.0000 </r>
       <r>    8.5615    0.0000 </r>
      </set>
      <set comment="kpoint 40">
       <r>  -33.4618    1.0000 </r>
       <r>  -15.7790    1.0000 </r>
       <r>  -15.7774    1.0000 </r>
       <r>  -15.7546    1.0000 </r>
       <r>  -15.7504    1.0000 </r>
       <r>  -15.7501    1.0000 </r>
       <r>  -11.3803    1.0000 </r>
       <r>  -11.3157    1.0000 </r>
       <r>  -11.3038    1.0000 </r>
       <r>   -4.0632    1.0000 </r>
       <r>    2.1161    1.0000 </r>
       <r>    2.9485    1.0000 </r>
       <r>    3.1615    1.0000 </r>
       <r>    3.5651    1.0000 </r>
       <r>    3.7387    1.0000 </r>
       <r>    3.9379    1.0000 </r>
       <r>    4.9434    1.0000 </r>
       <r>    5.3937    1.0000 </r>
       <r>    6.9167    1.0000 </r>
       <r>    8.0426    0.0000 </r>
       <r>    8.3800    0.0000 </r>
       <r>    8.4476    0.0000 </r>
       <r>    8.5256    0.0000 </r>
       <r>    8.6275    0.0000 </r>
      </set>
      <set comment="kpoint 41">
       <r>  -33.4616    1.0000 </r>
       <r>  -15.7791    1.0000 </r>
       <r>  -15.7784    1.0000 </r>
       <r>  -15.7542    1.0000 </r>
       <r>  -15.7507    1.0000 </r>
       <r>  -15.7500    1.0000 </r>
       <r>  -11.3810    1.0000 </r>
       <r>  -11.3273    1.0000 </r>
       <r>  -11.2982    1.0000 </r>
       <r>   -4.0205    1.0000 </r>
       <r>    2.2239    1.0000 </r>
       <r>    2.8505    1.0000 </r>
       <r>    3.0427    1.0000 </r>
       <r>    3.5895    1.0000 </r>
       <r>    3.7772    1.0000 </r>
       <r>    3.8879    1.0000 </r>
       <r>    4.6833    1.0000 </r>
       <r>    5.3659    1.0000 </r>
       <r>    7.0234    0.0001 </r>
       <r>    8.0927    0.0000 </r>
       <r>    8.4116    0.0000 </r>
       <r>    8.4807    0.0000 </r>
       <r>    8.5353    0.0000 </r>
       <r>    8.6714    0.0000 </r>
      </set>
      <set comment="kpoint 42">
       <r>  -33.4616    1.0000 </r>
       <r>  -15.7809    1.0000 </r>
       <r>  -15.7781    1.0000 </r>
       <r>  -15.7535    1.0000 </r>
       <r>  -15.7513    1.0000 </r>
       <r>  -15.7502    1.0000 </r>
       <r>  -11.3744    1.0000 </r>
       <r>  -11.3402    1.0000 </r>
       <r>  -11.2907    1.0000 </r>
       <r>   -3.9861    1.0000 </r>
       <r>    2.2079    1.0000 </r>
       <r>    2.8340    1.0000 </r>
       <r>    2.9133    1.0000 </r>
       <r>    3.5616    1.0000 </r>
       <r>    3.8252    1.0000 </r>
       <r>    3.9504    1.0000 </r>
       <r>    4.5180    1.0000 </r>
       <r>    5.3371    1.0000 </r>
       <r>    7.1677    0.0000 </r>
       <r>    8.0135    0.0000 </r>
       <r>    8.4213    0.0000 </r>
       <r>    8.5025    0.0000 </r>
       <r>    8.5196    0.0000 </r>
       <r>    8.6652    0.0000 </r>
      </set>
      <set comment="kpoint 43">
       <r>  -33.4617    1.0000 </r>
       <r>  -15.7825    1.0000 </r>
       <r>  -15.7784    1.0000 </r>
       <r>  -15.7529    1.0000 </r>
       <r>  -15.7518    1.0000 </r>
       <r>  -15.7505    1.0000 </r>
       <r>  -11.3719    1.0000 </r>
       <r>  -11.3417    1.0000 </r>
       <r>  -11.2833    1.0000 </r>
       <r>   -3.9671    1.0000 </r>
       <r>    2.0644    1.0000 </r>
       <r>    2.8019    1.0000 </r>
       <r>    2.8965    1.0000 </r>
       <r>    3.5585    1.0000 </r>
       <r>    3.8572    1.0000 </r>
       <r>    4.0104    1.0000 </r>
       <r>    4.4936    1.0000 </r>
       <r>    5.3477    1.0000 </r>
       <r>    7.2814    0.0000 </r>
       <r>    7.9835    0.0000 </r>
       <r>    8.3602    0.0000 </r>
       <r>    8.5144    0.0000 </r>
       <r>    8.5391    0.0000 </r>
       <r>    8.6654    0.0000 </r>
      </set>
      <set comment="kpoint 44">
       <r>  -33.4618    1.0000 </r>
       <r>  -15.7786    1.0000 </r>
       <r>  -15.7758    1.0000 </r>
       <r>  -15.7551    1.0000 </r>
       <r>  -15.7499    1.0000 </r>
       <r>  -15.7499    1.0000 </r>
       <r>  -11.3796    1.0000 </r>
       <r>  -11.3104    1.0000 </r>
       <r>  -11.3104    1.0000 </r>
       <r>   -4.1104    1.0000 </r>
       <r>    2.1197    1.0000 </r>
       <r>    3.2460    1.0000 </r>
       <r>    3.2514    1.0000 </r>
       <r>    3.2514    1.0000 </r>
       <r>    3.7546    1.0000 </r>
       <r>    3.9504    1.0000 </r>
       <r>    5.4257    1.0000 </r>
       <r>    5.4257    1.0000 </r>
       <r>    6.7156    1.0000 </r>
       <r>    7.7244    0.0000 </r>
       <r>    8.3702    0.0000 </r>
       <r>    8.3702    0.0000 </r>
       <r>    8.4614    0.0000 </r>
       <r>    8.4886    0.0000 </r>
      </set>
      <set comment="kpoint 45">
       <r>  -33.4616    1.0000 </r>
       <r>  -15.7774    1.0000 </r>
       <r>  -15.7761    1.0000 </r>
       <r>  -15.7551    1.0000 </r>
       <r>  -15.7498    1.0000 </r>
       <r>  -15.7497    1.0000 </r>
       <r>  -11.3855    1.0000 </r>
       <r>  -11.3148    1.0000 </r>
       <r>  -11.3104    1.0000 </r>
       <r>   -4.0968    1.0000 </r>
       <r>    2.2852    1.0000 </r>
       <r>    3.0625    1.0000 </r>
       <r>    3.2137    1.0000 </r>
       <r>    3.3960    1.0000 </r>
       <r>    3.7752    1.0000 </r>
       <r>    3.7968    1.0000 </r>
       <r>    5.2760    1.0000 </r>
       <r>    5.4417    1.0000 </r>
       <r>    6.8195    1.0000 </r>
       <r>    7.9685    0.0000 </r>
       <r>    8.3950    0.0000 </r>
       <r>    8.4028    0.0000 </r>
       <r>    8.4258    0.0000 </r>
       <r>    8.4689    0.0000 </r>
      </set>
      <set comment="kpoint 46">
       <r>  -33.4615    1.0000 </r>
       <r>  -15.7772    1.0000 </r>
       <r>  -15.7769    1.0000 </r>
       <r>  -15.7548    1.0000 </r>
       <r>  -15.7501    1.0000 </r>
       <r>  -15.7497    1.0000 </r>
       <r>  -11.3840    1.0000 </r>
       <r>  -11.3249    1.0000 </r>
       <r>  -11.3064    1.0000 </r>
       <r>   -4.0686    1.0000 </r>
       <r>    2.4123    1.0000 </r>
       <r>    2.9244    1.0000 </r>
       <r>    3.1325    1.0000 </r>
       <r>    3.5143    1.0000 </r>
       <r>    3.7262    1.0000 </r>
       <r>    3.7992    1.0000 </r>
       <r>    4.9327    1.0000 </r>
       <r>    5.4062    1.0000 </r>
       <r>    6.9222    1.0000 </r>
       <r>    8.1853    0.0000 </r>
       <r>    8.4168    0.0000 </r>
       <r>    8.4422    0.0000 </r>
       <r>    8.5168    0.0000 </r>
       <r>    8.5878    0.0000 </r>
      </set>
      <set comment="kpoint 47">
       <r>  -33.4615    1.0000 </r>
       <r>  -15.7789    1.0000 </r>
       <r>  -15.7772    1.0000 </r>
       <r>  -15.7542    1.0000 </r>
       <r>  -15.7506    1.0000 </r>
       <r>  -15.7499    1.0000 </r>
       <r>  -11.3757    1.0000 </r>
       <r>  -11.3384    1.0000 </r>
       <r>  -11.2993    1.0000 </r>
       <r>   -4.0295    1.0000 </r>
       <r>    2.3960    1.0000 </r>
       <r>    2.8417    1.0000 </r>
       <r>    3.0241    1.0000 </r>
       <r>    3.5372    1.0000 </r>
       <r>    3.8227    1.0000 </r>
       <r>    3.8493    1.0000 </r>
       <r>    4.6189    1.0000 </r>
       <r>    5.3525    1.0000 </r>
       <r>    7.0416    0.0000 </r>
       <r>    8.1053    0.0000 </r>
       <r>    8.4321    0.0000 </r>
       <r>    8.4626    0.0000 </r>
       <r>    8.5352    0.0000 </r>
       <r>    8.6573    0.0000 </r>
      </set>
      <set comment="kpoint 48">
       <r>  -33.4615    1.0000 </r>
       <r>  -15.7764    1.0000 </r>
       <r>  -15.7755    1.0000 </r>
       <r>  -15.7554    1.0000 </r>
       <r>  -15.7495    1.0000 </r>
       <r>  -15.7495    1.0000 </r>
       <r>  -11.3911    1.0000 </r>
       <r>  -11.3132    1.0000 </r>
       <r>  -11.3132    1.0000 </r>
       <r>   -4.1098    1.0000 </r>
       <r>    2.4353    1.0000 </r>
       <r>    3.1863    1.0000 </r>
       <r>    3.2287    1.0000 </r>
       <r>    3.2287    1.0000 </r>
       <r>    3.6501    1.0000 </r>
       <r>    3.7893    1.0000 </r>
       <r>    5.4880    1.0000 </r>
       <r>    5.4880    1.0000 </r>
       <r>    6.7902    1.0000 </r>
       <r>    7.8642    0.0000 </r>
       <r>    8.3333    0.0000 </r>
       <r>    8.4055    0.0000 </r>
       <r>    8.4055    0.0000 </r>
       <r>    8.4189    0.0000 </r>
      </set>
      <set comment="kpoint 49">
       <r>  -33.4615    1.0000 </r>
       <r>  -15.7762    1.0000 </r>
       <r>  -15.7759    1.0000 </r>
       <r>  -15.7553    1.0000 </r>
       <r>  -15.7496    1.0000 </r>
       <r>  -15.7495    1.0000 </r>
       <r>  -11.3904    1.0000 </r>
       <r>  -11.3170    1.0000 </r>
       <r>  -11.3118    1.0000 </r>
       <r>   -4.1001    1.0000 </r>
       <r>    2.4943    1.0000 </r>
       <r>    3.0445    1.0000 </r>
       <r>    3.1999    1.0000 </r>
       <r>    3.3812    1.0000 </r>
       <r>    3.6000    1.0000 </r>
       <r>    3.7976    1.0000 </r>
       <r>    5.3067    1.0000 </r>
       <r>    5.4705    1.0000 </r>
       <r>    6.8402    1.0000 </r>
       <r>    8.1203    0.0000 </r>
       <r>    8.2755    0.0000 </r>
       <r>    8.4120    0.0000 </r>
       <r>    8.4221    0.0000 </r>
       <r>    8.4554    0.0000 </r>
      </set>
      <set comment="kpoint 50">
       <r>  -33.4636    1.0000 </r>
       <r>  -15.7811    1.0000 </r>
       <r>  -15.7779    1.0000 </r>
       <r>  -15.7531    1.0000 </r>
       <r>  -15.7520    1.0000 </r>
       <r>  -15.7520    1.0000 </r>
       <r>  -11.3260    1.0000 </r>
       <r>  -11.2965    1.0000 </r>
       <r>  -11.2850    1.0000 </r>
       <r>   -4.3639    1.0000 </r>
       <r>    2.3466    1.0000 </r>
       <r>    2.9975    1.0000 </r>
       <r>    3.2595    1.0000 </r>
       <r>    3.5646    1.0000 </r>
       <r>    3.7262    1.0000 </r>
       <r>    4.4061    1.0000 </r>
       <r>    5.4025    1.0000 </r>
       <r>    5.7569    1.0000 </r>
       <r>    6.7690    1.0000 </r>
       <r>    7.1196    0.0000 </r>
       <r>    7.7883    0.0000 </r>
       <r>    8.0415    0.0000 </r>
       <r>    8.4877    0.0000 </r>
       <r>    8.6174    0.0000 </r>
      </set>
      <set comment="kpoint 51">
       <r>  -33.4631    1.0000 </r>
       <r>  -15.7823    1.0000 </r>
       <r>  -15.7786    1.0000 </r>
       <r>  -15.7533    1.0000 </r>
       <r>  -15.7518    1.0000 </r>
       <r>  -15.7516    1.0000 </r>
       <r>  -11.3494    1.0000 </r>
       <r>  -11.2987    1.0000 </r>
       <r>  -11.2812    1.0000 </r>
       <r>   -4.2313    1.0000 </r>
       <r>    2.1060    1.0000 </r>
       <r>    2.8640    1.0000 </r>
       <r>    3.2109    1.0000 </r>
       <r>    3.5864    1.0000 </r>
       <r>    3.7815    1.0000 </r>
       <r>    4.2188    1.0000 </r>
       <r>    5.1811    1.0000 </r>
       <r>    5.6539    1.0000 </r>
       <r>    6.8626    1.0000 </r>
       <r>    7.4426    0.0000 </r>
       <r>    7.9699    0.0000 </r>
       <r>    8.2796    0.0000 </r>
       <r>    8.6039    0.0000 </r>
       <r>    8.6191    0.0000 </r>
      </set>
      <set comment="kpoint 52">
       <r>  -33.4626    1.0000 </r>
       <r>  -15.7831    1.0000 </r>
       <r>  -15.7797    1.0000 </r>
       <r>  -15.7534    1.0000 </r>
       <r>  -15.7516    1.0000 </r>
       <r>  -15.7513    1.0000 </r>
       <r>  -11.3748    1.0000 </r>
       <r>  -11.2975    1.0000 </r>
       <r>  -11.2789    1.0000 </r>
       <r>   -4.0917    1.0000 </r>
       <r>    1.9160    1.0000 </r>
       <r>    2.7828    1.0000 </r>
       <r>    3.1142    1.0000 </r>
       <r>    3.5874    1.0000 </r>
       <r>    3.7820    1.0000 </r>
       <r>    3.9926    1.0000 </r>
       <r>    5.1286    1.0000 </r>
       <r>    5.5599    1.0000 </r>
       <r>    6.8527    1.0000 </r>
       <r>    7.8416    0.0000 </r>
       <r>    8.1480    0.0000 </r>
       <r>    8.4752    0.0000 </r>
       <r>    8.5851    0.0000 </r>
       <r>    8.6733    0.0000 </r>
      </set>
      <set comment="kpoint 53">
       <r>  -33.4622    1.0000 </r>
       <r>  -15.7835    1.0000 </r>
[...]
       <r>    7.3794    0.0000 </r>
       <r>    7.8495    0.0000 </r>
       <r>    8.4083    0.0000 </r>
       <r>    8.4561    0.0000 </r>
       <r>    8.5377    0.0000 </r>
       <r>    8.6582    0.0000 </r>
      </set>
      <set comment="kpoint 81">
       <r>  -33.4616    1.0000 </r>
       <r>  -15.7816    1.0000 </r>
       <r>  -15.7775    1.0000 </r>
       <r>  -15.7531    1.0000 </r>
       <r>  -15.7520    1.0000 </r>
       <r>  -15.7500    1.0000 </r>
       <r>  -11.3711    1.0000 </r>
       <r>  -11.3377    1.0000 </r>
       <r>  -11.2944    1.0000 </r>
       <r>   -3.9910    1.0000 </r>
       <r>    2.1818    1.0000 </r>
       <r>    2.7326    1.0000 </r>
       <r>    3.0893    1.0000 </r>
       <r>    3.6217    1.0000 </r>
       <r>    3.7828    1.0000 </r>
       <r>    3.9666    1.0000 </r>
       <r>    4.3388    1.0000 </r>
       <r>    5.4618    1.0000 </r>
       <r>    7.3808    0.0000 </r>
       <r>    7.8476    0.0000 </r>
       <r>    8.3894    0.0000 </r>
       <r>    8.4612    0.0000 </r>
       <r>    8.5473    0.0000 </r>
       <r>    8.6573    0.0000 </r>
      </set>
      <set comment="kpoint 82">
       <r>  -33.4615    1.0000 </r>
       <r>  -15.7792    1.0000 </r>
       <r>  -15.7762    1.0000 </r>
       <r>  -15.7543    1.0000 </r>
       <r>  -15.7509    1.0000 </r>
       <r>  -15.7495    1.0000 </r>
       <r>  -11.3770    1.0000 </r>
       <r>  -11.3279    1.0000 </r>
       <r>  -11.3098    1.0000 </r>
       <r>   -4.0436    1.0000 </r>
       <r>    2.4259    1.0000 </r>
       <r>    2.7920    1.0000 </r>
       <r>    3.2051    1.0000 </r>
       <r>    3.6017    1.0000 </r>
       <r>    3.7224    1.0000 </r>
       <r>    3.8145    1.0000 </r>
       <r>    4.4707    1.0000 </r>
       <r>    5.5441    1.0000 </r>
       <r>    7.1491    0.0000 </r>
       <r>    8.0609    0.0000 </r>
       <r>    8.3429    0.0000 </r>
       <r>    8.4024    0.0000 </r>
       <r>    8.4904    0.0000 </r>
       <r>    8.6552    0.0000 </r>
      </set>
      <set comment="kpoint 83">
       <r>  -33.4614    1.0000 </r>
       <r>  -15.7801    1.0000 </r>
       <r>  -15.7762    1.0000 </r>
       <r>  -15.7537    1.0000 </r>
       <r>  -15.7515    1.0000 </r>
       <r>  -15.7495    1.0000 </r>
       <r>  -11.3696    1.0000 </r>
       <r>  -11.3376    1.0000 </r>
       <r>  -11.3075    1.0000 </r>
       <r>   -4.0220    1.0000 </r>
       <r>    2.4516    1.0000 </r>
       <r>    2.7303    1.0000 </r>
       <r>    3.1724    1.0000 </r>
       <r>    3.6143    1.0000 </r>
       <r>    3.7786    1.0000 </r>
       <r>    3.8636    1.0000 </r>
       <r>    4.2201    1.0000 </r>
       <r>    5.5397    1.0000 </r>
       <r>    7.2990    0.0000 </r>
       <r>    7.9587    0.0000 </r>
       <r>    8.3927    0.0000 </r>
       <r>    8.3990    0.0000 </r>
       <r>    8.5168    0.0000 </r>
       <r>    8.6662    0.0000 </r>
      </set>
      <set comment="kpoint 84">
       <r>  -33.4615    1.0000 </r>
       <r>  -15.7807    1.0000 </r>
       <r>  -15.7762    1.0000 </r>
       <r>  -15.7532    1.0000 </r>
       <r>  -15.7521    1.0000 </r>
       <r>  -15.7495    1.0000 </r>
       <r>  -11.3656    1.0000 </r>
       <r>  -11.3403    1.0000 </r>
       <r>  -11.3078    1.0000 </r>
       <r>   -4.0120    1.0000 </r>
       <r>    2.4331    1.0000 </r>
       <r>    2.7011    1.0000 </r>
       <r>    3.1834    1.0000 </r>
       <r>    3.6656    1.0000 </r>
       <r>    3.7994    1.0000 </r>
       <r>    3.8830    1.0000 </r>
       <r>    4.0650    1.0000 </r>
       <r>    5.5584    1.0000 </r>
       <r>    7.4701    0.0000 </r>
       <r>    7.8172    0.0000 </r>
       <r>    8.3738    0.0000 </r>
       <r>    8.4012    0.0000 </r>
       <r>    8.5385    0.0000 </r>
       <r>    8.6551    0.0000 </r>
      </set>
     </set>
    </set>
   </array>
  </eigenvalues>
  <separator name="orbital magnetization" >
   <v name="MAGDIPOLOUT">      0.00000000      0.00000000      0.00000000</v>
  </separator>
  <dos>
   <i name="efermi">      6.99612751 </i>
   <total>
    <array>
     <dimension dim="1">gridpoints</dimension>
     <dimension dim="2">spin</dimension>
     <field>energy</field>
     <field>total</field>
     <field>integrated</field>
     <set>
      <set comment="spin 1">
       <r>   -35.5732     0.0000     0.0000 </r>
       <r>   -35.4186     0.0000     0.0000 </r>
       <r>   -35.2639     0.0000     0.0000 </r>
       <r>   -35.1093     0.0000     0.0000 </r>
       <r>   -34.9546     0.0000     0.0000 </r>
       <r>   -34.8000     0.0000     0.0000 </r>
       <r>   -34.6453     0.0000     0.0000 </r>
       <r>   -34.4907     0.0000     0.0000 </r>
       <r>   -34.3360     0.0000     0.0000 </r>
       <r>   -34.1814     0.0000     0.0000 </r>
       <r>   -34.0267     0.0000     0.0000 </r>
       <r>   -33.8721     0.0000     0.0000 </r>
       <r>   -33.7174     0.0000     0.0000 </r>
       <r>   -33.5628     0.0000     0.0000 </r>
       <r>   -33.4081    12.9324     2.0000 </r>
       <r>   -33.2535     0.0000     2.0000 </r>
       <r>   -33.0988     0.0000     2.0000 </r>
       <r>   -32.9442     0.0000     2.0000 </r>
       <r>   -32.7895     0.0000     2.0000 </r>
       <r>   -32.6349     0.0000     2.0000 </r>
       <r>   -32.4802     0.0000     2.0000 </r>
       <r>   -32.3256     0.0000     2.0000 </r>
       <r>   -32.1709     0.0000     2.0000 </r>
       <r>   -32.0163     0.0000     2.0000 </r>
       <r>   -31.8616     0.0000     2.0000 </r>
       <r>   -31.7070     0.0000     2.0000 </r>
       <r>   -31.5523     0.0000     2.0000 </r>
       <r>   -31.3977     0.0000     2.0000 </r>
       <r>   -31.2431     0.0000     2.0000 </r>
       <r>   -31.0884     0.0000     2.0000 </r>
       <r>   -30.9338     0.0000     2.0000 </r>
       <r>   -30.7791     0.0000     2.0000 </r>
       <r>   -30.6245     0.0000     2.0000 </r>
       <r>   -30.4698     0.0000     2.0000 </r>
       <r>   -30.3152     0.0000     2.0000 </r>
       <r>   -30.1605     0.0000     2.0000 </r>
       <r>   -30.0059     0.0000     2.0000 </r>
       <r>   -29.8512     0.0000     2.0000 </r>
       <r>   -29.6966     0.0000     2.0000 </r>
       <r>   -29.5419     0.0000     2.0000 </r>
       <r>   -29.3873     0.0000     2.0000 </r>
       <r>   -29.2326     0.0000     2.0000 </r>
       <r>   -29.0780     0.0000     2.0000 </r>
       <r>   -28.9233     0.0000     2.0000 </r>
       <r>   -28.7687     0.0000     2.0000 </r>
       <r>   -28.6140     0.0000     2.0000 </r>
       <r>   -28.4594     0.0000     2.0000 </r>
       <r>   -28.3047     0.0000     2.0000 </r>
       <r>   -28.1501     0.0000     2.0000 </r>
       <r>   -27.9954     0.0000     2.0000 </r>
       <r>   -27.8408     0.0000     2.0000 </r>
       <r>   -27.6861     0.0000     2.0000 </r>
       <r>   -27.5315     0.0000     2.0000 </r>
       <r>   -27.3768     0.0000     2.0000 </r>
       <r>   -27.2222     0.0000     2.0000 </r>
       <r>   -27.0675     0.0000     2.0000 </r>
       <r>   -26.9129     0.0000     2.0000 </r>
       <r>   -26.7582     0.0000     2.0000 </r>
       <r>   -26.6036     0.0000     2.0000 </r>
       <r>   -26.4489     0.0000     2.0000 </r>
       <r>   -26.2943     0.0000     2.0000 </r>
       <r>   -26.1396     0.0000     2.0000 </r>
       <r>   -25.9850     0.0000     2.0000 </r>
       <r>   -25.8303     0.0000     2.0000 </r>
       <r>   -25.6757     0.0000     2.0000 </r>
       <r>   -25.5210     0.0000     2.0000 </r>
       <r>   -25.3664     0.0000     2.0000 </r>
       <r>   -25.2117     0.0000     2.0000 </r>
       <r>   -25.0571     0.0000     2.0000 </r>
       <r>   -24.9024     0.0000     2.0000 </r>
       <r>   -24.7478     0.0000     2.0000 </r>
       <r>   -24.5931     0.0000     2.0000 </r>
       <r>   -24.4385     0.0000     2.0000 </r>
       <r>   -24.2838     0.0000     2.0000 </r>
       <r>   -24.1292     0.0000     2.0000 </r>
       <r>   -23.9745     0.0000     2.0000 </r>
       <r>   -23.8199     0.0000     2.0000 </r>
       <r>   -23.6652     0.0000     2.0000 </r>
       <r>   -23.5106     0.0000     2.0000 </r>
       <r>   -23.3559     0.0000     2.0000 </r>
       <r>   -23.2013     0.0000     2.0000 </r>
       <r>   -23.0466     0.0000     2.0000 </r>
       <r>   -22.8920     0.0000     2.0000 </r>
       <r>   -22.7373     0.0000     2.0000 </r>
       <r>   -22.5827     0.0000     2.0000 </r>
       <r>   -22.4280     0.0000     2.0000 </r>
       <r>   -22.2734     0.0000     2.0000 </r>
       <r>   -22.1187     0.0000     2.0000 </r>
       <r>   -21.9641     0.0000     2.0000 </r>
       <r>   -21.8094     0.0000     2.0000 </r>
       <r>   -21.6548     0.0000     2.0000 </r>
       <r>   -21.5001     0.0000     2.0000 </r>
       <r>   -21.3455     0.0000     2.0000 </r>
       <r>   -21.1908     0.0000     2.0000 </r>
       <r>   -21.0362     0.0000     2.0000 </r>
       <r>   -20.8815     0.0000     2.0000 </r>
       <r>   -20.7269     0.0000     2.0000 </r>
       <r>   -20.5722     0.0000     2.0000 </r>
       <r>   -20.4176     0.0000     2.0000 </r>
       <r>   -20.2629     0.0000     2.0000 </r>
       <r>   -20.1083     0.0000     2.0000 </r>
       <r>   -19.9536     0.0000     2.0000 </r>
       <r>   -19.7990     0.0000     2.0000 </r>
       <r>   -19.6443     0.0000     2.0000 </r>
       <r>   -19.4897     0.0000     2.0000 </r>
       <r>   -19.3350     0.0000     2.0000 </r>
       <r>   -19.1804     0.0000     2.0000 </r>
       <r>   -19.0257     0.0000     2.0000 </r>
       <r>   -18.8711     0.0000     2.0000 </r>
       <r>   -18.7164     0.0000     2.0000 </r>
       <r>   -18.5618     0.0000     2.0000 </r>
       <r>   -18.4071     0.0000     2.0000 </r>
       <r>   -18.2525     0.0000     2.0000 </r>
       <r>   -18.0978     0.0000     2.0000 </r>
       <r>   -17.9432     0.0000     2.0000 </r>
       <r>   -17.7885     0.0000     2.0000 </r>
       <r>   -17.6339     0.0000     2.0000 </r>
       <r>   -17.4792     0.0000     2.0000 </r>
       <r>   -17.3246     0.0000     2.0000 </r>
       <r>   -17.1699     0.0000     2.0000 </r>
       <r>   -17.0153     0.0000     2.0000 </r>
       <r>   -16.8606     0.0000     2.0000 </r>
       <r>   -16.7060     0.0000     2.0000 </r>
       <r>   -16.5513     0.0000     2.0000 </r>
       <r>   -16.3967     0.0000     2.0000 </r>
       <r>   -16.2420     0.0000     2.0000 </r>
       <r>   -16.0874     0.0000     2.0000 </r>
       <r>   -15.9327     0.0000     2.0000 </r>
       <r>   -15.7781    15.7373     4.4338 </r>
       <r>   -15.6234     0.0000    12.0000 </r>
       <r>   -15.4688     0.0000    12.0000 </r>
       <r>   -15.3141     0.0000    12.0000 </r>
       <r>   -15.1595     0.0000    12.0000 </r>
       <r>   -15.0048     0.0000    12.0000 </r>
       <r>   -14.8502     0.0000    12.0000 </r>
       <r>   -14.6955     0.0000    12.0000 </r>
       <r>   -14.5409     0.0000    12.0000 </r>
       <r>   -14.3862     0.0000    12.0000 </r>
       <r>   -14.2316     0.0000    12.0000 </r>
       <r>   -14.0769     0.0000    12.0000 </r>
       <r>   -13.9223     0.0000    12.0000 </r>
       <r>   -13.7676     0.0000    12.0000 </r>
       <r>   -13.6130     0.0000    12.0000 </r>
       <r>   -13.4583     0.0000    12.0000 </r>
       <r>   -13.3037     0.0000    12.0000 </r>
       <r>   -13.1490     0.0000    12.0000 </r>
       <r>   -12.9944     0.0000    12.0000 </r>
       <r>   -12.8397     0.0000    12.0000 </r>
       <r>   -12.6851     0.0000    12.0000 </r>
       <r>   -12.5304     0.0000    12.0000 </r>
       <r>   -12.3758     0.0000    12.0000 </r>
       <r>   -12.2211     0.0000    12.0000 </r>
       <r>   -12.0665     0.0000    12.0000 </r>
       <r>   -11.9118     0.0000    12.0000 </r>
       <r>   -11.7572     0.0000    12.0000 </r>
       <r>   -11.6025     0.0000    12.0000 </r>
       <r>   -11.4479     0.0000    12.0000 </r>
       <r>   -11.2932    19.8434    16.4124 </r>
       <r>   -11.1386     0.0000    18.0000 </r>
       <r>   -10.9839     0.0000    18.0000 </r>
       <r>   -10.8293     0.0000    18.0000 </r>
       <r>   -10.6746     0.0000    18.0000 </r>
       <r>   -10.5200     0.0000    18.0000 </r>
       <r>   -10.3653     0.0000    18.0000 </r>
       <r>   -10.2107     0.0000    18.0000 </r>
       <r>   -10.0560     0.0000    18.0000 </r>
       <r>    -9.9014     0.0000    18.0000 </r>
       <r>    -9.7467     0.0000    18.0000 </r>
       <r>    -9.5921     0.0000    18.0000 </r>
       <r>    -9.4374     0.0000    18.0000 </r>
       <r>    -9.2828     0.0000    18.0000 </r>
       <r>    -9.1281     0.0000    18.0000 </r>
       <r>    -8.9735     0.0000    18.0000 </r>
       <r>    -8.8188     0.0000    18.0000 </r>
       <r>    -8.6642     0.0000    18.0000 </r>
       <r>    -8.5095     0.0000    18.0000 </r>
       <r>    -8.3549     0.0000    18.0000 </r>
       <r>    -8.2002     0.0000    18.0000 </r>
       <r>    -8.0456     0.0000    18.0000 </r>
       <r>    -7.8909     0.0000    18.0000 </r>
       <r>    -7.7363     0.0000    18.0000 </r>
       <r>    -7.5816     0.0000    18.0000 </r>
       <r>    -7.4270     0.0000    18.0000 </r>
       <r>    -7.2723     0.0000    18.0000 </r>
       <r>    -7.1177     0.0000    18.0000 </r>
       <r>    -6.9630     0.0000    18.0000 </r>
       <r>    -6.8084     0.0000    18.0000 </r>
       <r>    -6.6537     0.0000    18.0000 </r>
       <r>    -6.4991     0.0000    18.0000 </r>
       <r>    -6.3444     0.0000    18.0000 </r>
       <r>    -6.1898     0.0000    18.0000 </r>
       <r>    -6.0351     0.0000    18.0000 </r>
       <r>    -5.8805     0.0000    18.0000 </r>
       <r>    -5.7258     0.0000    18.0000 </r>
       <r>    -5.5712     0.0000    18.0000 </r>
       <r>    -5.4165     0.0000    18.0000 </r>
       <r>    -5.2619     0.0000    18.0000 </r>
       <r>    -5.1072     0.0000    18.0000 </r>
       <r>    -4.9526     0.0000    18.0000 </r>
       <r>    -4.7979     0.0000    18.0000 </r>
       <r>    -4.6433     0.0000    18.0000 </r>
       <r>    -4.4886     0.1329    18.0215 </r>
       <r>    -4.3340     0.3212    18.1034 </r>
       <r>    -4.1793     0.7989    18.2774 </r>
       <r>    -4.0247     3.2638    18.9827 </r>
       <r>    -3.8700     1.4581    19.9997 </r>
       <r>    -3.7154     0.0000    20.0000 </r>
       <r>    -3.5607     0.0000    20.0000 </r>
       <r>    -3.4061     0.0000    20.0000 </r>
       <r>    -3.2514     0.0000    20.0000 </r>
       <r>    -3.0968     0.0000    20.0000 </r>
       <r>    -2.9421     0.0000    20.0000 </r>
       <r>    -2.7875     0.0000    20.0000 </r>
       <r>    -2.6328     0.0000    20.0000 </r>
       <r>    -2.4782     0.0000    20.0000 </r>
       <r>    -2.3235     0.0000    20.0000 </r>
       <r>    -2.1689     0.0000    20.0000 </r>
       <r>    -2.0142     0.0000    20.0000 </r>
       <r>    -1.8596     0.0000    20.0000 </r>
       <r>    -1.7049     0.0000    20.0000 </r>
       <r>    -1.5503     0.0000    20.0000 </r>
       <r>    -1.3956     0.0000    20.0000 </r>
       <r>    -1.2410     0.0000    20.0000 </r>
       <r>    -1.0863     0.0000    20.0000 </r>
       <r>    -0.9317     0.0000    20.0000 </r>
       <r>    -0.7770     0.0000    20.0000 </r>
       <r>    -0.6224     0.0000    20.0000 </r>
       <r>    -0.4677     0.0000    20.0000 </r>
       <r>    -0.3131     0.0000    20.0000 </r>
       <r>    -0.1584     0.0000    20.0000 </r>
       <r>    -0.0038     0.0000    20.0000 </r>
       <r>     0.1509     0.0000    20.0000 </r>
       <r>     0.3055     0.0000    20.0000 </r>
       <r>     0.4602     0.0000    20.0000 </r>
       <r>     0.6148     0.0000    20.0000 </r>
       <r>     0.7695     0.0000    20.0000 </r>
       <r>     0.9241     0.0000    20.0000 </r>
       <r>     1.0788     0.0000    20.0000 </r>
       <r>     1.2334     0.0000    20.0000 </r>
       <r>     1.3881     0.0000    20.0000 </r>
       <r>     1.5427     0.0000    20.0000 </r>
       <r>     1.6974     0.3576    20.0626 </r>
       <r>     1.8520     0.8534    20.2776 </r>
       <r>     2.0067     1.7467    21.0221 </r>
       <r>     2.1613     1.8704    21.4144 </r>
       <r>     2.3159     1.1487    21.6688 </r>
       <r>     2.4706     0.9203    21.9084 </r>
       <r>     2.6252     0.1383    21.9677 </r>
       <r>     2.7799     4.1694    22.6239 </r>
       <r>     2.9345     3.3963    23.8734 </r>
       <r>     3.0892     2.5154    24.7550 </r>
       <r>     3.2438     3.6614    25.8534 </r>
       <r>     3.3985     0.1955    26.0412 </r>
       <r>     3.5531     1.1837    26.2759 </r>
       <r>     3.7078     6.1957    28.6659 </r>
       <r>     3.8624     5.2913    30.5707 </r>
       <r>     4.0171     2.5558    31.4057 </r>
       <r>     4.1717     0.7174    31.7386 </r>
       <r>     4.3264     0.5045    31.9588 </r>
       <r>     4.4810     0.3225    32.1436 </r>
       <r>     4.6357     0.6852    32.4965 </r>
       <r>     4.7903     1.0714    32.7665 </r>
       <r>     4.9450     0.8395    33.0802 </r>
       <r>     5.0996     0.8858    33.3059 </r>
       <r>     5.2543     0.6672    33.5889 </r>
       <r>     5.4089     2.7896    34.0809 </r>
       <r>     5.5636     3.4449    35.5587 </r>
       <r>     5.7182     0.6420    35.8244 </r>
       <r>     5.8729     0.1301    35.9455 </r>
       <r>     6.0275     0.0724    35.9839 </r>
       <r>     6.1822     0.0660    36.0084 </r>
       <r>     6.3368     0.0727    36.0267 </r>
       <r>     6.4915     0.0255    36.0504 </r>
       <r>     6.6461     0.5459    36.1818 </r>
       <r>     6.8008     0.8021    36.3598 </r>
       <r>     6.9554     1.6699    36.8163 </r>
       <r>     7.1101     1.2520    37.3579 </r>
       <r>     7.2647     1.2016    37.8581 </r>
       <r>     7.4194     0.8924    38.1680 </r>
       <r>     7.5740     0.4481    38.3342 </r>
       <r>     7.7287     0.7514    38.5158 </r>
       <r>     7.8833     1.1541    38.8348 </r>
       <r>     8.0380     3.2635    39.7464 </r>
       <r>     8.1926     2.4663    40.6281 </r>
       <r>     8.3473     3.9075    41.5702 </r>
       <r>     8.5019     6.3162    43.6486 </r>
       <r>     8.6566     6.1127    46.7105 </r>
       <r>     8.8112     0.0000    48.0000 </r>
       <r>     8.9659     0.0000    48.0000 </r>
       <r>     9.1205     0.0000    48.0000 </r>
       <r>     9.2752     0.0000    48.0000 </r>
       <r>     9.4298     0.0000    48.0000 </r>
       <r>     9.5845     0.0000    48.0000 </r>
       <r>     9.7391     0.0000    48.0000 </r>
       <r>     9.8938     0.0000    48.0000 </r>
       <r>    10.0484     0.0000    48.0000 </r>
       <r>    10.2031     0.0000    48.0000 </r>
       <r>    10.3577     0.0000    48.0000 </r>
       <r>    10.5124     0.0000    48.0000 </r>
       <r>    10.6670     0.0000    48.0000 </r>
       <r>    10.8217     0.0000    48.0000 </r>
      </set>
     </set>
    </array>
   </total>
  </dos>
 </calculation>
 <structure name="finalpos" >
  <crystal>
   <varray name="basis" >
    <v>       0.00000000       3.57775815       3.57775815 </v>
    <v>       3.57775815       0.00000000       3.57775815 </v>
    <v>       3.57775815       3.57775815       0.00000000 </v>
   </varray>
   <i name="volume">     91.59313761 </i>
   <varray name="rec_basis" >
    <v>      -0.13975232       0.13975232       0.13975232 </v>
    <v>       0.13975232      -0.13975232       0.13975232 </v>
    <v>       0.13975232       0.13975232      -0.13975232 </v>
   </varray>
  </crystal>
  <varray name="positions" >
   <v>       0.25000000       0.25000000       0.25000000 </v>
   <v>       0.75000000       0.75000000       0.75000000 </v>
   <v>       0.00000000       0.00000000       0.00000000 </v>
  </varray>
 </structure>
</modeling>
