 running  128 mpi-ranks, with    1 threads/rank, on    1 nodes
 distrk:  each k-point on   32 cores,    4 groups
 distr:  one band on   16 cores,    2 groups
 vasp.6.4.3 19Mar24 (build Jun  3 2025 16:21:13) complex                         
 POSCAR found type information on POSCAR Fe
 POSCAR found :  1 types and       1 ions
 Reading from existing POTCAR
 scaLAPACK will be used
 Reading from existing POTCAR
 LDA part: xc-table for (Slater+PW92), standard interpolation
 -----------------------------------------------------------------------------
|                                                                             |
|           W    W    AA    RRRRR   N    N  II  N    N   GGGG   !!!           |
|           W    W   A  A   R    R  NN   N  II  NN   N  G    G  !!!           |
|           W    W  A    A  R    R  N N  N  II  N N  N  G       !!!           |
|           W WW W  AAAAAA  RRRRR   N  N N  II  N  N N  G  GGG   !            |
|           WW  WW  A    A  R   R   N   NN  II  N   NN  G    G                |
|           W    W  A    A  R    R  N    N  II  N    N   GGGG   !!!           |
|                                                                             |
|     The requested file  could not be found or opened for reading            |
|     k-point information. Automatic k-point generation is used as a          |
|     fallback, which may lead to unwanted results.                           |
|                                                                             |
 -----------------------------------------------------------------------------

 INCAR ok, starting setup
 POSCAR ok, starting setup
 FFT: planning ... GRIDC
 FFT: planning ... GRID_SOFT
 FFT: planning ... GRID
 WAVECAR not read
 entering main loop
       N       E                     dE             d eps       ncg     rms          rms(c)
DAV:   1     0.415030066924E+02    0.41503E+02   -0.26613E+03 43240   0.317E+02
DAV:   2    -0.526074888043E+01   -0.46764E+02   -0.41155E+02 38584   0.893E+01
DAV:   3    -0.802299079031E+01   -0.27622E+01   -0.27167E+01 45480   0.196E+01
DAV:   4    -0.803059825241E+01   -0.76075E-02   -0.76005E-02 39736   0.101E+00
DAV:   5    -0.803059942841E+01   -0.11760E-05   -0.11738E-05 43920   0.128E-02    0.140E+01
DAV:   6    -0.826802718740E+01   -0.23743E+00   -0.66063E+00 43104   0.141E+01    0.435E+00
DAV:   7    -0.825224097754E+01    0.15786E-01   -0.26958E-01 40624   0.254E+00    0.287E+00
DAV:   8    -0.824302750066E+01    0.92135E-02   -0.76031E-03 44304   0.299E-01    0.108E+00
DAV:   9    -0.823777538819E+01    0.52521E-02   -0.82889E-03 44224   0.263E-01    0.223E-01
DAV:  10    -0.823761535119E+01    0.16004E-03   -0.98727E-04 42488   0.184E-01    0.573E-02
DAV:  11    -0.823764518984E+01   -0.29839E-04   -0.48306E-05 40024   0.221E-02    0.500E-02
DAV:  12    -0.823763607728E+01    0.91126E-05   -0.80990E-07 45928   0.358E-03    0.238E-02
DAV:  13    -0.823763406282E+01    0.20145E-05   -0.25886E-06 44464   0.799E-03    0.727E-03
DAV:  14    -0.823763355032E+01    0.51250E-06   -0.16588E-07 33136   0.137E-03    0.664E-04
DAV:  15    -0.823763373208E+01   -0.18176E-06   -0.20672E-08 20936   0.546E-04    0.856E-04
DAV:  16    -0.823763368696E+01    0.45120E-07   -0.19909E-09 19712   0.207E-04
   1 F= -.82376337E+01 E0= -.82376337E+01  d E =0.000000E+00  mag=     2.2236
 -----------------------------------------------------------------------------
|                                                                             |
|           W    W    AA    RRRRR   N    N  II  N    N   GGGG   !!!           |
|           W    W   A  A   R    R  NN   N  II  NN   N  G    G  !!!           |
|           W    W  A    A  R    R  N N  N  II  N N  N  G       !!!           |
|           W WW W  AAAAAA  RRRRR   N  N N  II  N  N N  G  GGG   !            |
|           WW  WW  A    A  R   R   N   NN  II  N   NN  G    G                |
|           W    W  A    A  R    R  N    N  II  N    N   GGGG   !!!           |
|                                                                             |
|     Tetrahedron method does not include variations of the Fermi             |
|     occupations, so forces and stress will be inaccurate. We suggest        |
|     using a different smearing scheme ISMEAR = 1 or 2 for metals in         |
|     relaxations.                                                            |
|                                                                             |
 -----------------------------------------------------------------------------

 PROFILE, used timers:     425
