unknown system                          
            1
    -1.435028    1.435028    1.435028
     1.435028   -1.435028    1.435028
     1.435028    1.435028   -1.435028
   Fe
     1
Direct configuration=     1
   0.00000000  0.00000000  0.00000000
