   2   2   0   0
  0.2541336E+02  0.4157852E-09  0.4157852E-09  0.4157852E-09  0.0000000E+00
  1.000000000000000E-004
  CAR 
 unknown system                          
     16.60133329     -6.42515239  301      6.17225415      1.00000000
     -6.425  0.0000E+00  0.0000E+00
     -6.348  0.0000E+00  0.0000E+00
     -6.272  0.0000E+00  0.0000E+00
     -6.195  0.0000E+00  0.0000E+00
     -6.118  0.0000E+00  0.0000E+00
     -6.041  0.0000E+00  0.0000E+00
     -5.965  0.0000E+00  0.0000E+00
     -5.888  0.0000E+00  0.0000E+00
     -5.811  0.0000E+00  0.0000E+00
     -5.734  0.0000E+00  0.0000E+00
     -5.658  0.0000E+00  0.0000E+00
     -5.581  0.0000E+00  0.0000E+00
     -5.504  0.0000E+00  0.0000E+00
     -5.427  0.0000E+00  0.0000E+00
     -5.351  0.7551E-01  0.7025E-03
     -5.274  0.1444E+00  0.9002E-02
     -5.197  0.1971E+00  0.2188E-01
     -5.120  0.2330E+00  0.3840E-01
     -5.044  0.2752E+00  0.5796E-01
     -4.967  0.3056E+00  0.8018E-01
     -4.890  0.3417E+00  0.1050E+00
     -4.813  0.3703E+00  0.1323E+00
     -4.737  0.4021E+00  0.1620E+00
     -4.660  0.4346E+00  0.1941E+00
     -4.583  0.4647E+00  0.2286E+00
     -4.506  0.4976E+00  0.2655E+00
     -4.430  0.5319E+00  0.3050E+00
     -4.353  0.5667E+00  0.3472E+00
     -4.276  0.6045E+00  0.3921E+00
     -4.199  0.6452E+00  0.4401E+00
     -4.123  0.6911E+00  0.4913E+00
     -4.046  0.7427E+00  0.5463E+00
     -3.969  0.8010E+00  0.6055E+00
     -3.892  0.8728E+00  0.6696E+00
     -3.815  0.9688E+00  0.7401E+00
     -3.739  0.1107E+01  0.8192E+00
     -3.662  0.1357E+01  0.9144E+00
     -3.585  0.1393E+01  0.1022E+01
     -3.508  0.1347E+01  0.1127E+01
     -3.432  0.1349E+01  0.1231E+01
     -3.355  0.1341E+01  0.1334E+01
     -3.278  0.1326E+01  0.1436E+01
     -3.201  0.1349E+01  0.1539E+01
     -3.125  0.1367E+01  0.1643E+01
     -3.048  0.1434E+01  0.1750E+01
     -2.971  0.1608E+01  0.1866E+01
     -2.894  0.5651E+00  0.1993E+01
     -2.818  0.0000E+00  0.2000E+01
     -2.741  0.0000E+00  0.2000E+01
     -2.664  0.0000E+00  0.2000E+01
     -2.587  0.0000E+00  0.2000E+01
     -2.511  0.0000E+00  0.2000E+01
     -2.434  0.0000E+00  0.2000E+01
     -2.357  0.0000E+00  0.2000E+01
     -2.280  0.0000E+00  0.2000E+01
     -2.204  0.0000E+00  0.2000E+01
     -2.127  0.0000E+00  0.2000E+01
     -2.050  0.0000E+00  0.2000E+01
     -1.973  0.0000E+00  0.2000E+01
     -1.897  0.0000E+00  0.2000E+01
     -1.820  0.0000E+00  0.2000E+01
     -1.743  0.0000E+00  0.2000E+01
     -1.666  0.0000E+00  0.2000E+01
     -1.590  0.0000E+00  0.2000E+01
     -1.513  0.0000E+00  0.2000E+01
     -1.436  0.0000E+00  0.2000E+01
     -1.359  0.0000E+00  0.2000E+01
     -1.283  0.0000E+00  0.2000E+01
     -1.206  0.0000E+00  0.2000E+01
     -1.129  0.0000E+00  0.2000E+01
     -1.052  0.0000E+00  0.2000E+01
     -0.976  0.0000E+00  0.2000E+01
     -0.899  0.0000E+00  0.2000E+01
     -0.822  0.0000E+00  0.2000E+01
     -0.745  0.0000E+00  0.2000E+01
     -0.669  0.0000E+00  0.2000E+01
     -0.592  0.0000E+00  0.2000E+01
     -0.515  0.0000E+00  0.2000E+01
     -0.438  0.0000E+00  0.2000E+01
     -0.362  0.0000E+00  0.2000E+01
     -0.285  0.0000E+00  0.2000E+01
     -0.208  0.0000E+00  0.2000E+01
     -0.131  0.0000E+00  0.2000E+01
     -0.054  0.0000E+00  0.2000E+01
      0.022  0.0000E+00  0.2000E+01
      0.099  0.0000E+00  0.2000E+01
      0.176  0.5955E+00  0.2026E+01
      0.253  0.9616E+00  0.2084E+01
      0.329  0.1447E+01  0.2175E+01
      0.406  0.2485E+01  0.2320E+01
      0.483  0.2976E+01  0.2591E+01
      0.560  0.1738E+01  0.2757E+01
      0.636  0.1288E+01  0.2871E+01
      0.713  0.1091E+01  0.2962E+01
      0.790  0.9155E+00  0.3039E+01
      0.867  0.8107E+00  0.3105E+01
      0.943  0.7351E+00  0.3164E+01
      1.020  0.6606E+00  0.3217E+01
      1.097  0.5923E+00  0.3265E+01
      1.174  0.5545E+00  0.3309E+01
      1.250  0.5172E+00  0.3350E+01
      1.327  0.4805E+00  0.3389E+01
      1.404  0.4377E+00  0.3424E+01
      1.481  0.4123E+00  0.3456E+01
      1.557  0.3918E+00  0.3487E+01
      1.634  0.3714E+00  0.3517E+01
      1.711  0.3477E+00  0.3544E+01
      1.788  0.3253E+00  0.3570E+01
      1.864  0.3030E+00  0.3594E+01
      1.941  0.2907E+00  0.3617E+01
      2.018  0.2779E+00  0.3639E+01
      2.095  0.2642E+00  0.3659E+01
      2.171  0.2503E+00  0.3679E+01
      2.248  0.5394E+00  0.3709E+01
      2.325  0.8276E+00  0.3764E+01
      2.402  0.1135E+01  0.3838E+01
      2.478  0.1358E+01  0.3944E+01
      2.555  0.1243E+01  0.4043E+01
      2.632  0.1139E+01  0.4134E+01
      2.709  0.1086E+01  0.4219E+01
      2.785  0.1069E+01  0.4302E+01
      2.862  0.1057E+01  0.4384E+01
      2.939  0.1019E+01  0.4464E+01
      3.016  0.1055E+01  0.4544E+01
      3.092  0.1103E+01  0.4627E+01
      3.169  0.1161E+01  0.4714E+01
      3.246  0.1200E+01  0.4805E+01
      3.323  0.1240E+01  0.4900E+01
      3.399  0.1304E+01  0.4996E+01
      3.476  0.1393E+01  0.5099E+01
      3.553  0.1578E+01  0.5212E+01
      3.630  0.1721E+01  0.5341E+01
      3.707  0.1648E+01  0.5469E+01
      3.783  0.1636E+01  0.5596E+01
      3.860  0.1597E+01  0.5720E+01
      3.937  0.1587E+01  0.5842E+01
      4.014  0.1563E+01  0.5963E+01
      4.090  0.1527E+01  0.6081E+01
      4.167  0.1500E+01  0.6198E+01
      4.244  0.1488E+01  0.6312E+01
      4.321  0.1473E+01  0.6426E+01
      4.397  0.1449E+01  0.6538E+01
      4.474  0.1429E+01  0.6648E+01
      4.551  0.1408E+01  0.6757E+01
      4.628  0.1381E+01  0.6864E+01
      4.704  0.1366E+01  0.6970E+01
      4.781  0.1365E+01  0.7075E+01
      4.858  0.1351E+01  0.7178E+01
      4.935  0.1344E+01  0.7282E+01
      5.011  0.1313E+01  0.7384E+01
      5.088  0.1173E+01  0.7483E+01
      5.165  0.9420E+00  0.7562E+01
      5.242  0.8164E+00  0.7629E+01
      5.318  0.7192E+00  0.7688E+01
      5.395  0.6394E+00  0.7740E+01
      5.472  0.5745E+00  0.7787E+01
      5.549  0.5109E+00  0.7828E+01
      5.625  0.4558E+00  0.7865E+01
      5.702  0.4008E+00  0.7898E+01
      5.779  0.3439E+00  0.7927E+01
      5.856  0.3106E+00  0.7952E+01
      5.932  0.2439E+00  0.7973E+01
      6.009  0.1731E+00  0.7989E+01
      6.086  0.9107E-01  0.7999E+01
      6.163  0.0000E+00  0.8000E+01
      6.239  0.0000E+00  0.8000E+01
      6.316  0.0000E+00  0.8000E+01
      6.393  0.0000E+00  0.8000E+01
      6.470  0.0000E+00  0.8000E+01
      6.546  0.0000E+00  0.8000E+01
      6.623  0.0000E+00  0.8000E+01
      6.700  0.0000E+00  0.8000E+01
      6.777  0.0000E+00  0.8000E+01
      6.853  0.0000E+00  0.8000E+01
      6.930  0.0000E+00  0.8000E+01
      7.007  0.0000E+00  0.8000E+01
      7.084  0.4587E-02  0.8000E+01
      7.160  0.8828E-01  0.8003E+01
      7.237  0.1621E+00  0.8013E+01
      7.314  0.2106E+00  0.8027E+01
      7.391  0.2710E+00  0.8046E+01
      7.467  0.3209E+00  0.8069E+01
      7.544  0.3947E+00  0.8096E+01
      7.621  0.4709E+00  0.8129E+01
      7.698  0.5162E+00  0.8167E+01
      7.775  0.5659E+00  0.8209E+01
      7.851  0.6171E+00  0.8254E+01
      7.928  0.6870E+00  0.8304E+01
      8.005  0.7897E+00  0.8360E+01
      8.082  0.9065E+00  0.8426E+01
      8.158  0.9833E+00  0.8498E+01
      8.235  0.1076E+01  0.8577E+01
      8.312  0.1177E+01  0.8663E+01
      8.389  0.1287E+01  0.8758E+01
      8.465  0.1441E+01  0.8862E+01
      8.542  0.1789E+01  0.8989E+01
      8.619  0.1842E+01  0.9129E+01
      8.696  0.1788E+01  0.9269E+01
      8.772  0.1848E+01  0.9406E+01
      8.849  0.1692E+01  0.9540E+01
      8.926  0.1652E+01  0.9668E+01
      9.003  0.1777E+01  0.9798E+01
      9.079  0.1325E+01  0.9924E+01
      9.156  0.1229E+01  0.1002E+02
      9.233  0.1087E+01  0.1011E+02
      9.310  0.9264E+00  0.1019E+02
      9.386  0.7092E+00  0.1025E+02
      9.463  0.7402E+00  0.1031E+02
      9.540  0.7582E+00  0.1036E+02
      9.617  0.9081E+00  0.1043E+02
      9.693  0.1821E+01  0.1053E+02
      9.770  0.2505E+01  0.1069E+02
      9.847  0.2569E+01  0.1090E+02
      9.924  0.2800E+01  0.1111E+02
     10.000  0.1734E+01  0.1129E+02
     10.077  0.1632E+01  0.1141E+02
     10.154  0.1643E+01  0.1154E+02
     10.231  0.1540E+01  0.1167E+02
     10.307  0.1468E+01  0.1178E+02
     10.384  0.1263E+01  0.1188E+02
     10.461  0.1283E+01  0.1198E+02
     10.538  0.1280E+01  0.1208E+02
     10.614  0.1378E+01  0.1218E+02
     10.691  0.1613E+01  0.1229E+02
     10.768  0.1565E+01  0.1241E+02
     10.845  0.1762E+01  0.1254E+02
     10.921  0.1443E+01  0.1266E+02
     10.998  0.1316E+01  0.1277E+02
     11.075  0.1318E+01  0.1287E+02
     11.152  0.1387E+01  0.1297E+02
     11.228  0.1572E+01  0.1309E+02
     11.305  0.1460E+01  0.1320E+02
     11.382  0.1346E+01  0.1331E+02
     11.459  0.1281E+01  0.1341E+02
     11.536  0.1272E+01  0.1351E+02
     11.612  0.1233E+01  0.1361E+02
     11.689  0.1265E+01  0.1370E+02
     11.766  0.1185E+01  0.1380E+02
     11.843  0.1344E+01  0.1389E+02
     11.919  0.1242E+01  0.1398E+02
     11.996  0.1164E+01  0.1408E+02
     12.073  0.1172E+01  0.1417E+02
     12.150  0.1102E+01  0.1425E+02
     12.226  0.9911E+00  0.1433E+02
     12.303  0.9709E+00  0.1441E+02
     12.380  0.1029E+01  0.1448E+02
     12.457  0.9622E+00  0.1456E+02
     12.533  0.9691E+00  0.1463E+02
     12.610  0.9979E+00  0.1471E+02
     12.687  0.1152E+01  0.1479E+02
     12.764  0.1485E+01  0.1489E+02
     12.840  0.1308E+01  0.1500E+02
     12.917  0.1269E+01  0.1510E+02
     12.994  0.1048E+01  0.1519E+02
     13.071  0.9829E+00  0.1527E+02
     13.147  0.8855E+00  0.1534E+02
     13.224  0.7868E+00  0.1540E+02
     13.301  0.7024E+00  0.1546E+02
     13.378  0.6385E+00  0.1551E+02
     13.454  0.5668E+00  0.1556E+02
     13.531  0.4839E+00  0.1560E+02
     13.608  0.4105E+00  0.1563E+02
     13.685  0.3779E+00  0.1566E+02
     13.761  0.3567E+00  0.1569E+02
     13.838  0.3336E+00  0.1572E+02
     13.915  0.3139E+00  0.1574E+02
     13.992  0.3046E+00  0.1576E+02
     14.068  0.3089E+00  0.1579E+02
     14.145  0.3035E+00  0.1581E+02
     14.222  0.2661E+00  0.1583E+02
     14.299  0.2318E+00  0.1585E+02
     14.375  0.2070E+00  0.1587E+02
     14.452  0.1887E+00  0.1589E+02
     14.529  0.1738E+00  0.1590E+02
     14.606  0.1656E+00  0.1591E+02
     14.682  0.1544E+00  0.1592E+02
     14.759  0.1431E+00  0.1594E+02
     14.836  0.1329E+00  0.1595E+02
     14.913  0.1290E+00  0.1596E+02
     14.989  0.1090E+00  0.1597E+02
     15.066  0.9409E-01  0.1597E+02
     15.143  0.7724E-01  0.1598E+02
     15.220  0.6250E-01  0.1599E+02
     15.296  0.4987E-01  0.1599E+02
     15.373  0.3934E-01  0.1599E+02
     15.450  0.3187E-01  0.1600E+02
     15.527  0.4956E-01  0.1600E+02
     15.604  0.0000E+00  0.1600E+02
     15.680  0.0000E+00  0.1600E+02
     15.757  0.0000E+00  0.1600E+02
     15.834  0.0000E+00  0.1600E+02
     15.911  0.0000E+00  0.1600E+02
     15.987  0.0000E+00  0.1600E+02
     16.064  0.0000E+00  0.1600E+02
     16.141  0.0000E+00  0.1600E+02
     16.218  0.0000E+00  0.1600E+02
     16.294  0.0000E+00  0.1600E+02
     16.371  0.0000E+00  0.1600E+02
     16.448  0.0000E+00  0.1600E+02
     16.525  0.0000E+00  0.1600E+02
     16.601  0.0000E+00  0.1600E+02
