    2    2    1    1
  0.2541336E+02  0.4157852E-09  0.4157852E-09  0.4157852E-09  0.0000000E+00
  1.000000000000000E-004
  CAR 
 unknown system                          
      8    220      8
 
  0.0000000E+00  0.0000000E+00  0.0000000E+00  0.1457938E-03
    1       -5.378494   1.000000
    2        6.135662   1.000000
    3        6.135662   1.000000
    4        6.135663   1.000000
    5        8.847830   0.000000
    6        9.308904   0.000000
    7        9.308904   0.000000
    8        9.308904   0.000000
 
  0.5263158E-01  0.0000000E+00  0.0000000E+00  0.1166351E-02
    1       -5.348474   1.000000
    2        5.773512   1.000000
    3        6.090674   1.000000
    4        6.090675   1.000000
    5        8.969460   0.000000
    6        9.376577   0.000000
    7        9.376577   0.000000
    8        9.481358   0.000000
 
  0.1052632E+00  0.0000000E+00  0.0000000E+00  0.1166351E-02
    1       -5.258993   1.000000
    2        4.992112   1.000000
    3        5.970557   1.000000
    4        5.970557   1.000000
    5        8.883562   0.000000
    6        9.554604   0.000000
    7        9.554604   0.000000
    8       10.172134   0.000000
 
  0.1578947E+00  0.0000000E+00  0.0000000E+00  0.1166351E-02
    1       -5.112245   1.000000
    2        4.097090   1.000000
    3        5.807476   1.000000
    4        5.807476   1.000000
    5        8.686964   0.000000
    6        9.778249   0.000000
    7        9.778249   0.000000
    8       11.034037   0.000000
 
  0.2105263E+00  0.0000000E+00  0.0000000E+00  0.1166351E-02
    1       -4.912423   1.000000
    2        3.199739   1.000000
    3        5.632019   1.000000
    4        5.632020   1.000000
    5        8.476642   0.000000
    6        9.964066   0.000000
    7        9.964066   0.000000
    8       11.903444   0.000000
 
  0.2631579E+00  0.0000000E+00  0.0000000E+00  0.1166351E-02
    1       -4.667048   1.000000
    2        2.347322   1.000000
    3        5.465817   1.000000
    4        5.465817   1.000000
    5        8.284278   0.000000
    6       10.048078   0.000000
    7       10.048078   0.000000
    8       12.677564   0.000000
 
  0.3157895E+00  0.0000000E+00  0.0000000E+00  0.1166351E-02
    1       -4.389509   1.000000
    2        1.571527   1.000000
    3        5.322408   1.000000
    4        5.322408   1.000000
    5        8.123607   0.000000
    6       10.031391   0.000000
    7       10.031391   0.000000
    8       12.986541   0.000000
 
  0.3684211E+00  0.0000000E+00  0.0000000E+00  0.1166351E-02
    1       -4.103747   1.000000
    2        0.906023   1.000000
    3        5.209841   1.000000
    4        5.209842   1.000000
    5        8.000713   0.000000
    6        9.964246   0.000000
    7        9.964246   0.000000
    8       12.882445   0.000000
 
  0.4210526E+00  0.0000000E+00  0.0000000E+00  0.1166351E-02
    1       -3.851710   1.000000
    2        0.398290   1.000000
    3        5.132761   1.000000
    4        5.132761   1.000000
    5        7.918098   0.000000
    6        9.895647   0.000000
    7        9.895647   0.000000
    8       12.754597   0.000000
 
  0.4736842E+00  0.0000000E+00  0.0000000E+00  0.1166351E-02
    1       -3.696451   1.000000
    2        0.114495   1.000000
    3        5.093676   1.000000
    4        5.093676   1.000000
    5        7.876678   0.000000
    6        9.854993   0.000000
    7        9.854993   0.000000
    8       12.682816   0.000000
 
  0.5263158E-01  0.5263158E-01  0.0000000E+00  0.8747631E-03
    1       -5.338438   1.000000
    2        5.818653   1.000000
    3        5.988589   1.000000
    4        5.988589   1.000000
    5        9.062419   0.000000
    6        9.277629   0.000000
    7        9.509135   0.000000
    8        9.509135   0.000000
 
  0.1052632E+00  0.5263158E-01  0.0000000E+00  0.3499052E-02
    1       -5.268711   1.000000
    2        5.208632   1.000000
    3        5.826865   1.000000
    4        5.930918   1.000000
    5        9.031384   0.000000
    6        9.335715   0.000000
    7        9.740703   0.000000
    8       10.034609   0.000000
 
  0.1578947E+00  0.5263158E-01  0.0000000E+00  0.3499052E-02
    1       -5.140928   1.000000
    2        4.365724   1.000000
    3        5.640420   1.000000
    4        5.821233   1.000000
    5        8.920378   0.000000
    6        9.434009   0.000000
    7       10.007590   0.000000
    8       10.802262   0.000000
 
  0.2105263E+00  0.5263158E-01  0.0000000E+00  0.3499052E-02
    1       -4.958494   1.000000
    2        3.482001   1.000000
    3        5.456912   1.000000
    4        5.656114   1.000000
    5        8.742100   0.000000
    6        9.621848   0.000000
    7       10.230317   0.000000
    8       11.484112   0.000000
 
  0.2631579E+00  0.5263158E-01  0.0000000E+00  0.3499052E-02
    1       -4.727662   1.000000
    2        2.623260   1.000000
    3        5.294512   1.000000
    4        5.470131   1.000000
    5        8.557072   0.000000
    6        9.771873   0.000000
    7       10.338652   0.000000
    8       11.956302   0.000000
 
  0.3157895E+00  0.5263158E-01  0.0000000E+00  0.3499052E-02
    1       -4.459491   1.000000
    2        1.826829   1.000000
    3        5.164165   1.000000
    4        5.288182   1.000000
    5        8.392697   0.000000
    6        9.821381   0.000000
    7       10.320910   0.000000
    8       12.378774   0.000000
 
  0.3684211E+00  0.5263158E-01  0.0000000E+00  0.3499052E-02
    1       -4.173680   1.000000
    2        1.125903   1.000000
    3        5.072110   1.000000
    4        5.125794   1.000000
    5        8.260555   0.000000
    6        9.800074   0.000000
    7       10.225940   0.000000
    8       12.774010   0.000000
 
  0.4210526E+00  0.5263158E-01  0.0000000E+00  0.3499052E-02
    1       -3.905287   1.000000
    2        0.563086   1.000000
    3        4.992551   1.000000
    4        5.021483   1.000000
    5        8.165835   0.000000
    6        9.764815   0.000000
    7       10.110521   0.000000
    8       12.895719   0.000000
 
  0.4736842E+00  0.5263158E-01  0.0000000E+00  0.3499052E-02
    1       -3.710848   1.000000
    2        0.199179   1.000000
    3        4.894555   1.000000
    4        5.013279   1.000000
    5        8.110810   0.000000
    6        9.753463   0.000000
    7       10.011830   0.000000
    8       12.872783   0.000000
 
 -0.4736842E+00  0.5263158E-01  0.0000000E+00  0.3499052E-02
    1       -3.655633   1.000000
    2        0.101564   1.000000
    3        4.835852   1.000000
    4        5.046933   1.000000
    5        8.096373   0.000000
    6        9.783369   0.000000
    7        9.948504   0.000000
    8       12.866140   0.000000
 
 -0.4210526E+00  0.5263158E-01  0.0000000E+00  0.3499052E-02
    1       -3.763370   1.000000
    2        0.294471   1.000000
    3        4.819098   1.000000
    4        5.120507   1.000000
    5        8.122712   0.000000
    6        9.857816   0.000000
    7        9.925670   0.000000
    8       12.905166   0.000000
 
 -0.3684211E+00  0.5263158E-01  0.0000000E+00  0.3499052E-02
    1       -3.990078   1.000000
    2        0.732840   1.000000
    3        4.845835   1.000000
    4        5.230708   1.000000
    5        8.189626   0.000000
    6        9.936209   0.000000
    7        9.968032   0.000000
    8       12.964522   0.000000
 
 -0.3157895E+00  0.5263158E-01  0.0000000E+00  0.3499052E-02
    1       -4.269462   1.000000
    2        1.347513   1.000000
    3        4.916427   1.000000
    4        5.372490   1.000000
    5        8.296260   0.000000
    6        9.957737   0.000000
    7       10.089481   0.000000
    8       12.911249   0.000000
 
 -0.2631579E+00  0.5263158E-01  0.0000000E+00  0.3499052E-02
    1       -4.552337   1.000000
    2        2.083889   1.000000
    3        5.029830   1.000000
    4        5.538281   1.000000
    5        8.440464   0.000000
    6        9.948933   0.000000
    7       10.172826   0.000000
    8       12.539235   0.000000
 
 -0.2105263E+00  0.5263158E-01  0.0000000E+00  0.3499052E-02
    1       -4.809674   1.000000
    2        2.903152   1.000000
    3        5.183159   1.000000
    4        5.716483   1.000000
    5        8.617151   0.000000
    6        9.862694   0.000000
    7       10.143044   0.000000
    8       11.991343   0.000000
 
 -0.1578947E+00  0.5263158E-01  0.0000000E+00  0.3499052E-02
    1       -5.025242   1.000000
    2        3.770344   1.000000
    3        5.371216   1.000000
    4        5.889072   1.000000
    5        8.814708   0.000000
    6        9.693665   0.000000
    7        9.951298   0.000000
    8       11.353323   0.000000
 
 -0.1052632E+00  0.5263158E-01  0.0000000E+00  0.3499052E-02
    1       -5.189942   1.000000
    2        4.635050   1.000000
    3        5.587650   1.000000
    4        6.029454   1.000000
    5        9.003916   0.000000
    6        9.503829   0.000000
    7        9.650500   0.000000
    8       10.632740   0.000000
 
 -0.5263158E-01  0.5263158E-01  0.0000000E+00  0.1749526E-02
    1       -5.298586   1.000000
    2        5.378550   1.000000
    3        5.838705   1.000000
    4        6.104944   1.000000
    5        9.075049   0.000000
    6        9.378342   0.000000
    7        9.414307   0.000000
    8        9.935756   0.000000
 
  0.1052632E+00  0.1052632E+00  0.0000000E+00  0.8747631E-03
    1       -5.218874   1.000000
    2        5.123551   1.000000
    3        5.634157   1.000000
    4        5.634157   1.000000
    5        8.808305   0.000000
    6        9.836435   0.000000
    7       10.021272   0.000000
    8       10.021272   0.000000
 
  0.1578947E+00  0.1052632E+00  0.0000000E+00  0.3499052E-02
    1       -5.110587   1.000000
    2        4.503728   1.000000
    3        5.427796   1.000000
    4        5.509784   1.000000
    5        8.720024   0.000000
    6        9.798841   0.000000
    7       10.336441   0.000000
    8       10.625630   0.000000
 
  0.2105263E+00  0.1052632E+00  0.0000000E+00  0.3499052E-02
    1       -4.946665   1.000000
    2        3.701842   1.000000
    3        5.233481   1.000000
    4        5.365837   1.000000
    5        8.759755   0.000000
    6        9.725379   0.000000
    7       10.611673   0.000000
    8       11.003753   0.000000
 
  0.2631579E+00  0.1052632E+00  0.0000000E+00  0.3499052E-02
    1       -4.732296   1.000000
    2        2.877178   1.000000
    3        5.067664   1.000000
    4        5.168673   1.000000
    5        8.775263   0.000000
    6        9.751439   0.000000
    7       10.769517   0.000000
    8       11.126847   0.000000
 
  0.3157895E+00  0.1052632E+00  0.0000000E+00  0.3499052E-02
    1       -4.476698   1.000000
    2        2.087638   1.000000
    3        4.940270   1.000000
    4        4.952247   1.000000
    5        8.709503   0.000000
    6        9.803979   0.000000
    7       10.778325   0.000000
    8       11.362017   0.000000
 
  0.3684211E+00  0.1052632E+00  0.0000000E+00  0.3499052E-02
    1       -4.196158   1.000000
    2        1.372594   1.000000
    3        4.743395   1.000000
    4        4.856930   1.000000
    5        8.614726   0.000000
    6        9.792483   0.000000
    7       10.678816   0.000000
    8       11.830374   0.000000
 
  0.4210526E+00  0.1052632E+00  0.0000000E+00  0.3499052E-02
    1       -3.919740   1.000000
    2        0.773532   1.000000
    3        4.558730   1.000000
    4        4.820380   1.000000
    5        8.534078   0.000000
    6        9.750197   0.000000
    7       10.534969   0.000000
    8       12.439548   0.000000
 
  0.4736842E+00  0.1052632E+00  0.0000000E+00  0.3499052E-02
    1       -3.696249   1.000000
    2        0.346248   1.000000
    3        4.408579   1.000000
    4        4.831238   1.000000
    5        8.486187   0.000000
    6        9.724493   0.000000
    7       10.392777   0.000000
    8       12.999574   0.000000
 
 -0.4736842E+00  0.1052632E+00  0.0000000E+00  0.3499052E-02
    1       -3.590830   1.000000
    2        0.159546   1.000000
    3        4.299813   1.000000
    4        4.888357   1.000000
    5        8.477504   0.000000
    6        9.738962   0.000000
    7       10.276913   0.000000
    8       13.270736   0.000000
 
 -0.4210526E+00  0.1052632E+00  0.0000000E+00  0.3499052E-02
    1       -3.646151   1.000000
    2        0.257300   1.000000
    3        4.237369   1.000000
    4        4.988866   1.000000
    5        8.508832   0.000000
    6        9.802232   0.000000
    7       10.196853   0.000000
    8       13.337635   0.000000
 
 -0.3684211E+00  0.1052632E+00  0.0000000E+00  0.3499052E-02
    1       -3.838607   1.000000
    2        0.614963   1.000000
    3        4.225005   1.000000
    4        5.127992   1.000000
    5        8.578434   0.000000
    6        9.912389   0.000000
    7       10.149618   0.000000
    8       13.249851   0.000000
 
 -0.3157895E+00  0.1052632E+00  0.0000000E+00  0.3499052E-02
    1       -4.104229   1.000000
    2        1.164906   1.000000
    3        4.265906   1.000000
    4        5.298505   1.000000
    5        8.683416   0.000000
    6       10.053416   0.000000
    7       10.117631   0.000000
    8       12.859602   0.000000
 
 -0.2631579E+00  0.1052632E+00  0.0000000E+00  0.3499052E-02
    1       -4.387323   1.000000
    2        1.843720   1.000000
    3        4.363475   1.000000
    4        5.489648   1.000000
    5        8.819668   0.000000
    6       10.064867   0.000000
    7       10.180477   0.000000
    8       12.292926   0.000000
 
 -0.2105263E+00  0.1052632E+00  0.0000000E+00  0.3499052E-02
    1       -4.653175   1.000000
    2        2.600924   1.000000
    3        4.523441   1.000000
    4        5.685405   1.000000
    5        8.979344   0.000000
    6        9.948644   0.000000
    7       10.191341   0.000000
    8       11.807350   0.000000
 
 -0.1578947E+00  0.1052632E+00  0.0000000E+00  0.3499052E-02
    1       -4.882160   1.000000
    2        3.382378   1.000000
    3        4.760170   1.000000
    4        5.862198   1.000000
    5        9.140707   0.000000
    6        9.768235   0.000000
    7        9.979222   0.000000
    8       11.498972   0.000000
 
 -0.1052632E+00  0.1052632E+00  0.0000000E+00  0.1749526E-02
    1       -5.063157   1.000000
    2        4.098745   1.000000
    3        5.110282   1.000000
    4        5.988017   1.000000
    5        9.207201   0.000000
    6        9.591466   0.000000
    7        9.693024   0.000000
    8       11.162058   0.000000
 
  0.1578947E+00  0.1578947E+00  0.0000000E+00  0.8747631E-03
    1       -5.021914   1.000000
    2        4.311490   1.000000
    3        5.205730   1.000000
    4        5.205730   1.000000
    5        8.415052   0.000000
    6       10.169579   0.000000
    7       10.707493   0.000000
    8       10.707494   0.000000
 
  0.2105263E+00  0.1578947E+00  0.0000000E+00  0.3499052E-02
    1       -4.877154   1.000000
    2        3.743166   1.000000
    3        4.999662   1.000000
    4        5.022913   1.000000
    5        8.330204   0.000000
    6       10.033085   0.000000
    7       10.969556   0.000000
    8       11.051105   0.000000
 
  0.2631579E+00  0.1578947E+00  0.0000000E+00  0.3499052E-02
    1       -4.680636   1.000000
    2        3.030808   1.000000
    3        4.813379   1.000000
    4        4.825737   1.000000
    5        8.407507   0.000000
    6        9.953437   0.000000
    7       10.922404   0.000000
    8       11.284260   0.000000
 
  0.3157895E+00  0.1578947E+00  0.0000000E+00  0.3499052E-02
    1       -4.440179   1.000000
    2        2.298169   1.000000
    3        4.562534   1.000000
    4        4.693788   1.000000
    5        8.487413   0.000000
    6       10.085598   0.000000
    7       10.805217   0.000000
    8       11.350148   0.000000
 
  0.3684211E+00  0.1578947E+00  0.0000000E+00  0.3499052E-02
    1       -4.169380   1.000000
    2        1.604929   1.000000
    3        4.304619   1.000000
    4        4.609517   1.000000
    5        8.491334   0.000000
    6       10.310593   0.000000
    7       10.871545   0.000000
    8       11.271888   0.000000
 
  0.4210526E+00  0.1578947E+00  0.0000000E+00  0.3499052E-02
    1       -3.892430   1.000000
    2        0.998413   1.000000
    3        4.065992   1.000000
    4        4.575791   1.000000
    5        8.464197   0.000000
    6       10.304530   0.000000
    7       11.119461   0.000000
    8       11.393339   0.000000
 
  0.4736842E+00  0.1578947E+00  0.0000000E+00  0.3499052E-02
    1       -3.650607   1.000000
    2        0.532861   1.000000
    3        3.862662   1.000000
    4        4.593374   1.000000
    5        8.455995   0.000000
    6       10.232076   0.000000
    7       10.950118   0.000000
    8       12.135348   0.000000
 
 -0.4736842E+00  0.1578947E+00  0.0000000E+00  0.3499052E-02
    1       -3.504287   1.000000
    2        0.275498   1.000000
    3        3.704720   1.000000
    4        4.661184   1.000000
    5        8.489040   0.000000
    6       10.182153   0.000000
    7       10.795801   0.000000
    8       12.946374   0.000000
 
 -0.4210526E+00  0.1578947E+00  0.0000000E+00  0.3499052E-02
    1       -3.507249   1.000000
    2        0.282850   1.000000
    3        3.599406   1.000000
    4        4.776250   1.000000
    5        8.569180   0.000000
    6       10.172956   0.000000
    7       10.669979   0.000000
    8       13.649911   0.000000
 
 -0.3684211E+00  0.1578947E+00  0.0000000E+00  0.3499052E-02
    1       -3.658052   1.000000
    2        0.552355   1.000000
    3        3.553090   1.000000
    4        4.933357   1.000000
    5        8.693448   0.000000
    6       10.210031   0.000000
    7       10.571936   0.000000
    8       13.490581   0.000000
 
 -0.3157895E+00  0.1578947E+00  0.0000000E+00  0.3499052E-02
    1       -3.901721   1.000000
    2        1.022884   1.000000
    3        3.573213   1.000000
    4        5.124243   1.000000
    5        8.852783   0.000000
    6       10.289758   0.000000
    7       10.484997   0.000000
    8       12.803309   0.000000
 
 -0.2631579E+00  0.1578947E+00  0.0000000E+00  0.3499052E-02
    1       -4.178594   1.000000
    2        1.620001   1.000000
    3        3.671882   1.000000
    4        5.336239   1.000000
    5        9.032047   0.000000
    6       10.372327   0.000000
    7       10.383777   0.000000
    8       12.102742   0.000000
 
 -0.2105263E+00  0.1578947E+00  0.0000000E+00  0.3499052E-02
    1       -4.448323   1.000000
    2        2.270221   1.000000
    3        3.873896   1.000000
    4        5.550131   1.000000
    5        9.204526   0.000000
    6       10.193376   0.000000
    7       10.382728   0.000000
    8       11.592386   0.000000
 
 -0.1578947E+00  0.1578947E+00  0.0000000E+00  0.1749526E-02
    1       -4.687290   1.000000
    2        2.884863   1.000000
    3        4.226595   1.000000
    4        5.737674   1.000000
    5        9.299133   0.000000
    6        9.963540   0.000000
    7       10.152309   0.000000
    8       11.460596   0.000000
 
  0.2105263E+00  0.2105263E+00  0.0000000E+00  0.8747631E-03
    1       -4.751680   1.000000
    2        3.473703   1.000000
    3        4.782024   1.000000
    4        4.782024   1.000000
    5        8.026818   0.000000
    6        9.776352   0.000000
    7       11.483194   0.000000
    8       11.483194   0.000000
 
  0.2631579E+00  0.2105263E+00  0.0000000E+00  0.3499052E-02
    1       -4.573963   1.000000
    2        2.962955   1.000000
    3        4.564418   1.000000
    4        4.597474   1.000000
    5        7.964519   0.000000
    6        9.524661   0.000000
    7       11.658512   0.000000
    8       11.822824   0.000000
 
  0.3157895E+00  0.2105263E+00  0.0000000E+00  0.3499052E-02
    1       -4.350677   1.000000
    2        2.358009   1.000000
    3        4.284177   1.000000
    4        4.456367   1.000000
    5        8.061931   0.000000
    6        9.468312   0.000000
    7       11.573029   0.000000
    8       11.984878   0.000000
 
  0.3684211E+00  0.2105263E+00  0.0000000E+00  0.3499052E-02
    1       -4.093466   1.000000
    2        1.743600   1.000000
    3        3.968034   1.000000
    4        4.364819   1.000000
    5        8.143734   0.000000
    6        9.721507   0.000000
    7       11.424030   0.000000
    8       11.959978   0.000000
 
  0.4210526E+00  0.2105263E+00  0.0000000E+00  0.3499052E-02
    1       -3.822729   1.000000
    2        1.176424   1.000000
    3        3.660667   1.000000
    4        4.326081   1.000000
    5        8.161193   0.000000
    6       10.262087   0.000000
    7       11.279283   0.000000
    8       11.820204   0.000000
 
  0.4736842E+00  0.2105263E+00  0.0000000E+00  0.3499052E-02
    1       -3.573304   1.000000
    2        0.712351   1.000000
    3        3.390309   1.000000
    4        4.341258   1.000000
    5        8.174863   0.000000
    6       10.910552   0.000000
    7       11.235622   0.000000
    8       11.638878   0.000000
 
 -0.4736842E+00  0.2105263E+00  0.0000000E+00  0.3499052E-02
    1       -3.398578   1.000000
    2        0.416823   1.000000
    3        3.172815   1.000000
    4        4.409599   1.000000
    5        8.225926   0.000000
    6       10.989112   0.000000
    7       11.458424   0.000000
    8       11.909128   0.000000
 
 -0.4210526E+00  0.2105263E+00  0.0000000E+00  0.3499052E-02
    1       -3.355418   1.000000
    2        0.352047   1.000000
    3        3.018820   1.000000
    4        4.528395   1.000000
    5        8.328623   0.000000
    6       10.937058   0.000000
    7       11.296756   0.000000
    8       12.823607   0.000000
 
 -0.3684211E+00  0.2105263E+00  0.0000000E+00  0.3499052E-02
    1       -3.460891   1.000000
    2        0.533183   1.000000
    3        2.938717   1.000000
    4        4.692593   1.000000
    5        8.484014   0.000000
    6       10.916266   0.000000
    7       11.153240   0.000000
    8       13.596426   0.000000
 
 -0.3157895E+00  0.2105263E+00  0.0000000E+00  0.3499052E-02
    1       -3.674436   1.000000
    2        0.907662   1.000000
    3        2.948025   1.000000
    4        4.893901   1.000000
    5        8.684566   0.000000
    6       10.931747   0.000000
    7       11.005596   0.000000
    8       12.759476   0.000000
 
 -0.2631579E+00  0.2105263E+00  0.0000000E+00  0.3499052E-02
    1       -3.937223   1.000000
    2        1.386049   1.000000
    3        3.076065   1.000000
    4        5.119192   1.000000
    5        8.911873   0.000000
    6       10.804979   0.000000
    7       10.955297   0.000000
    8       11.987553   0.000000
 
 -0.2105263E+00  0.2105263E+00  0.0000000E+00  0.1749526E-02
    1       -4.204338   1.000000
    2        1.866451   1.000000
    3        3.373012   1.000000
    4        5.348082   1.000000
    5        9.123320   0.000000
    6       10.515352   0.000000
    7       10.795491   0.000000
    8       11.539920   0.000000
 
  0.2631579E+00  0.2631579E+00  0.0000000E+00  0.8747631E-03
    1       -4.415422   1.000000
    2        2.644961   1.000000
    3        4.401275   1.000000
    4        4.401275   1.000000
    5        7.686089   0.000000
    6        9.128226   0.000000
    7       12.304885   0.000000
    8       12.304886   0.000000
 
  0.3157895E+00  0.2631579E+00  0.0000000E+00  0.3499052E-02
    1       -4.210888   1.000000
    2        2.188640   1.000000
    3        4.170833   1.000000
    4        4.248498   1.000000
    5        7.655216   0.000000
    6        8.898232   0.000000
    7       12.487368   0.000000
    8       12.619989   0.000000
 
  0.3684211E+00  0.2631579E+00  0.0000000E+00  0.3499052E-02
    1       -3.970680   1.000000
    2        1.691761   1.000000
    3        3.835233   1.000000
    4        4.145921   1.000000
    5        7.764751   0.000000
    6        8.929874   0.000000
    7       12.411486   0.000000
    8       12.699530   0.000000
 
  0.4210526E+00  0.2631579E+00  0.0000000E+00  0.3499052E-02
    1       -3.712485   1.000000
    2        1.212925   1.000000
    3        3.458514   1.000000
    4        4.097314   1.000000
    5        7.836244   0.000000
    6        9.310957   0.000000
    7       12.268106   0.000000
    8       12.601578   0.000000
 
  0.4736842E+00  0.2631579E+00  0.0000000E+00  0.3499052E-02
    1       -3.466236   1.000000
    2        0.802559   1.000000
    3        3.102616   1.000000
    4        4.104203   1.000000
    5        7.869868   0.000000
    6        9.963138   0.000000
    7       12.121046   0.000000
    8       12.424207   0.000000
 
 -0.4736842E+00  0.2631579E+00  0.0000000E+00  0.3499052E-02
    1       -3.278078   1.000000
    2        0.518526   1.000000
    3        2.804056   1.000000
    4        4.166253   1.000000
    5        7.927546   0.000000
    6       10.770875   0.000000
    7       11.999224   0.000000
    8       12.227686   0.000000
 
 -0.4210526E+00  0.2631579E+00  0.0000000E+00  0.3499052E-02
    1       -3.201793   1.000000
    2        0.419032   1.000000
    3        2.584651   1.000000
    4        4.281177   1.000000
    5        8.035557   0.000000
    6       11.604525   0.000000
    7       11.984599   0.000000
    8       12.035858   0.000000
 
 -0.3684211E+00  0.2631579E+00  0.0000000E+00  0.3499052E-02
    1       -3.264696   1.000000
    2        0.525335   1.000000
    3        2.464522   1.000000
    4        4.444399   1.000000
    5        8.199553   0.000000
    6       11.768759   0.000000
    7       11.843711   0.000000
    8       12.739009   0.000000
 
 -0.3157895E+00  0.2631579E+00  0.0000000E+00  0.3499052E-02
    1       -3.442089   1.000000
    2        0.788030   1.000000
    3        2.474715   1.000000
    4        4.648096   1.000000
    5        8.414897   0.000000
    6       11.608422   0.000000
    7       11.741655   0.000000
    8       12.759364   0.000000
 
 -0.2631579E+00  0.2631579E+00  0.0000000E+00  0.1749526E-02
    1       -3.681573   1.000000
    2        1.105065   1.000000
    3        2.665594   1.000000
    4        4.879673   1.000000
    5        8.665958   0.000000
    6       11.257397   0.000000
    7       11.586111   0.000000
    8       12.068229   0.000000
 
  0.3157895E+00  0.3157895E+00  0.0000000E+00  0.8747631E-03
    1       -4.026215   1.000000
    2        1.849697   1.000000
    3        4.082887   1.000000
    4        4.082887   1.000000
    5        7.414014   0.000000
    6        8.520684   0.000000
    7       13.149972   0.000000
    8       13.149972   0.000000
 
  0.3684211E+00  0.3157895E+00  0.0000000E+00  0.3499052E-02
    1       -3.806170   1.000000
    2        1.449929   1.000000
    3        3.857117   1.000000
    4        3.967212   1.000000
    5        7.418177   0.000000
    6        8.356918   0.000000
    7       13.347491   0.000000
    8       13.427108   0.000000
 
  0.4210526E+00  0.3157895E+00  0.0000000E+00  0.3499052E-02
    1       -3.566930   1.000000
    2        1.060138   1.000000
    3        3.491947   1.000000
    4        3.905867   1.000000
    5        7.531977   0.000000
    6        8.504323   0.000000
    7       13.284146   0.000000
    8       13.427229   0.000000
 
  0.4736842E+00  0.3157895E+00  0.0000000E+00  0.3499052E-02
    1       -3.335225   1.000000
    2        0.728113   1.000000
    3        3.078245   1.000000
    4        3.900878   1.000000
    5        7.598831   0.000000
    6        9.013481   0.000000
    7       13.146221   0.000000
    8       13.277198   0.000000
 
 -0.4736842E+00  0.3157895E+00  0.0000000E+00  0.3499052E-02
    1       -3.151158   1.000000
    2        0.498947   1.000000
    3        2.694354   1.000000
    4        3.952357   1.000000
    5        7.662413   0.000000
    6        9.757656   0.000000
    7       13.000038   0.000000
    8       13.074170   0.000000
 
 -0.4210526E+00  0.3157895E+00  0.0000000E+00  0.3499052E-02
    1       -3.061546   1.000000
    2        0.413431   1.000000
    3        2.392578   1.000000
    4        4.058507   1.000000
    5        7.769922   0.000000
    6       10.637766   0.000000
    7       12.851227   0.000000
    8       12.870682   0.000000
 
 -0.3684211E+00  0.3157895E+00  0.0000000E+00  0.3499052E-02
    1       -3.094082   1.000000
    2        0.478041   1.000000
    3        2.218077   1.000000
    4        4.215309   1.000000
    5        7.934038   0.000000
    6       11.597669   0.000000
    7       12.584380   0.000000
    8       12.768190   0.000000
 
 -0.3157895E+00  0.3157895E+00  0.0000000E+00  0.1749526E-02
    1       -3.234796   1.000000
    2        0.633641   1.000000
    3        2.227459   1.000000
    4        4.415707   1.000000
    5        8.153155   0.000000
    6       12.179972   0.000000
    7       12.358495   0.000000
    8       12.826783   0.000000
 
  0.3684211E+00  0.3684211E+00  0.0000000E+00  0.8747631E-03
    1       -3.609342   1.000000
    2        1.120486   1.000000
    3        3.837466   1.000000
    4        3.837466   1.000000
    5        7.221889   0.000000
    6        8.027275   0.000000
    7       14.004477   0.000000
    8       14.004477   0.000000
 
  0.4210526E+00  0.3684211E+00  0.0000000E+00  0.3499052E-02
    1       -3.396153   1.000000
    2        0.793005   1.000000
    3        3.629979   1.000000
    4        3.761799   1.000000
    5        7.260654   0.000000
    6        7.944436   0.000000
    7       14.211525   0.000000
    8       14.233775   0.000000
 
  0.4736842E+00  0.3684211E+00  0.0000000E+00  0.3499052E-02
    1       -3.192019   1.000000
    2        0.524581   1.000000
    3        3.262630   1.000000
    4        3.742808   1.000000
    5        7.372234   0.000000
    6        8.217693   0.000000
    7       14.155944   0.000000
    8       14.163677   0.000000
 