 running on   48 total cores
 distrk:  each k-point on   12 cores,    4 groups
 distr:  one band on   12 cores,    1 groups
 using from now: INCAR     
 vasp.5.4.4.18Apr17-6-g9f103f2a35 (build Nov 04 2020 14:40:39) complex          
  
 POSCAR found type information on POSCAR  Al Sb
 POSCAR found :  2 types and       2 ions
 scaLAPACK will be used

 ----------------------------------------------------------------------------- 
|                                                                             |
|           W    W    AA    RRRRR   N    N  II  N    N   GGGG   !!!           |
|           W    W   A  A   R    R  NN   N  II  NN   N  G    G  !!!           |
|           W    W  A    A  R    R  N N  N  II  N N  N  G       !!!           |
|           W WW W  AAAAAA  RRRRR   N  N N  II  N  N N  G  GGG   !            |
|           WW  WW  A    A  R   R   N   NN  II  N   NN  G    G                |
|           W    W  A    A  R    R  N    N  II  N    N   GGGG   !!!           |
|                                                                             |
|      You have enabled k-point parallelism (KPAR>1).                         |
|      This developmental code was originally  written by Paul Kent at ORNL,  |
|      and carefully double checked in Vienna.                                |
|      GW as well as linear response parallelism added by Martijn Marsman     |
|      and Georg Kresse.                                                      |
|      Carefully verify results versus KPAR=1.                                |
|      Report problems to Paul Kent and Vienna.                               |
|                                                                             |
 ----------------------------------------------------------------------------- 

 LDA part: xc-table for Pade appr. of Perdew
 POSCAR found type information on POSCAR  Al Sb
 POSCAR found :  2 types and       2 ions
 generate k-points for:   19   19   19
 POSCAR, INCAR and KPOINTS ok, starting setup
 FFT: planning ...
 WAVECAR not read
 entering main loop
       N       E                     dE             d eps       ncg     rms          rms(c)
DAV:   1     0.145916114792E+02    0.14592E+02   -0.28985E+03  3520   0.745E+02
DAV:   2    -0.752707861380E+01   -0.22119E+02   -0.21844E+02  4952   0.866E+01
DAV:   3    -0.798016004782E+01   -0.45308E+00   -0.45157E+00  4528   0.140E+01
DAV:   4    -0.798306160953E+01   -0.29016E-02   -0.29016E-02  5368   0.129E+00
DAV:   5    -0.798307301787E+01   -0.11408E-04   -0.11408E-04  4760   0.634E-02    0.230E+00
RMM:   6    -0.789627216290E+01    0.86801E-01   -0.57844E-02  3521   0.143E+00    0.137E+00
RMM:   7    -0.786528015634E+01    0.30992E-01   -0.91183E-02  3587   0.188E+00    0.181E-01
RMM:   8    -0.786609381302E+01   -0.81366E-03   -0.28994E-03  3800   0.404E-01    0.540E-02
RMM:   9    -0.786635921345E+01   -0.26540E-03   -0.50708E-04  3802   0.160E-01    0.150E-02
RMM:  10    -0.786635667184E+01    0.25416E-05   -0.46670E-05  4181   0.494E-02    0.524E-03
RMM:  11    -0.786635779854E+01   -0.11267E-05   -0.74729E-06  3930   0.216E-02    0.225E-03
RMM:  12    -0.786635841467E+01   -0.61613E-06   -0.50868E-07  2890   0.633E-03
   1 F= -.78663584E+01 E0= -.78663584E+01  d E =0.000000E+00
