   3   3   0   0
  0.2093608E+02  0.4461805E-09  0.4461805E-09  0.4461805E-09  0.5000000E-15
  1.000000000000000E-004
  CAR
 unknown system
     15.47167419    -33.92601426  301     12.31010347      1.00000000
    -33.926  0.0000E+00  0.0000E+00
    -33.761  0.0000E+00  0.0000E+00
    -33.597  0.0000E+00  0.0000E+00
    -33.432  0.0000E+00  0.0000E+00
    -33.267  0.0000E+00  0.0000E+00
    -33.103  0.0000E+00  0.0000E+00
    -32.938  0.0000E+00  0.0000E+00
    -32.773  0.0000E+00  0.0000E+00
    -32.609  0.0000E+00  0.0000E+00
    -32.444  0.0000E+00  0.0000E+00
    -32.279  0.0000E+00  0.0000E+00
    -32.115  0.0000E+00  0.0000E+00
    -31.950  0.0000E+00  0.0000E+00
    -31.785  0.0000E+00  0.0000E+00
    -31.621  0.1215E+02  0.2000E+01
    -31.456  0.0000E+00  0.2000E+01
    -31.291  0.0000E+00  0.2000E+01
    -31.127  0.0000E+00  0.2000E+01
    -30.962  0.0000E+00  0.2000E+01
    -30.797  0.0000E+00  0.2000E+01
    -30.633  0.0000E+00  0.2000E+01
    -30.468  0.0000E+00  0.2000E+01
    -30.304  0.0000E+00  0.2000E+01
    -30.139  0.0000E+00  0.2000E+01
    -29.974  0.0000E+00  0.2000E+01
    -29.810  0.0000E+00  0.2000E+01
    -29.645  0.0000E+00  0.2000E+01
    -29.480  0.0000E+00  0.2000E+01
    -29.316  0.0000E+00  0.2000E+01
    -29.151  0.0000E+00  0.2000E+01
    -28.986  0.0000E+00  0.2000E+01
    -28.822  0.0000E+00  0.2000E+01
    -28.657  0.0000E+00  0.2000E+01
    -28.492  0.0000E+00  0.2000E+01
    -28.328  0.0000E+00  0.2000E+01
    -28.163  0.0000E+00  0.2000E+01
    -27.998  0.0000E+00  0.2000E+01
    -27.834  0.0000E+00  0.2000E+01
    -27.669  0.0000E+00  0.2000E+01
    -27.504  0.0000E+00  0.2000E+01
    -27.340  0.0000E+00  0.2000E+01
    -27.175  0.0000E+00  0.2000E+01
    -27.010  0.0000E+00  0.2000E+01
    -26.846  0.0000E+00  0.2000E+01
    -26.681  0.0000E+00  0.2000E+01
    -26.516  0.0000E+00  0.2000E+01
    -26.352  0.0000E+00  0.2000E+01
    -26.187  0.0000E+00  0.2000E+01
    -26.022  0.0000E+00  0.2000E+01
    -25.858  0.0000E+00  0.2000E+01
    -25.693  0.0000E+00  0.2000E+01
    -25.528  0.0000E+00  0.2000E+01
    -25.364  0.0000E+00  0.2000E+01
    -25.199  0.0000E+00  0.2000E+01
    -25.034  0.0000E+00  0.2000E+01
    -24.870  0.0000E+00  0.2000E+01
    -24.705  0.0000E+00  0.2000E+01
    -24.540  0.0000E+00  0.2000E+01
    -24.376  0.0000E+00  0.2000E+01
    -24.211  0.0000E+00  0.2000E+01
    -24.046  0.0000E+00  0.2000E+01
    -23.882  0.0000E+00  0.2000E+01
    -23.717  0.0000E+00  0.2000E+01
    -23.552  0.0000E+00  0.2000E+01
    -23.388  0.0000E+00  0.2000E+01
    -23.223  0.0000E+00  0.2000E+01
    -23.059  0.0000E+00  0.2000E+01
    -22.894  0.0000E+00  0.2000E+01
    -22.729  0.0000E+00  0.2000E+01
    -22.565  0.0000E+00  0.2000E+01
    -22.400  0.0000E+00  0.2000E+01
    -22.235  0.0000E+00  0.2000E+01
    -22.071  0.0000E+00  0.2000E+01
    -21.906  0.0000E+00  0.2000E+01
    -21.741  0.0000E+00  0.2000E+01
    -21.577  0.0000E+00  0.2000E+01
    -21.412  0.0000E+00  0.2000E+01
    -21.247  0.0000E+00  0.2000E+01
    -21.083  0.0000E+00  0.2000E+01
    -20.918  0.0000E+00  0.2000E+01
    -20.753  0.0000E+00  0.2000E+01
    -20.589  0.0000E+00  0.2000E+01
    -20.424  0.0000E+00  0.2000E+01
    -20.259  0.0000E+00  0.2000E+01
    -20.095  0.0000E+00  0.2000E+01
    -19.930  0.0000E+00  0.2000E+01
    -19.765  0.0000E+00  0.2000E+01
    -19.601  0.0000E+00  0.2000E+01
    -19.436  0.0000E+00  0.2000E+01
    -19.271  0.0000E+00  0.2000E+01
    -19.107  0.0000E+00  0.2000E+01
    -18.942  0.0000E+00  0.2000E+01
    -18.777  0.0000E+00  0.2000E+01
    -18.613  0.0000E+00  0.2000E+01
    -18.448  0.0000E+00  0.2000E+01
    -18.283  0.0000E+00  0.2000E+01
    -18.119  0.0000E+00  0.2000E+01
    -17.954  0.0000E+00  0.2000E+01
    -17.789  0.0000E+00  0.2000E+01
    -17.625  0.0000E+00  0.2000E+01
    -17.460  0.0000E+00  0.2000E+01
    -17.295  0.0000E+00  0.2000E+01
    -17.131  0.0000E+00  0.2000E+01
    -16.966  0.0000E+00  0.2000E+01
    -16.801  0.0000E+00  0.2000E+01
    -16.637  0.0000E+00  0.2000E+01
    -16.472  0.0000E+00  0.2000E+01
    -16.308  0.0000E+00  0.2000E+01
    -16.143  0.0000E+00  0.2000E+01
    -15.978  0.0000E+00  0.2000E+01
    -15.814  0.0000E+00  0.2000E+01
    -15.649  0.0000E+00  0.2000E+01
    -15.484  0.0000E+00  0.2000E+01
    -15.320  0.0000E+00  0.2000E+01
    -15.155  0.0000E+00  0.2000E+01
    -14.990  0.0000E+00  0.2000E+01
    -14.826  0.0000E+00  0.2000E+01
    -14.661  0.0000E+00  0.2000E+01
    -14.496  0.0000E+00  0.2000E+01
    -14.332  0.0000E+00  0.2000E+01
    -14.167  0.0000E+00  0.2000E+01
    -14.002  0.0000E+00  0.2000E+01
    -13.838  0.0000E+00  0.2000E+01
    -13.673  0.0000E+00  0.2000E+01
    -13.508  0.0000E+00  0.2000E+01
    -13.344  0.0000E+00  0.2000E+01
    -13.179  0.0000E+00  0.2000E+01
    -13.014  0.0000E+00  0.2000E+01
    -12.850  0.0000E+00  0.2000E+01
    -12.685  0.0000E+00  0.2000E+01
    -12.520  0.0000E+00  0.2000E+01
    -12.356  0.0000E+00  0.2000E+01
    -12.191  0.0000E+00  0.2000E+01
    -12.026  0.0000E+00  0.2000E+01
    -11.862  0.0000E+00  0.2000E+01
    -11.697  0.0000E+00  0.2000E+01
    -11.532  0.0000E+00  0.2000E+01
    -11.368  0.0000E+00  0.2000E+01
    -11.203  0.0000E+00  0.2000E+01
    -11.038  0.0000E+00  0.2000E+01
    -10.874  0.3262E+02  0.8610E+01
    -10.709  0.0000E+00  0.1200E+02
    -10.544  0.0000E+00  0.1200E+02
    -10.380  0.0000E+00  0.1200E+02
    -10.215  0.0000E+00  0.1200E+02
    -10.050  0.0000E+00  0.1200E+02
     -9.886  0.0000E+00  0.1200E+02
     -9.721  0.0000E+00  0.1200E+02
     -9.556  0.0000E+00  0.1200E+02
     -9.392  0.0000E+00  0.1200E+02
     -9.227  0.0000E+00  0.1200E+02
     -9.063  0.0000E+00  0.1200E+02
     -8.898  0.0000E+00  0.1200E+02
     -8.733  0.0000E+00  0.1200E+02
     -8.569  0.0000E+00  0.1200E+02
     -8.404  0.0000E+00  0.1200E+02
     -8.239  0.0000E+00  0.1200E+02
     -8.075  0.0000E+00  0.1200E+02
     -7.910  0.0000E+00  0.1200E+02
     -7.745  0.0000E+00  0.1200E+02
     -7.581  0.2706E-02  0.1200E+02
     -7.416  0.6292E+01  0.1329E+02
     -7.251  0.2457E+01  0.1427E+02
     -7.087  0.8971E+01  0.1687E+02
     -6.922  0.0000E+00  0.1800E+02
     -6.757  0.0000E+00  0.1800E+02
     -6.593  0.0000E+00  0.1800E+02
     -6.428  0.0000E+00  0.1800E+02
     -6.263  0.0000E+00  0.1800E+02
     -6.099  0.0000E+00  0.1800E+02
     -5.934  0.0000E+00  0.1800E+02
     -5.769  0.0000E+00  0.1800E+02
     -5.605  0.0000E+00  0.1800E+02
     -5.440  0.0000E+00  0.1800E+02
     -5.275  0.0000E+00  0.1800E+02
     -5.111  0.0000E+00  0.1800E+02
     -4.946  0.0000E+00  0.1800E+02
     -4.781  0.0000E+00  0.1800E+02
     -4.617  0.0000E+00  0.1800E+02
     -4.452  0.0000E+00  0.1800E+02
     -4.287  0.0000E+00  0.1800E+02
     -4.123  0.0000E+00  0.1800E+02
     -3.958  0.0000E+00  0.1800E+02
     -3.793  0.0000E+00  0.1800E+02
     -3.629  0.0000E+00  0.1800E+02
     -3.464  0.0000E+00  0.1800E+02
     -3.299  0.0000E+00  0.1800E+02
     -3.135  0.0000E+00  0.1800E+02
     -2.970  0.0000E+00  0.1800E+02
     -2.805  0.0000E+00  0.1800E+02
     -2.641  0.0000E+00  0.1800E+02
     -2.476  0.0000E+00  0.1800E+02
     -2.311  0.0000E+00  0.1800E+02
     -2.147  0.0000E+00  0.1800E+02
     -1.982  0.0000E+00  0.1800E+02
     -1.818  0.0000E+00  0.1800E+02
     -1.653  0.0000E+00  0.1800E+02
     -1.488  0.0000E+00  0.1800E+02
     -1.324  0.0000E+00  0.1800E+02
     -1.159  0.3907E-02  0.1800E+02
     -0.994  0.7740E-01  0.1801E+02
     -0.830  0.6645E-01  0.1802E+02
     -0.665  0.3240E-01  0.1806E+02
     -0.500  0.2654E+00  0.1810E+02
     -0.336  0.4423E-01  0.1815E+02
     -0.171  0.8340E+00  0.1831E+02
     -0.006  0.1390E+01  0.1867E+02
      0.158  0.1576E+01  0.1924E+02
      0.323  0.1147E+01  0.1974E+02
      0.488  0.6638E+00  0.1995E+02
      0.652  0.4423E-01  0.2000E+02
      0.817  0.0000E+00  0.2000E+02
      0.982  0.0000E+00  0.2000E+02
      1.146  0.0000E+00  0.2000E+02
      1.311  0.0000E+00  0.2000E+02
      1.476  0.0000E+00  0.2000E+02
      1.640  0.0000E+00  0.2000E+02
      1.805  0.0000E+00  0.2000E+02
      1.970  0.0000E+00  0.2000E+02
      2.134  0.0000E+00  0.2000E+02
      2.299  0.0000E+00  0.2000E+02
      2.464  0.0000E+00  0.2000E+02
      2.628  0.0000E+00  0.2000E+02
      2.793  0.0000E+00  0.2000E+02
      2.958  0.0000E+00  0.2000E+02
      3.122  0.0000E+00  0.2000E+02
      3.287  0.0000E+00  0.2000E+02
      3.452  0.0000E+00  0.2000E+02
      3.616  0.0000E+00  0.2000E+02
      3.781  0.0000E+00  0.2000E+02
      3.946  0.0000E+00  0.2000E+02
      4.110  0.0000E+00  0.2000E+02
      4.275  0.0000E+00  0.2000E+02
      4.440  0.0000E+00  0.2000E+02
      4.604  0.0000E+00  0.2000E+02
      4.769  0.0000E+00  0.2000E+02
      4.934  0.0000E+00  0.2000E+02
      5.098  0.0000E+00  0.2000E+02
      5.263  0.4486E-01  0.2001E+02
      5.427  0.1266E+01  0.2029E+02
      5.592  0.7842E+00  0.2074E+02
      5.757  0.6031E+00  0.2101E+02
      5.921  0.6664E+00  0.2126E+02
      6.086  0.1990E+01  0.2200E+02
      6.251  0.1840E+01  0.2288E+02
      6.415  0.1911E+01  0.2366E+02
      6.580  0.3074E+01  0.2456E+02
      6.745  0.1643E+01  0.2531E+02
      6.909  0.1919E+01  0.2585E+02
      7.074  0.8166E+00  0.2606E+02
      7.239  0.5214E+01  0.2703E+02
      7.403  0.2735E+01  0.2834E+02
      7.568  0.3207E+01  0.2914E+02
      7.733  0.1706E+01  0.2995E+02
      7.897  0.4263E+00  0.3015E+02
      8.062  0.6173E+00  0.3033E+02
      8.227  0.4503E+00  0.3060E+02
      8.391  0.3913E+00  0.3105E+02
      8.556  0.1424E+01  0.3142E+02
      8.721  0.5304E+00  0.3157E+02
      8.885  0.8942E+00  0.3180E+02
      9.050  0.3351E+00  0.3195E+02
      9.215  0.6020E+00  0.3212E+02
      9.379  0.1083E+01  0.3243E+02
      9.544  0.7865E+00  0.3262E+02
      9.709  0.1291E+01  0.3291E+02
      9.873  0.1991E+00  0.3312E+02
     10.038  0.7949E+00  0.3338E+02
     10.203  0.3858E+00  0.3360E+02
     10.367  0.1386E+01  0.3398E+02
     10.532  0.3873E+01  0.3527E+02
     10.697  0.1407E+01  0.3584E+02
     10.861  0.5552E+00  0.3600E+02
     11.026  0.0000E+00  0.3600E+02
     11.191  0.0000E+00  0.3600E+02
     11.355  0.1350E-01  0.3600E+02
     11.520  0.6971E+00  0.3614E+02
     11.685  0.1803E+01  0.3659E+02
     11.849  0.1577E+01  0.3720E+02
     12.014  0.1891E+01  0.3784E+02
     12.178  0.4143E+00  0.3806E+02
     12.343  0.9154E+01  0.3982E+02
     12.508  0.4707E+01  0.4140E+02
     12.672  0.4175E+01  0.4279E+02
     12.837  0.7270E+01  0.4541E+02
     13.002  0.7596E+01  0.4749E+02
     13.166  0.5895E+00  0.4798E+02
     13.331  0.0000E+00  0.4800E+02
     13.496  0.0000E+00  0.4800E+02
     13.660  0.0000E+00  0.4800E+02
     13.825  0.0000E+00  0.4800E+02
     13.990  0.0000E+00  0.4800E+02
     14.154  0.0000E+00  0.4800E+02
     14.319  0.0000E+00  0.4800E+02
     14.484  0.0000E+00  0.4800E+02
     14.648  0.0000E+00  0.4800E+02
     14.813  0.0000E+00  0.4800E+02
     14.978  0.0000E+00  0.4800E+02
     15.142  0.0000E+00  0.4800E+02
     15.307  0.0000E+00  0.4800E+02
     15.472  0.0000E+00  0.4800E+02
