    3    3    1    1
  0.2093608E+02  0.4461805E-09  0.4461805E-09  0.4461805E-09  0.5000000E-15
  1.000000000000000E-004
  CAR
 unknown system
     39     84     24

  0.0000000E+00  0.0000000E+00  0.0000000E+00  0.4551661E-03
    1      -31.680665   1.000000
    2      -10.913207   1.000000
    3      -10.913207   1.000000
    4      -10.872807   1.000000
    5      -10.872807   1.000000
    6      -10.872807   1.000000
    7       -7.163699   1.000000
    8       -7.163699   1.000000
    9       -7.163699   1.000000
   10       -1.162724   1.000000
   11        7.015032   1.000000
   12        7.015032   1.000000
   13        7.015032   1.000000
   14        7.077415   1.000000
   15        7.077415   1.000000
   16       10.868850   1.000000
   17       10.868850   1.000000
   18       10.868850   1.000000
   19       11.089827   1.000000
   20       12.129404   1.000000
   21       12.129404   1.000000
   22       12.129404   1.000000
   23       12.657770   0.000000
   24       12.909591   0.000000

  0.7692308E-01 -0.1294169E-17  0.1265328E-17  0.3641329E-02
    1      -31.679978   1.000000
    2      -10.916864   1.000000
    3      -10.916864   1.000000
    4      -10.873494   1.000000
    5      -10.872407   1.000000
    6      -10.872407   1.000000
    7       -7.194499   1.000000
    8       -7.155230   1.000000
    9       -7.155230   1.000000
   10       -1.058606   1.000000
   11        6.765396   1.000000
   12        6.765396   1.000000
   13        6.883869   1.000000
   14        7.313011   1.000000
   15        7.313011   1.000000
   16       10.232782   1.000000
   17       10.798050   1.000000
   18       10.798050   1.000000
   19       11.395442   1.000000
   20       12.150545   1.000000
   21       12.150545   1.000000
   22       12.249098   1.000000
   23       12.728171   0.000000
   24       12.728173   0.000000

  0.1538462E+00  0.3618503E-17 -0.3676184E-17  0.3641329E-02
    1      -31.678075   1.000000
    2      -10.926907   1.000000
    3      -10.926907   1.000000
    4      -10.875671   1.000000
    5      -10.871299   1.000000
    6      -10.871299   1.000000
    7       -7.274272   1.000000
    8       -7.131872   1.000000
    9       -7.131872   1.000000
   10       -0.771798   1.000000
   11        6.522882   1.000000
   12        6.522882   1.000000
   13        6.540975   1.000000
   14        7.497758   1.000000
   15        7.497758   1.000000
   16        9.458260   1.000000
   17       10.657077   1.000000
   18       10.657077   1.000000
   19       11.393917   1.000000
   20       12.193448   1.000000
   21       12.193448   1.000000
   22       12.553262   0.000000
   23       12.854671   0.000000
   24       12.888875   0.000000

  0.2307692E+00  0.8584451E-18 -0.9449665E-18  0.3641329E-02
    1      -31.675397   1.000000
    2      -10.940845   1.000000
    3      -10.940845   1.000000
    4      -10.879472   1.000000
    5      -10.869724   1.000000
    6      -10.869723   1.000000
    7       -7.374418   1.000000
    8       -7.099221   1.000000
    9       -7.099221   1.000000
   10       -0.370305   1.000000
   11        6.102143   1.000000
   12        6.347191   1.000000
   13        6.347191   1.000000
   14        7.545007   1.000000
   15        7.545007   1.000000
   16        8.777487   1.000000
   17       10.559285   1.000000
   18       10.559285   1.000000
   19       11.358801   1.000000
   20       12.244317   1.000000
   21       12.244317   1.000000
   22       12.672041   0.000000
   23       12.747250   0.000000
   24       13.012748   0.000000

  0.3076923E+00  0.7237007E-17 -0.7352368E-17  0.3641329E-02
    1      -31.672557   1.000000
    2      -10.955378   1.000000
    3      -10.955378   1.000000
    4      -10.884489   1.000000
    5      -10.868056   1.000000
    6      -10.868056   1.000000
    7       -7.467086   1.000000
    8       -7.064904   1.000000
    9       -7.064904   1.000000
   10        0.053128   1.000000
   11        5.688703   1.000000
   12        6.252659   1.000000
   13        6.252659   1.000000
   14        7.450463   1.000000
   15        7.450463   1.000000
   16        8.251906   1.000000
   17       10.547462   1.000000
   18       10.547462   1.000000
   19       11.391915   1.000000
   20       12.306654   0.687170
   21       12.306654   0.687169
   22       12.679784   0.000000
   23       12.853689   0.000000
   24       13.005766   0.000000

  0.3846154E+00 -0.6469060E-17  0.6324858E-17  0.3641329E-02
    1      -31.670208   1.000000
    2      -10.967223   1.000000
    3      -10.967223   1.000000
    4      -10.889441   1.000000
    5      -10.866665   1.000000
    6      -10.866664   1.000000
    7       -7.534583   1.000000
    8       -7.036733   1.000000
    9       -7.036733   1.000000
   10        0.400707   1.000000
   11        5.388679   1.000000
   12        6.232178   1.000000
   13        6.232178   1.000000
   14        7.284065   1.000000
   15        7.284065   1.000000
   16        7.898133   1.000000
   17       10.586648   1.000000
   18       10.586648   1.000000
   19       11.482484   1.000000
   20       12.380971   0.000000
   21       12.380971   0.000000
   22       12.686219   0.000000
   23       12.911899   0.000000
   24       12.926373   0.000000

  0.4615385E+00  0.7923731E-17 -0.8096773E-17  0.3641329E-02
    1      -31.668880   1.000000
    2      -10.973823   1.000000
    3      -10.973823   1.000000
    4      -10.892568   1.000000
    5      -10.865881   1.000000
    6      -10.865881   1.000000
    7       -7.569299   1.000000
    8       -7.020930   1.000000
    9       -7.020930   1.000000
   10        0.594214   1.000000
   11        5.238823   1.000000
   12        6.249070   1.000000
   13        6.249070   1.000000
   14        7.153506   1.000000
   15        7.153506   1.000000
   16        7.719864   1.000000
   17       10.622111   1.000000
   18       10.622111   1.000000
   19       11.568909   1.000000
   20       12.447018   0.000000
   21       12.447018   0.000000
   22       12.821565   0.000000
   23       12.821567   0.000000
   24       12.969617   0.000000

  0.7692308E-01  0.7692308E-01  0.1248426E-17  0.2730997E-02
    1      -31.679752   1.000000
    2      -10.923114   1.000000
    3      -10.912338   1.000000
    4      -10.873758   1.000000
    5      -10.872276   1.000000
    6      -10.872276   1.000000
    7       -7.179719   1.000000
    8       -7.165288   1.000000
    9       -7.165288   1.000000
   10       -1.026120   1.000000
   11        6.466341   1.000000
   12        7.025762   1.000000
   13        7.025762   1.000000
   14        7.091206   1.000000
   15        7.382513   1.000000
   16       10.242537   1.000000
   17       10.680244   1.000000
   18       10.680244   1.000000
   19       11.506916   1.000000
   20       12.161143   1.000000
   21       12.203627   1.000000
   22       12.203627   1.000000
   23       12.672168   0.000000
   24       12.746038   0.000000

  0.1538462E+00  0.7692308E-01  0.1939701E-17  0.1092399E-01
    1      -31.678266   1.000000
    2      -10.934143   1.000000
    3      -10.915296   1.000000
    4      -10.875418   1.000000
    5      -10.871508   1.000000
    6      -10.871305   1.000000
    7       -7.240743   1.000000
    8       -7.158303   1.000000
    9       -7.139785   1.000000
   10       -0.807347   1.000000
   11        6.142586   1.000000
   12        6.820842   1.000000
   13        6.864617   1.000000
   14        7.289046   1.000000
   15        7.530573   1.000000
   16        9.699411   1.000000
   17       10.527411   1.000000
   18       10.541661   1.000000
   19       11.538674   1.000000
   20       12.164353   1.000000
   21       12.243217   1.000000
   22       12.454287   0.000000
   23       12.680192   0.000000
   24       12.865558   0.000000

  0.2307692E+00  0.7692308E-01 -0.3733865E-17  0.1092399E-01
    1      -31.675862   1.000000
    2      -10.947299   1.000000
    3      -10.925008   1.000000
    4      -10.878395   1.000000
    5      -10.870420   1.000000
    6      -10.869657   1.000000
    7       -7.334978   1.000000
    8       -7.136058   1.000000
    9       -7.104187   1.000000
   10       -0.457523   1.000000
   11        5.856058   1.000000
   12        6.550394   1.000000
   13        6.634806   1.000000
   14        7.383538   1.000000
   15        7.640186   1.000000
   16        9.054193   1.000000
   17       10.407538   1.000000
   18       10.442044   1.000000
   19       11.508521   1.000000
   20       12.208982   1.000000
   21       12.272043   1.000000
   22       12.678601   0.000000
   23       12.685106   0.000000
   24       12.981990   0.000000

  0.3076923E+00  0.7692308E-01  0.8047419E-18  0.1092399E-01
    1      -31.673091   1.000000
    2      -10.959553   1.000000
    3      -10.938947   1.000000
    4      -10.882608   1.000000
    5      -10.869146   1.000000
    6      -10.867839   1.000000
    7       -7.429911   1.000000
    8       -7.103883   1.000000
    9       -7.070781   1.000000
   10       -0.062239   1.000000
   11        5.614184   1.000000
   12        6.281617   1.000000
   13        6.507949   1.000000
   14        7.332015   1.000000
   15        7.624296   1.000000
   16        8.488075   1.000000
   17       10.352528   1.000000
   18       10.454910   1.000000
   19       11.495603   1.000000
   20       12.283937   0.999892
   21       12.309873   0.512994
   22       12.689571   0.000000
   23       12.792476   0.000000
   24       13.001028   0.000000

  0.3846154E+00  0.7692308E-01 -0.1327361E-16  0.1092399E-01
    1      -31.670593   1.000000
    2      -10.968182   1.000000
    3      -10.953716   1.000000
    4      -10.887269   1.000000
    5      -10.867884   1.000000
    6      -10.866362   1.000000
    7       -7.504804   1.000000
    8       -7.069218   1.000000
    9       -7.047002   1.000000
   10        0.284434   1.000000
   11        5.429451   1.000000
   12        6.154928   1.000000
   13        6.424765   1.000000
   14        7.209781   1.000000
   15        7.496163   1.000000
   16        8.062712   1.000000
   17       10.375520   1.000000
   18       10.518094   1.000000
   19       11.536312   1.000000
   20       12.366262   0.000000
   21       12.366519   0.000000
   22       12.691272   0.000000
   23       12.836928   0.000000
   24       12.961986   0.000000

  0.4615385E+00  0.7692308E-01  0.6033675E-19  0.1092399E-01
    1      -31.668932   1.000000
    2      -10.971409   1.000000
    3      -10.966018   1.000000
    4      -10.890840   1.000000
    5      -10.866902   1.000000
    6      -10.865552   1.000000
    7       -7.549298   1.000000
    8       -7.039845   1.000000
    9       -7.037918   1.000000
   10        0.506948   1.000000
   11        5.325229   1.000000
   12        6.168125   1.000000
   13        6.335555   1.000000
   14        7.144167   1.000000
   15        7.323348   1.000000
   16        7.808114   1.000000
   17       10.422878   1.000000
   18       10.567969   1.000000
   19       11.608299   1.000000
   20       12.434788   0.000000
   21       12.436914   0.000000
   22       12.685122   0.000000
   23       12.810619   0.000000
   24       12.896466   0.000000

 -0.4615385E+00  0.7692308E-01  0.2211744E-16  0.1092399E-01
    1      -31.668490   1.000000
    2      -10.973225   1.000000
    3      -10.968628   1.000000
    4      -10.891804   1.000000
    5      -10.866470   1.000000
    6      -10.865560   1.000000
    7       -7.560182   1.000000
    8       -7.045228   1.000000
    9       -7.022271   1.000000
   10        0.566956   1.000000
   11        5.300379   1.000000
   12        6.212792   1.000000
   13        6.267574   1.000000
   14        7.188930   1.000000
   15        7.213342   1.000000
   16        7.744953   1.000000
   17       10.437646   1.000000
   18       10.575651   1.000000
   19       11.639747   1.000000
   20       12.444338   0.000000
   21       12.480773   0.000000
   22       12.671927   0.000000
   23       12.818886   0.000000
   24       12.833620   0.000000

 -0.3846154E+00  0.7692308E-01  0.1832252E-17  0.1092399E-01
    1      -31.669368   1.000000
    2      -10.973851   1.000000
    3      -10.960437   1.000000
    4      -10.889702   1.000000
    5      -10.866713   1.000000
    6      -10.866342   1.000000
    7       -7.537232   1.000000
    8       -7.067024   1.000000
    9       -7.020402   1.000000
   10        0.455741   1.000000
   11        5.356804   1.000000
   12        6.102496   1.000000
   13        6.388182   1.000000
   14        7.162618   1.000000
   15        7.382421   1.000000
   16        7.877041   1.000000
   17       10.388959   1.000000
   18       10.551328   1.000000
   19       11.594478   1.000000
   20       12.393543   0.000000
   21       12.437838   0.000000
   22       12.679705   0.000000
   23       12.858853   0.000000
   24       12.880291   0.000000

 -0.3076923E+00  0.7692308E-01  0.9645920E-17  0.1092399E-01
    1      -31.671363   1.000000
    2      -10.967788   1.000000
    3      -10.948471   1.000000
    4      -10.885483   1.000000
    5      -10.867702   1.000000
    6      -10.867618   1.000000
    7       -7.481882   1.000000
    8       -7.098222   1.000000
    9       -7.034758   1.000000
   10        0.187565   1.000000
   11        5.523858   1.000000
   12        6.057935   1.000000
   13        6.504517   1.000000
   14        7.244162   1.000000
   15        7.569439   1.000000
   16        8.189301   1.000000
   17       10.288259   1.000000
   18       10.532579   1.000000
   19       11.528153   1.000000
   20       12.334467   0.000285
   21       12.352263   0.000000
   22       12.685428   0.000000
   23       12.856058   0.000000
   24       12.934198   0.000000

 -0.2307692E+00  0.7692308E-01 -0.4775711E-17  0.1092399E-01
    1      -31.674022   1.000000
    2      -10.956278   1.000000
    3      -10.935218   1.000000
    4      -10.880809   1.000000
    5      -10.869294   1.000000
    6      -10.868988   1.000000
    7       -7.399838   1.000000
    8       -7.131475   1.000000
    9       -7.062280   1.000000
   10       -0.186244   1.000000
   11        5.809126   1.000000
   12        6.105761   1.000000
   13        6.654191   1.000000
   14        7.333406   1.000000
   15        7.688311   1.000000
   16        8.662262   1.000000
   17       10.196906   1.000000
   18       10.567231   1.000000
   19       11.498851   1.000000
   20       12.265435   1.000000
   21       12.289543   0.998179
   22       12.682554   0.000000
   23       12.777076   0.000000
   24       12.983397   0.000000

 -0.1538462E+00  0.7692308E-01 -0.4976273E-17  0.1092399E-01
    1      -31.676741   1.000000
    2      -10.941799   1.000000
    3      -10.923769   1.000000
    4      -10.877007   1.000000
    5      -10.870779   1.000000
    6      -10.870515   1.000000
    7       -7.305834   1.000000
    8       -7.158147   1.000000
    9       -7.096830   1.000000
   10       -0.579209   1.000000
   11        6.163957   1.000000
   12        6.250899   1.000000
   13        6.864186   1.000000
   14        7.317622   1.000000
   15        7.678016   1.000000
   16        9.257697   1.000000
   17       10.213870   1.000000
   18       10.672366   1.000000
   19       11.515147   1.000000
   20       12.188566   1.000000
   21       12.256159   1.000000
   22       12.640533   0.000000
   23       12.676245   0.000000
   24       12.932788   0.000000

 -0.7692308E-01  0.7692308E-01 -0.2588337E-17  0.5461994E-02
    1      -31.678889   1.000000
    2      -10.927560   1.000000
    3      -10.917058   1.000000
    4      -10.874581   1.000000
    5      -10.871871   1.000000
    6      -10.871777   1.000000
    7       -7.227876   1.000000
    8       -7.167488   1.000000
    9       -7.130445   1.000000
   10       -0.896022   1.000000
   11        6.480820   1.000000
   12        6.520350   1.000000
   13        7.035597   1.000000
   14        7.214000   1.000000
   15        7.537182   1.000000
   16        9.846811   1.000000
   17       10.448545   1.000000
   18       10.786385   1.000000
   19       11.512258   1.000000
   20       12.139446   1.000000
   21       12.215206   1.000000
   22       12.417763   0.000000
   23       12.668027   0.000000
   24       12.808981   0.000000

  0.1538462E+00  0.1538462E+00  0.2496853E-17  0.2730997E-02
    1      -31.677266   1.000000
    2      -10.943477   1.000000
    3      -10.909921   1.000000
    4      -10.876881   1.000000
    5      -10.870656   1.000000
    6      -10.870656   1.000000
    7       -7.224029   1.000000
    8       -7.169931   1.000000
    9       -7.169931   1.000000
   10       -0.678966   1.000000
   11        5.788780   1.000000
   12        7.034606   1.000000
   13        7.034606   1.000000
   14        7.129924   1.000000
   15        7.456431   1.000000
   16        9.675986   1.000000
   17       10.378274   1.000000
   18       10.378274   1.000000
   19       11.516268   1.000000
   20       12.283158   0.999931
   21       12.283158   0.999931
   22       12.408135   0.000000
   23       12.715917   0.000000
   24       12.933621   0.000000

  0.2307692E+00  0.1538462E+00 -0.3159232E-18  0.1092399E-01
    1      -31.675308   1.000000
    2      -10.952651   1.000000
    3      -10.912463   1.000000
    4      -10.879290   1.000000
    5      -10.869649   1.000000
    6      -10.869147   1.000000
    7       -7.293322   1.000000
    8       -7.164175   1.000000
    9       -7.144079   1.000000
   10       -0.427051   1.000000
   11        5.524249   1.000000
   12        6.844041   1.000000
   13        6.897021   1.000000
   14        7.236963   1.000000
   15        7.527746   1.000000
   16        9.330249   1.000000
   17       10.213445   1.000000
   18       10.304925   1.000000
   19       11.556887   1.000000
   20       12.252663   1.000000
   21       12.306268   0.706217
   22       12.584077   0.000000
   23       12.733391   0.000000
   24       13.020283   0.000000

  0.3076923E+00  0.1538462E+00 -0.8597669E-18  0.1092399E-01
    1      -31.672842   1.000000
    2      -10.959543   1.000000
    3      -10.922130   1.000000
    4      -10.882215   1.000000
    5      -10.868978   1.000000
    6      -10.867196   1.000000
    7       -7.382768   1.000000
    8       -7.142564   1.000000
    9       -7.111532   1.000000
   10       -0.124466   1.000000
   11        5.387263   1.000000
   12        6.530413   1.000000
   13        6.758930   1.000000
   14        7.239809   1.000000
   15        7.608934   1.000000
   16        8.859623   1.000000
   17       10.065048   1.000000
   18       10.334889   1.000000
   19       11.620895   1.000000
   20       12.274475   1.000000
   21       12.331565   0.001202
   22       12.698062   0.000000
   23       12.735368   0.000000
   24       13.041109   0.000000

  0.3846154E+00  0.1538462E+00  0.4803230E-17  0.1092399E-01
    1      -31.670434   1.000000
    2      -10.962677   1.000000
    3      -10.936268   1.000000
    4      -10.885401   1.000000
    5      -10.868636   1.000000
    6      -10.865551   1.000000
    7       -7.458462   1.000000
    8       -7.110235   1.000000
    9       -7.091774   1.000000
   10        0.149590   1.000000
   11        5.387853   1.000000
   12        6.285580   1.000000
   13        6.623379   1.000000
   14        7.183088   1.000000
   15        7.595175   1.000000
   16        8.398609   1.000000
   17       10.014858   1.000000
   18       10.412982   1.000000
   19       11.650824   1.000000
   20       12.346452   0.000000
   21       12.373880   0.000000
   22       12.728434   0.000000
   23       12.747116   0.000000
   24       13.010467   0.000000

  0.4615385E+00  0.1538462E+00 -0.7467730E-17  0.1092399E-01
    1      -31.668635   1.000000
    2      -10.961545   1.000000
    3      -10.951455   1.000000
    4      -10.888055   1.000000
    5      -10.868448   1.000000
    6      -10.864645   1.000000
    7       -7.507066   1.000000
    8       -7.089474   1.000000
    9       -7.074571   1.000000
   10        0.340515   1.000000
   11        5.477075   1.000000
   12        6.174430   1.000000
   13        6.443533   1.000000
   14        7.190498   1.000000
   15        7.491906   1.000000
   16        8.052985   1.000000
   17       10.024869   1.000000
   18       10.466344   1.000000
   19       11.694533   1.000000
   20       12.408026   0.000000
   21       12.437624   0.000000
   22       12.709119   0.000000
   23       12.771965   0.000000
   24       12.978106   0.000000

 -0.4615385E+00  0.1538462E+00  0.1458937E-16  0.1092399E-01
    1      -31.667853   1.000000
    2      -10.964357   1.000000
    3      -10.956702   1.000000
    4      -10.888962   1.000000
    5      -10.868383   1.000000
    6      -10.864630   1.000000
    7       -7.524276   1.000000
    8       -7.104148   1.000000
    9       -7.043521   1.000000
   10        0.430070   1.000000
   11        5.538632   1.000000
   12        6.215037   1.000000
   13        6.235907   1.000000
   14        7.302123   1.000000
   15        7.347540   1.000000
   16        7.909194   1.000000
   17       10.026836   1.000000
   18       10.467222   1.000000
   19       11.740010   1.000000
   20       12.413409   0.000000
   21       12.508491   0.000000
   22       12.668925   0.000000
   23       12.815110   0.000000
   24       12.907957   0.000000

 -0.3846154E+00  0.1538462E+00  0.2205976E-16  0.1092399E-01
    1      -31.668268   1.000000
    2      -10.972268   1.000000
    3      -10.949274   1.000000
    4      -10.887492   1.000000
    5      -10.868486   1.000000
    6      -10.865415   1.000000
    7       -7.510735   1.000000
    8       -7.130906   1.000000
    9       -7.023998   1.000000
   10        0.413781   1.000000
   11        5.511614   1.000000
   12        6.058652   1.000000
   13        6.371244   1.000000
   14        7.233238   1.000000
   15        7.479761   1.000000
   16        8.002911   1.000000
   17        9.963625   1.000000
   18       10.436736   1.000000
   19       11.741441   1.000000
   20       12.374481   0.000000
   21       12.520977   0.000000
   22       12.648423   0.000000
   23       12.857913   0.000000
   24       12.874963   0.000000

 -0.3076923E+00  0.1538462E+00  0.7981412E-17  0.1092399E-01
    1      -31.669784   1.000000
    2      -10.973548   1.000000
    3      -10.940533   1.000000
    4      -10.884399   1.000000
    5      -10.868765   1.000000
    6      -10.866763   1.000000
    7       -7.469934   1.000000
    8       -7.161350   1.000000
    9       -7.020458   1.000000
   10        0.280290   1.000000
   11        5.485142   1.000000
   12        5.955579   1.000000
   13        6.578659   1.000000
   14        7.187434   1.000000
   15        7.661982   1.000000
   16        8.292025   1.000000
   17        9.825592   1.000000
   18       10.421760   1.000000
   19       11.703910   1.000000
   20       12.335564   0.000159
   21       12.441241   0.000000
   22       12.678269   0.000000
   23       12.842847   0.000000
   24       12.895669   0.000000

 -0.2307692E+00  0.1538462E+00 -0.6440220E-17  0.1092399E-01
    1      -31.672055   1.000000
    2      -10.967935   1.000000
    3      -10.932010   1.000000
    4      -10.881208   1.000000
    5      -10.869180   1.000000
    6      -10.868325   1.000000
    7       -7.410038   1.000000
    8       -7.184174   1.000000
    9       -7.033887   1.000000
   10        0.031850   1.000000
   11        5.576368   1.000000
   12        5.950734   1.000000
   13        6.800610   1.000000
   14        7.180774   1.000000
   15        7.779687   1.000000
   16        8.704073   1.000000
   17        9.678368   1.000000
   18       10.467707   1.000000
   19       11.660779   1.000000
   20       12.311526   0.420262
   21       12.343261   0.000001
   22       12.692496   0.000000
   23       12.796525   0.000000
   24       12.940442   0.000000

 -0.1538462E+00  0.1538462E+00  0.7237007E-17  0.5461994E-02
    1      -31.674566   1.000000
    2      -10.956543   1.000000
    3      -10.925731   1.000000
    4      -10.878785   1.000000
    5      -10.869761   1.000000
    6      -10.869758   1.000000
    7       -7.348788   1.000000
    8       -7.185113   1.000000
    9       -7.061421   1.000000
   10       -0.283114   1.000000
   11        5.818904   1.000000
   12        6.051802   1.000000
   13        6.998538   1.000000
   14        7.152353   1.000000
   15        7.784600   1.000000
   16        9.084547   1.000000
   17        9.737867   1.000000
   18       10.576227   1.000000
   19       11.614499   1.000000
   20       12.249865   1.000000
   21       12.292480   0.993656
   22       12.689534   0.000000
   23       12.728172   0.000000
   24       12.962540   0.000000

  0.2307692E+00  0.2307692E+00  0.3745279E-17  0.2730997E-02
    1      -31.673865   1.000000
    2      -10.955426   1.000000
    3      -10.906528   1.000000
    4      -10.881668   1.000000
    5      -10.868034   1.000000
    6      -10.868034   1.000000
    7       -7.288501   1.000000
    8       -7.177081   1.000000
    9       -7.177081   1.000000
   10       -0.302264   1.000000
   11        5.317023   1.000000
   12        6.992646   1.000000
   13        6.992646   1.000000
   14        7.185907   1.000000
   15        7.318507   1.000000
   16        9.308689   1.000000
   17       10.242283   1.000000
   18       10.242283   1.000000
   19       11.484659   1.000000
   20       12.329521   0.003016
   21       12.329521   0.003016
   22       12.538931   0.000000
   23       12.790004   0.000000
   24       13.097650   0.000000

  0.3076923E+00  0.2307692E+00  0.3584493E-18  0.1092399E-01
    1      -31.671863   1.000000
    2      -10.954937   1.000000
    3      -10.908958   1.000000
    4      -10.884208   1.000000
    5      -10.866936   1.000000
    6      -10.866225   1.000000
    7       -7.349512   1.000000
    8       -7.171976   1.000000
    9       -7.163050   1.000000
   10       -0.135021   1.000000
   11        5.281085   1.000000
   12        6.758171   1.000000
   13        6.899363   1.000000
   14        7.214838   1.000000
   15        7.373418   1.000000
   16        9.079716   1.000000
   17       10.109882   1.000000
   18       10.283811   1.000000
   19       11.604732   1.000000
   20       12.310401   0.483208
   21       12.350947   0.000000
   22       12.598974   0.000000
   23       12.815556   0.000000
   24       13.120474   0.000000

  0.3846154E+00  0.2307692E+00  0.4165003E-17  0.1092399E-01
    1      -31.669767   1.000000
    2      -10.951352   1.000000
    3      -10.918815   1.000000
    4      -10.886252   1.000000
    5      -10.866947   1.000000
    6      -10.864423   1.000000
    7       -7.416230   1.000000
    8       -7.150242   1.000000
    9       -7.149427   1.000000
   10        0.022617   1.000000
   11        5.419402   1.000000
   12        6.468239   1.000000
   13        6.750035   1.000000
   14        7.218873   1.000000
   15        7.472272   1.000000
   16        8.741633   1.000000
   17        9.896881   1.000000
   18       10.369619   1.000000
   19       11.738559   1.000000
   20       12.321035   0.061058
   21       12.383965   0.000000
   22       12.655526   0.000000
   23       12.809075   0.000000
   24       13.074626   0.000000

  0.4615385E+00  0.2307692E+00  0.6893800E-18  0.1092399E-01
    1      -31.668054   1.000000
    2      -10.945787   1.000000
    3      -10.933355   1.000000
    4      -10.887249   1.000000
    5      -10.868030   1.000000
    6      -10.863371   1.000000
    7       -7.460134   1.000000
    8       -7.154623   1.000000
    9       -7.116953   1.000000
   10        0.144175   1.000000
   11        5.667902   1.000000
   12        6.283932   1.000000
   13        6.542728   1.000000
   14        7.267362   1.000000
   15        7.496259   1.000000
   16        8.385732   1.000000
   17        9.744577   1.000000
   18       10.415185   1.000000
   19       11.793908   1.000000
   20       12.365426   0.000000
   21       12.436079   0.000000
   22       12.711653   0.000000
   23       12.779050   0.000000
   24       13.011650   0.000000

 -0.4615385E+00  0.2307692E+00 -0.1087265E-16  0.1092399E-01
    1      -31.667112   1.000000
    2      -10.949179   1.000000
    3      -10.940028   1.000000
    4      -10.886471   1.000000
    5      -10.869722   1.000000
    6      -10.863284   1.000000
    7       -7.474288   1.000000
    8       -7.178367   1.000000
    9       -7.079612   1.000000
   10        0.230210   1.000000
   11        5.880988   1.000000
   12        6.220640   1.000000
   13        6.309323   1.000000
   14        7.384374   1.000000
   15        7.427037   1.000000
   16        8.171076   1.000000
   17        9.637891   1.000000
   18       10.392079   1.000000
   19       11.834679   1.000000
   20       12.364220   0.000000
   21       12.502304   0.000000
   22       12.725373   0.000000
   23       12.795721   0.000000
   24       12.958209   0.000000

 -0.3846154E+00  0.2307692E+00 -0.3402263E-17  0.1092399E-01
    1      -31.667158   1.000000
    2      -10.962869   1.000000
    3      -10.935635   1.000000
    4      -10.883860   1.000000
    5      -10.871334   1.000000
    6      -10.864053   1.000000
    7       -7.461912   1.000000
    8       -7.211568   1.000000
    9       -7.046555   1.000000
   10        0.283738   1.000000
   11        5.875314   1.000000
   12        6.099840   1.000000
   13        6.276797   1.000000
   14        7.321011   1.000000
   15        7.543850   1.000000
   16        8.224765   1.000000
   17        9.525421   1.000000
   18       10.335455   1.000000
   19       11.863011   1.000000
   20       12.320907   0.063272
   21       12.562304   0.000000
   22       12.657377   0.000000