 vasp.6.0.8 29Jun18 (build Jun 13 2019 12:54:44) complex

 executed on      IFC18_CrayMPICH date 2021.12.05  14:21:49
 running   64 mpi-ranks, with    1 threads/rank
 distrk:  each k-point on   16 cores,    4 groups
 distr:  one band on NCORES_PER_BAND=   4 cores,    4 groups


--------------------------------------------------------------------------------------------------------


 INCAR:
 POTCAR:    PAW_PBE U 06Sep2000
 POTCAR:    PAW_PBE Bi_d 06Sep2000
 POTCAR:    PAW_PBE Pt 04Feb2005
 POTCAR:    PAW_PBE U 06Sep2000
   VRHFIN =U:  [Xe,5d,4f]
   LEXCH  = PE
   EATOM  =  1405.3058 eV,  103.2871 Ry

   TITEL  = PAW_PBE U 06Sep2000
   LULTRA =        F    use ultrasoft PP ?
   IUNSCR =        1    unscreen: 0-lin 1-nonlin 2-no
   RPACOR =    2.200    partial core radius
   POMASS =  238.029; ZVAL   =   14.000    mass and valenz
   RCORE  =    2.800    outmost cutoff radius
   RWIGS  =    3.000; RWIGS  =    1.588    wigner-seitz radius (au A)
   ENMAX  =  252.502; ENMIN  =  189.376 eV
   RCLOC  =    1.811    cutoff for local pot
   LCOR   =        T    correct aug charges
   LPAW   =        T    paw PP
   EAUG   =  526.410
   DEXC   =    0.000
   RMAX   =    2.863    core radius for proj-oper
   RAUG   =    1.300    factor for augmentation sphere
   RDEP   =    2.950    radius for radial grids
   RDEPT  =    2.270    core radius for aug-charge

   Atomic configuration
   18 entries
     n  l   j            E        occ.
     1  0  0.50   -116038.1941   2.0000
     2  0  0.50    -21694.8835   2.0000
     2  1  1.50    -18009.1553   6.0000
     3  0  0.50     -5481.2929   2.0000
     3  1  1.50     -4458.9283   6.0000
     3  2  2.50     -3575.9978  10.0000
     4  0  0.50     -1400.5351   2.0000
     4  1  1.50     -1066.7807   6.0000
     4  2  2.50      -732.1336  10.0000
     4  3  3.50      -377.4393  14.0000
     5  0  0.50      -314.7366   2.0000
     5  1  1.50      -211.6057   6.0000
     5  2  2.50      -103.2045  10.0000
     6  0  0.50       -50.6026   2.0000
     7  0  0.50        -4.5896   2.0000
     6  1  1.50       -25.2884   6.0000
     6  2  1.50        -3.1039   2.0000
     5  3  2.50        -6.3670   2.0000
   Description
     l       E           TYP  RCUT    TYP  RCUT
     0    -50.6026097     23  2.600
     0     -4.5896371     23  2.600
     1    -25.2883770     23  2.500
     1     27.2116520     23  2.500
     2     -3.1038686     23  2.500
     2      0.8290654     23  2.500
     3     -6.3670133     23  2.800
     3     -7.7275959     23  2.800
  local pseudopotential read in
  partial core-charges read in
  partial kinetic energy density read in
  atomic valenz-charges read in
  non local Contribution for L=           0  read in
    real space projection operators read in
  non local Contribution for L=           0  read in
    real space projection operators read in
  non local Contribution for L=           1  read in
    real space projection operators read in
  non local Contribution for L=           1  read in
    real space projection operators read in
  non local Contribution for L=           2  read in
    real space projection operators read in
  non local Contribution for L=           2  read in
    real space projection operators read in
  non local Contribution for L=           3  read in
    real space projection operators read in
  non local Contribution for L=           3  read in
    real space projection operators read in
    PAW grid and wavefunctions read in

   number of l-projection  operators is LMAX  =           8
   number of lm-projection operators is LMMAX =          32

 POTCAR:    PAW_PBE Bi_d 06Sep2000
   VRHFIN =Bi:
   LEXCH  = PE
   EATOM  =  1959.2045 eV,  143.9975 Ry

   TITEL  = PAW_PBE Bi_d 06Sep2000
   LULTRA =        F    use ultrasoft PP ?
   IUNSCR =        1    unscreen: 0-lin 1-nonlin 2-no
   RPACOR =    2.200    partial core radius
   POMASS =  208.980; ZVAL   =   15.000    mass and valenz
   RCORE  =    2.500    outmost cutoff radius
   RWIGS  =    3.090; RWIGS  =    1.635    wigner-seitz radius (au A)
   ENMAX  =  242.839; ENMIN  =  182.129 eV
   ICORE  =        3    local potential
   LCOR   =        T    correct aug charges
   LPAW   =        T    paw PP
   EAUG   =  442.899
   DEXC   =    0.000
   RMAX   =    2.551    core radius for proj-oper
   RAUG   =    1.300    factor for augmentation sphere
   RDEP   =    2.650    radius for radial grids
   RDEPT  =    2.039    core radius for aug-charge

   Atomic configuration
   16 entries
     n  l   j            E        occ.
     1  0  0.50    -90639.6581   2.0000
     2  0  0.50    -16282.4666   2.0000
     2  1  1.50    -13922.8286   6.0000
     3  0  0.50     -3930.4763   2.0000
     3  1  1.50     -3256.7013   6.0000
     3  2  2.50     -2581.6168  10.0000
     4  0  0.50      -902.2614   2.0000
     4  1  1.50      -681.5915   6.0000
     4  2  2.50      -429.8249  10.0000
     4  3  3.50      -152.6004  14.0000
     5  0  0.50      -157.7156   2.0000
     5  1  1.50       -95.8054   6.0000
     5  2  2.50       -27.0806  10.0000
     6  0  0.50       -14.4732   2.0000
     6  1  1.50        -4.5702   3.0000
     5  3  2.50        -2.7212   0.0000
   Description
     l       E           TYP  RCUT    TYP  RCUT
     2    -27.0805982     23  2.500
     2     -1.3605826     23  2.500
     0    -14.4732271     23  2.500
     0      6.8029130     23  2.500
     1     -4.5701651     23  2.500
     1     13.6058260     23  2.500
     3     -1.3605826      7  2.500
  local pseudopotential read in
  partial core-charges read in
  partial kinetic energy density read in
  atomic valenz-charges read in
  non local Contribution for L=           2  read in
    real space projection operators read in
  non local Contribution for L=           2  read in
    real space projection operators read in
  non local Contribution for L=           0  read in
    real space projection operators read in
  non local Contribution for L=           0  read in
    real space projection operators read in
  non local Contribution for L=           1  read in
    real space projection operators read in
  non local Contribution for L=           1  read in
    real space projection operators read in
    PAW grid and wavefunctions read in

   number of l-projection  operators is LMAX  =           6
   number of lm-projection operators is LMMAX =          18

 POTCAR:    PAW_PBE Pt 04Feb2005
   VRHFIN =Pt: s1d9
   LEXCH  = PE
   EATOM  =   729.1176 eV,   53.5886 Ry

   TITEL  = PAW_PBE Pt 04Feb2005
   LULTRA =        F    use ultrasoft PP ?
   IUNSCR =        1    unscreen: 0-lin 1-nonlin 2-no
   RPACOR =    2.330    partial core radius
   POMASS =  195.080; ZVAL   =   10.000    mass and valenz
   RCORE  =    2.600    outmost cutoff radius
   RWIGS  =    2.750; RWIGS  =    1.455    wigner-seitz radius (au A)
   ENMAX  =  230.283; ENMIN  =  172.712 eV
   ICORE  =        3    local potential
   LCOR   =        T    correct aug charges
   LPAW   =        T    paw PP
   EAUG   =  358.966
   DEXC   =    0.000
   RMAX   =    2.658    core radius for proj-oper
   RAUG   =    1.300    factor for augmentation sphere
   RDEP   =    2.761    radius for radial grids
   RDEPT  =    2.203    core radius for aug-charge

   Atomic configuration
   16 entries
     n  l   j            E        occ.
     1  0  0.50    -78401.1885   2.0000
     2  0  0.50    -13770.7750   2.0000
     2  1  1.50    -11931.0468   6.0000
     3  0  0.50     -3234.7234   2.0000
     3  1  1.50     -2699.2216   6.0000
     3  2  2.50     -2119.5714  10.0000
     4  0  0.50      -695.1528   2.0000
     4  1  1.50      -519.6034   6.0000
     4  2  2.50      -306.6786  10.0000
     4  3  3.50       -70.1041  14.0000
     5  0  0.50      -101.7747   2.0000
     5  1  1.50       -55.9873   6.0000
     5  2  2.50        -6.1423   9.0000
     6  0  0.50        -5.6573   1.0000
     6  1  1.50        -6.8029   0.0000
     5  3  2.50        -1.3606   0.0000
   Description
     l       E           TYP  RCUT    TYP  RCUT
     2     -6.1423404     23  2.500
     2     -7.5029230     23  2.500
     0     -5.6573207     23  2.500
     0      0.7416693     23  2.500
     1     -2.7211652     23  2.600
     1     20.4087390     23  2.600
     3     -1.3605826     23  2.500
  local pseudopotential read in
  partial core-charges read in
  partial kinetic energy density read in
  atomic valenz-charges read in
  non local Contribution for L=           2  read in
    real space projection operators read in
  non local Contribution for L=           2  read in
    real space projection operators read in
  non local Contribution for L=           0  read in
    real space projection operators read in
  non local Contribution for L=           0  read in
    real space projection operators read in
  non local Contribution for L=           1  read in
    real space projection operators read in
  non local Contribution for L=           1  read in
    real space projection operators read in
    PAW grid and wavefunctions read in

   number of l-projection  operators is LMAX  =           6
   number of lm-projection operators is LMMAX =          18

 WARNING: PSMAXN for non-local potential too small
          PSMAXN should be >   13.5545592237991       NTYP=           1

 -----------------------------------------------------------------------------
|                                                                             |
|  ADVICE TO THIS USER RUNNING 'VASP/VAMP'   (HEAR YOUR MASTER'S VOICE ...):  |
|                                                                             |
|      You enforced a specific xc-type in the INCAR file,                     |
|      a different type was found on the POTCAR file                          |
|          I HOPE YOU KNOW, WHAT YOU ARE  DOING                               |
|                                                                             |
 -----------------------------------------------------------------------------

  PAW_PBE U 06Sep2000                   :
 energy of atom  1       EATOM=-1405.3058
 kinetic energy error for atom=    0.0006 (will be added to EATOM!!)
  PAW_PBE Bi_d 06Sep2000                :
 energy of atom  2       EATOM=-1959.2045
 kinetic energy error for atom=    0.0012 (will be added to EATOM!!)
  PAW_PBE Pt 04Feb2005                  :
 energy of atom  3       EATOM= -729.1176
 kinetic energy error for atom=    0.0010 (will be added to EATOM!!)


 POSCAR: U1 Bi1 Pt1
  positions in direct lattice
  No initial velocities read in
 exchange correlation table for  LEXCH =       14
   RHO(1)=    0.500       N(1)  =     2000
   RHO(2)=  100.500       N(2)  =     4000



--------------------------------------------------------------------------------------------------------


 ion  position               nearest neighbor table
   1  0.250  0.250  0.250-   3 2.73   3 2.73   3 2.73   3 2.73   2 3.15   2 3.15   2 3.15   2 3.15
                             2 3.15   2 3.15
   2  0.750  0.750  0.750-   3 2.73   3 2.73   3 2.73   3 2.73   1 3.15   1 3.15   1 3.15   1 3.15
                             1 3.15   1 3.15
   3  0.000  0.000  0.000-   2 2.73   2 2.73   2 2.73   1 2.73   2 2.73   1 2.73   1 2.73   1 2.73


  LATTYP: Found a face centered cubic cell.
 ALAT       =     6.3099444447

  Lattice vectors:

 A1 = (   0.0000000000,   3.1549722223,   3.1549722223)
 A2 = (   3.1549722223,   0.0000000000,   3.1549722223)
 A3 = (   3.1549722223,   3.1549722223,   0.0000000000)


Analysis of symmetry for initial positions (statically):
=====================================================================
 Subroutine PRICEL returns:
 Original cell was already a primitive cell.


 Routine SETGRP: Setting up the symmetry group for a
 face centered cubic supercell.


 Subroutine GETGRP returns: Found 24 space group operations
 (whereof 24 operations were pure point group operations)
 out of a pool of 48 trial point group operations.


The static configuration has the point symmetry T_d .


Analysis of symmetry for dynamics (positions and initial velocities):
=====================================================================
 Subroutine PRICEL returns:
 Original cell was already a primitive cell.


 Routine SETGRP: Setting up the symmetry group for a
 face centered cubic supercell.


 Subroutine GETGRP returns: Found 24 space group operations
 (whereof 24 operations were pure point group operations)
 out of a pool of 48 trial point group operations.


The dynamic configuration has the point symmetry T_d .


 Subroutine INISYM returns: Found 24 space group operations
 (whereof 24 operations are pure point group operations),
 and found     1 'primitive' translations


----------------------------------------------------------------------------------------

                                     Primitive cell

  volume of cell :      62.8082

  direct lattice vectors                    reciprocal lattice vectors
     0.000000000  3.154972222  3.154972222    -0.158480001  0.158480001  0.158480001
     3.154972222  0.000000000  3.154972222     0.158480001 -0.158480001  0.158480001
     3.154972222  3.154972222  0.000000000     0.158480001  0.158480001 -0.158480001

  length of vectors
     4.461804506  4.461804506  4.461804506     0.274495413  0.274495413  0.274495413

  position of ions in fractional coordinates (direct lattice)
     0.250000000  0.250000000  0.250000000
     0.750000000  0.750000000  0.750000000
     0.000000000  0.000000000  0.000000000

  ion indices of the primitive-cell ions
   primitive index   ion index
                 1           1
                 2           2
                 3           3

----------------------------------------------------------------------------------------



 KPOINTS: KPOINTS

Automatic generation of k-mesh.
Space group operators:
 irot       det(A)        alpha          n_x          n_y          n_z        tau_x        tau_y        tau_z
    1     1.000000     0.000000     1.000000     0.000000     0.000000     0.000000     0.000000     0.000000
    2     1.000000   120.000000    -0.577350    -0.577350    -0.577350     0.000000     0.000000     0.000000
    3     1.000000   120.000000     0.577350     0.577350     0.577350     0.000000     0.000000     0.000000
    4    -1.000000    90.000000     0.000000     0.000000    -1.000000     0.000000     0.000000     0.000000
    5    -1.000000   180.000000    -0.000000     0.707107     0.707107     0.000000     0.000000     0.000000
    6    -1.000000    90.000000     0.000000     1.000000     0.000000     0.000000     0.000000     0.000000
    7     1.000000   180.000000     0.000000    -0.000000     1.000000     0.000000     0.000000     0.000000
    8     1.000000   120.000000    -0.577350     0.577350     0.577350     0.000000     0.000000     0.000000
    9     1.000000   120.000000    -0.577350     0.577350    -0.577350     0.000000     0.000000     0.000000
   10    -1.000000    90.000000     0.000000     0.000000     1.000000     0.000000     0.000000     0.000000
   11    -1.000000    90.000000    -1.000000    -0.000000     0.000000     0.000000     0.000000     0.000000
   12    -1.000000   180.000000     0.707107     0.000000     0.707107     0.000000     0.000000     0.000000
   13     1.000000   120.000000     0.577350    -0.577350     0.577350     0.000000     0.000000     0.000000
   14     1.000000   120.000000    -0.577350    -0.577350     0.577350     0.000000     0.000000     0.000000
   15     1.000000   180.000000     1.000000     0.000000     0.000000     0.000000     0.000000     0.000000
   16    -1.000000    90.000000     0.000000    -1.000000     0.000000     0.000000     0.000000     0.000000
   17    -1.000000   180.000000     0.707107     0.707107     0.000000     0.000000     0.000000     0.000000
   18    -1.000000    90.000000     1.000000     0.000000    -0.000000     0.000000     0.000000     0.000000
   19     1.000000   120.000000     0.577350    -0.577350    -0.577350     0.000000     0.000000     0.000000
   20     1.000000   180.000000     0.000000    -1.000000    -0.000000     0.000000     0.000000     0.000000
   21     1.000000   120.000000     0.577350     0.577350    -0.577350     0.000000     0.000000     0.000000
   22    -1.000000   180.000000     0.000000    -0.707107     0.707107     0.000000     0.000000     0.000000
   23    -1.000000   180.000000     0.707107    -0.707107    -0.000000     0.000000     0.000000     0.000000
   24    -1.000000   180.000000     0.707107     0.000000    -0.707107     0.000000     0.000000     0.000000

 Subroutine IBZKPT returns following result:
 ===========================================

 Found     84 irreducible k-points:

 Following reciprocal coordinates:
            Coordinates               Weight
  0.000000  0.000000  0.000000      1.000000
  0.076923 -0.000000  0.000000      8.000000
  0.153846  0.000000 -0.000000      8.000000
  0.230769  0.000000 -0.000000      8.000000
  0.307692  0.000000 -0.000000      8.000000
  0.384615 -0.000000  0.000000      8.000000
  0.461538  0.000000 -0.000000      8.000000
  0.076923  0.076923  0.000000      6.000000
  0.153846  0.076923  0.000000     24.000000
  0.230769  0.076923 -0.000000     24.000000
  0.307692  0.076923  0.000000     24.000000
  0.384615  0.076923 -0.000000     24.000000
  0.461538  0.076923  0.000000     24.000000
 -0.461538  0.076923  0.000000     24.000000
 -0.384615  0.076923  0.000000     24.000000
 -0.307692  0.076923  0.000000     24.000000
 -0.230769  0.076923 -0.000000     24.000000
 -0.153846  0.076923 -0.000000     24.000000
 -0.076923  0.076923 -0.000000     12.000000
  0.153846  0.153846  0.000000      6.000000
  0.230769  0.153846 -0.000000     24.000000
  0.307692  0.153846 -0.000000     24.000000
  0.384615  0.153846  0.000000     24.000000
  0.461538  0.153846 -0.000000     24.000000
 -0.461538  0.153846  0.000000     24.000000
 -0.384615  0.153846  0.000000     24.000000
 -0.307692  0.153846  0.000000     24.000000
 -0.230769  0.153846 -0.000000     24.000000
 -0.153846  0.153846  0.000000     12.000000
  0.230769  0.230769  0.000000      6.000000
  0.307692  0.230769  0.000000     24.000000
  0.384615  0.230769  0.000000     24.000000
  0.461538  0.230769  0.000000     24.000000
 -0.461538  0.230769 -0.000000     24.000000
 -0.384615  0.230769 -0.000000     24.000000
 -0.307692  0.230769  0.000000     24.000000
 -0.230769  0.230769  0.000000     12.000000
  0.307692  0.307692  0.000000      6.000000
  0.384615  0.307692  0.000000     24.000000
  0.461538  0.307692 -0.000000     24.000000
 -0.461538  0.307692 -0.000000     24.000000
 -0.384615  0.307692 -0.000000     24.000000
 -0.307692  0.307692  0.000000     12.000000
  0.384615  0.384615  0.000000      6.000000
  0.461538  0.384615  0.000000     24.000000
 -0.461538  0.384615  0.000000     24.000000
 -0.384615  0.384615 -0.000000     12.000000
  0.461538  0.461538  0.000000      6.000000
 -0.461538  0.461538  0.000000     12.000000
  0.230769  0.153846  0.076923     24.000000
  0.307692  0.153846  0.076923     48.000000
  0.384615  0.153846  0.076923     48.000000
  0.461538  0.153846  0.076923     48.000000
 -0.461538  0.153846  0.076923     48.000000
  0.307692  0.230769  0.076923     24.000000
  0.384615  0.230769  0.076923     48.000000
  0.461538  0.230769  0.076923     48.000000
 -0.461538  0.230769  0.076923     48.000000
 -0.384615  0.230769  0.076923     48.000000
 -0.307692  0.230769  0.076923     48.000000
 -0.230769  0.230769  0.076923     48.000000
 -0.153846  0.230769  0.076923     24.000000
  0.384615  0.307692  0.076923     24.000000
  0.461538  0.307692  0.076923     48.000000
 -0.461538  0.307692  0.076923     48.000000
 -0.384615  0.307692  0.076923     48.000000
 -0.307692  0.307692  0.076923     48.000000
 -0.230769  0.307692  0.076923     24.000000
  0.461538  0.384615  0.076923     24.000000
 -0.461538  0.384615  0.076923     48.000000
 -0.384615  0.384615  0.076923     48.000000
 -0.307692  0.384615  0.076923     24.000000
 -0.461538  0.461538  0.076923     24.000000
 -0.384615  0.461538  0.076923     24.000000
  0.461538  0.307692  0.153846     24.000000
 -0.461538  0.307692  0.153846     48.000000
 -0.384615  0.307692  0.153846     48.000000
 -0.461538  0.384615  0.153846     24.000000
 -0.384615  0.384615  0.153846     48.000000
 -0.307692  0.384615  0.153846     48.000000
 -0.230769  0.384615  0.153846     24.000000
 -0.384615  0.461538  0.153846     24.000000
 -0.307692  0.461538  0.153846     24.000000
 -0.307692  0.461538  0.230769     24.000000

 Following cartesian coordinates:
            Coordinates               Weight
  0.000000  0.000000  0.000000      1.000000
 -0.011593  0.011593  0.011593      8.000000
 -0.023186  0.023186  0.023186      8.000000
 -0.034779  0.034779  0.034779      8.000000
 -0.046372  0.046372  0.046372      8.000000
 -0.057965  0.057965  0.057965      8.000000
 -0.069558  0.069558  0.069558      8.000000
  0.000000 -0.000000  0.023186      6.000000
 -0.011593  0.011593  0.034779     24.000000
 -0.023186  0.023186  0.046372     24.000000
 -0.034779  0.034779  0.057965     24.000000
 -0.046372  0.046372  0.069558     24.000000
 -0.057965  0.057965  0.081151     24.000000
  0.081151 -0.081151 -0.057965     24.000000
  0.069558 -0.069558 -0.046372     24.000000
  0.057965 -0.057965 -0.034779     24.000000
  0.046372 -0.046372 -0.023186     24.000000
  0.034779 -0.034779 -0.011593     24.000000
  0.023186 -0.023186  0.000000     12.000000
  0.000000 -0.000000  0.046372      6.000000
 -0.011593  0.011593  0.057965     24.000000
 -0.023186  0.023186  0.069558     24.000000
 -0.034779  0.034779  0.081151     24.000000
 -0.046372  0.046372  0.092744     24.000000
  0.092744 -0.092744 -0.046372     24.000000
  0.081151 -0.081151 -0.034779     24.000000
  0.069558 -0.069558 -0.023186     24.000000
  0.057965 -0.057965 -0.011593     24.000000
  0.046372 -0.046372  0.000000     12.000000
  0.000000 -0.000000  0.069558      6.000000
 -0.011593  0.011593  0.081151     24.000000
 -0.023186  0.023186  0.092744     24.000000
 -0.034779  0.034779  0.104337     24.000000
  0.104337 -0.104337 -0.034779     24.000000
  0.092744 -0.092744 -0.023186     24.000000
  0.081151 -0.081151 -0.011593     24.000000
  0.069558 -0.069558  0.000000     12.000000
  0.000000 -0.000000  0.092744      6.000000
 -0.011593  0.011593  0.104337     24.000000
 -0.023186  0.023186  0.115930     24.000000
  0.115930 -0.115930 -0.023186     24.000000
  0.104337 -0.104337 -0.011593     24.000000
  0.092744 -0.092744  0.000000     12.000000
  0.000000  0.000000  0.115930      6.000000
 -0.011593  0.011593  0.127523     24.000000
  0.127523 -0.127523 -0.011593     24.000000
  0.115930 -0.115930  0.000000     12.000000
 -0.000000  0.000000  0.139116      6.000000
  0.139116 -0.139116  0.000000     12.000000
  0.000000  0.023186  0.046372     24.000000
 -0.011593  0.034779  0.057965     48.000000
 -0.023186  0.046372  0.069558     48.000000
 -0.034779  0.057965  0.081151     48.000000
  0.104337 -0.081151 -0.057965     48.000000
  0.000000  0.023186  0.069558     24.000000
 -0.011593  0.034779  0.081151     48.000000
 -0.023186  0.046372  0.092744     48.000000
  0.115930 -0.092744 -0.046372     48.000000
  0.104337 -0.081151 -0.034779     48.000000
  0.092744 -0.069558 -0.023186     48.000000
  0.081151 -0.057965 -0.011593     48.000000
  0.069558 -0.046372  0.000000     24.000000
  0.000000  0.023186  0.092744     24.000000
 -0.011593  0.034779  0.104337     48.000000
  0.127523 -0.104337 -0.034779     48.000000
  0.115930 -0.092744 -0.023186     48.000000
  0.104337 -0.081151 -0.011593     48.000000
  0.092744 -0.069558 -0.000000     24.000000
  0.000000  0.023186  0.115930     24.000000
  0.139116 -0.115930 -0.023186     48.000000
  0.127523 -0.104337 -0.011593     48.000000
  0.115930 -0.092744  0.000000     24.000000
  0.150709 -0.127523 -0.011593     24.000000
  0.139116 -0.115930 -0.000000     24.000000
 -0.000000  0.046372  0.092744     24.000000
  0.139116 -0.092744 -0.046372     48.000000
  0.127523 -0.081151 -0.034779     48.000000
  0.150709 -0.104337 -0.034779     24.000000
  0.139116 -0.092744 -0.023186     48.000000
  0.127523 -0.081151 -0.011593     48.000000
  0.115930 -0.069558  0.000000     24.000000
  0.150709 -0.104337 -0.011593     24.000000
  0.139116 -0.092744 -0.000000     24.000000
  0.150709 -0.081151 -0.011593     24.000000



--------------------------------------------------------------------------------------------------------




 Dimension of arrays:
   k-points           NKPTS =     84   k-points in BZ     NKDIM =     84   number of bands    NBANDS=     24
   number of dos      NEDOS =    301   number of ions     NIONS =      3
   non local maximal  LDIM  =      8   non local SUM 2l+1 LMDIM =     32
   total plane-waves  NPLWV =  64000
   max r-space proj   IRMAX =      1   max aug-charges    IRDMAX= 497334
   dimension x,y,z NGX =    40 NGY =   40 NGZ =   40
   dimension x,y,z NGXF=    80 NGYF=   80 NGZF=   80
   support grid    NGXF=   160 NGYF=  160 NGZF=  160
   ions per type =               1   1   1
   NGX,Y,Z   is equivalent  to a cutoff of  14.90, 14.90, 14.90 a.u.
   NGXF,Y,Z  is equivalent  to a cutoff of  29.81, 29.81, 29.81 a.u.

 SYSTEM =  unknown system
 POSCAR =  U1 Bi1 Pt1

 Startparameter for this run:
   NWRITE =      2    write-flag & timer
   PREC   = acc       normal or accurate (medium, high low for compatibility)
   ISTART =      0    job   : 0-new  1-cont  2-samecut
   ICHARG =      2    charge: 1-file 2-atom 10-const
   ISPIN  =      1    spin polarized calculation?
   LNONCOLLINEAR =      F non collinear calculations
   LSORBIT =      F    spin-orbit coupling
   INIWAV =      1    electr: 0-lowe 1-rand  2-diag
   LASPH  =      F    aspherical Exc in radial PAW
   METAGGA=      F    non-selfconsistent MetaGGA calc.

 Electronic Relaxation 1
   ENCUT  =  700.0 eV  51.45 Ry    7.17 a.u.   9.63  9.63  9.63*2*pi/ulx,y,z
   ENINI  =  700.0     initial cutoff
   ENAUG  =  526.4 eV  augmentation charge cutoff
   NELM   =     60;   NELMIN=  5; NELMDL= -5     # of ELM steps
   EDIFF  = 0.1E-06   stopping-criterion for ELM
   LREAL  =      F    real-space projection
   NLSPLINE    = F    spline interpolate recip. space projectors
   LCOMPAT=      F    compatible to vasp.4.4
   GGA_COMPAT  = T    GGA compatible to vasp.4.4-vasp.4.6
   LMAXPAW     = -100 max onsite density
   LMAXMIX     =    2 max onsite mixed and CHGCAR
   VOSKOWN=      0    Vosko Wilk Nusair interpolation
   ROPT   =    0.00000   0.00000   0.00000
 Ionic relaxation
   EDIFFG = 0.1E-05   stopping-criterion for IOM
   NSW    =      0    number of steps for IOM
   NBLOCK =      1;   KBLOCK =      1    inner block; outer block
   IBRION =     -1    ionic relax: 0-MD 1-quasi-New 2-CG
   NFREE  =      0    steps in history (QN), initial steepest desc. (CG)
   ISIF   =      3    stress and relaxation
   IWAVPR =     10    prediction:  0-non 1-charg 2-wave 3-comb
   ISYM   =      2    0-nonsym 1-usesym 2-fastsym
   LCORR  =      T    Harris-Foulkes like correction to forces

   POTIM  = 0.5000    time-step for ionic-motion
   TEIN   =    0.0    initial temperature
   TEBEG  =    0.0;   TEEND  =   0.0 temperature during run
   SMASS  =  -3.00    Nose mass-parameter (am)
   estimated Nose-frequenzy (Omega)   =  0.10E-29 period in steps = 0.13E+47 mass=  -0.455E-27a.u.
   SCALEE = 1.0000    scale energy and forces
   NPACO  =    256;   APACO  = 16.0  distance and # of slots for P.C.
   PSTRESS=    0.0 pullay stress

  Mass of Ions in am
   POMASS = 238.03208.98195.08
  Ionic Valenz
   ZVAL   =  14.00 15.00 10.00
  Atomic Wigner-Seitz radii
   RWIGS  =  -1.00 -1.00 -1.00
  virtual crystal weights
   VCA    =   1.00  1.00  1.00
   NELECT =      39.0000    total number of electrons
   NUPDOWN=      -1.0000    fix difference up-down

 DOS related values:
   EMIN   =  10.00;   EMAX   =-10.00  energy-range for DOS
   EFERMI =   0.00
   ISMEAR =     0;   SIGMA  =   0.01  broadening in eV -4-tet -1-fermi 0-gaus

 Electronic relaxation 2 (details)
   IALGO  =     38    algorithm
   LDIAG  =      T    sub-space diagonalisation (order eigenvalues)
   LSUBROT=      F    optimize rotation matrix (better conditioning)
   TURBO    =      0    0=normal 1=particle mesh
   IRESTART =      0    0=no restart 2=restart with 2 vectors
   NREBOOT  =      0    no. of reboots
   NMIN     =      0    reboot dimension
   EREF     =   0.00    reference energy to select bands
   IMIX   =      4    mixing-type and parameters
     AMIX     =   0.40;   BMIX     =  1.00
     AMIX_MAG =   1.60;   BMIX_MAG =  1.00
     AMIN     =   0.10
     WC   =   100.;   INIMIX=   1;  MIXPRE=   1;  MAXMIX= -45

 Intra band minimization:
   WEIMIN = 0.0000     energy-eigenvalue tresh-hold
   EBREAK =  0.10E-08  absolut break condition
   DEPER  =   0.30     relativ break condition

   TIME   =   0.40     timestep for ELM

  volume/ion in A,a.u.               =      20.94       141.28
  Fermi-wavevector in a.u.,A,eV,Ry     =   1.396660  2.639306 26.540345  1.950660
  Thomas-Fermi vector in A             =   2.519993

 Write flags
   LWAVE        =      F    write WAVECAR
   LDOWNSAMPLE  =      F    k-point downsampling of WAVECAR
   LCHARG       =      F    write CHGCAR
   LVTOT        =      F    write LOCPOT, total local potential
   LVHAR        =      F    write LOCPOT, Hartree potential only
   LELF         =      F    write electronic localiz. function (ELF)
   LORBIT       =      0    0 simple, 1 ext, 2 COOP (PROOUT), +10 PAW based schemes


 Dipole corrections
   LMONO  =      F    monopole corrections only (constant potential shift)
   LDIPOL =      F    correct potential (dipole corrections)
   IDIPOL =      0    1-x, 2-y, 3-z, 4-all directions
   EPSILON=  1.0000000 bulk dielectric constant

 Exchange correlation treatment:
   GGA     =    PS    GGA type
   LEXCH   =    14    internal setting for exchange type
   VOSKOWN=      0    Vosko Wilk Nusair interpolation
   LHFCALC =     F    Hartree Fock is set to
   LHFONE  =     F    Hartree Fock one center treatment
   AEXX    =    0.0000 exact exchange contribution

 Linear response parameters
   LEPSILON=     F    determine dielectric tensor
   LRPA    =     F    only Hartree local field effects (RPA)
   LNABLA  =     F    use nabla operator in PAW spheres
   LVEL    =     F    velocity operator in full k-point grid
   LINTERFAST=   F  fast interpolation
   KINTER  =     0    interpolate to denser k-point grid
   CSHIFT  =0.1000    complex shift for real part using Kramers Kronig
   OMEGAMAX=  -1.0    maximum frequency
   DEG_THRESHOLD= 0.2000000E-02 threshold for treating states as degnerate
   RTIME   =   -0.100 relaxation time in fs
  (WPLASMAI=    0.000 imaginary part of plasma frequency in eV, 0.658/RTIME)
   DFIELD  = 0.0000000 0.0000000 0.0000000 field for delta impulse in time

 Orbital magnetization related:
   ORBITALMAG=     F  switch on orbital magnetization
   LCHIMAG   =     F  perturbation theory with respect to B field
   DQ        =  0.001000  dq finite difference perturbation B field
   LLRAUG    =     F  two centre corrections for induced B field



--------------------------------------------------------------------------------------------------------


 Static calculation
 charge density and potential will be updated during run
 non-spin polarized calculation
 Variant of blocked Davidson
 Davidson routine will perform the subspace rotation
 perform sub-space diagonalisation
    after iterative eigenvector-optimisation
 modified Broyden-mixing scheme, WC =      100.0
 initial mixing is a Kerker type mixing with AMIX =  0.4000 and BMIX =      1.0000
 Hartree-type preconditioning will be used
 using additional bands            4
 reciprocal scheme for non local part
 use partial core corrections
 calculate Harris-corrections to forces
   (improved forces if not selfconsistent)
 use gradient corrections
 use of overlap-Matrix (Vanderbilt PP)
 Gauss-broadening in eV      SIGMA  =   0.01


--------------------------------------------------------------------------------------------------------


  energy-cutoff  :      700.00
  volume of cell :       62.81
      direct lattice vectors                 reciprocal lattice vectors
     0.000000000  3.154972222  3.154972222    -0.158480001  0.158480001  0.158480001
     3.154972222  0.000000000  3.154972222     0.158480001 -0.158480001  0.158480001
     3.154972222  3.154972222  0.000000000     0.158480001  0.158480001 -0.158480001

  length of vectors
     4.461804506  4.461804506  4.461804506     0.274495413  0.274495413  0.274495413



 k-points in units of 2pi/SCALE and weight: KPOINTS
   0.00000000  0.00000000  0.00000000       0.000
  -0.01159304  0.01159304  0.01159304       0.004
  -0.02318608  0.02318608  0.02318608       0.004
  -0.03477911  0.03477911  0.03477911       0.004
  -0.04637215  0.04637215  0.04637215       0.004
  -0.05796519  0.05796519  0.05796519       0.004
  -0.06955823  0.06955823  0.06955823       0.004
   0.00000000 -0.00000000  0.02318608       0.003
  -0.01159304  0.01159304  0.03477911       0.011
  -0.02318608  0.02318608  0.04637215       0.011
  -0.03477911  0.03477911  0.05796519       0.011
  -0.04637215  0.04637215  0.06955823       0.011
  -0.05796519  0.05796519  0.08115127       0.011
   0.08115127 -0.08115127 -0.05796519       0.011
   0.06955823 -0.06955823 -0.04637215       0.011
   0.05796519 -0.05796519 -0.03477911       0.011
   0.04637215 -0.04637215 -0.02318608       0.011
   0.03477911 -0.03477911 -0.01159304       0.011
   0.02318608 -0.02318608  0.00000000       0.005
   0.00000000 -0.00000000  0.04637215       0.003
  -0.01159304  0.01159304  0.05796519       0.011
  -0.02318608  0.02318608  0.06955823       0.011
  -0.03477911  0.03477911  0.08115127       0.011
  -0.04637215  0.04637215  0.09274430       0.011
   0.09274430 -0.09274430 -0.04637215       0.011
   0.08115127 -0.08115127 -0.03477911       0.011
   0.06955823 -0.06955823 -0.02318608       0.011
   0.05796519 -0.05796519 -0.01159304       0.011
   0.04637215 -0.04637215  0.00000000       0.005
   0.00000000 -0.00000000  0.06955823       0.003
  -0.01159304  0.01159304  0.08115127       0.011
  -0.02318608  0.02318608  0.09274430       0.011
  -0.03477911  0.03477911  0.10433734       0.011
   0.10433734 -0.10433734 -0.03477911       0.011
   0.09274430 -0.09274430 -0.02318608       0.011
   0.08115127 -0.08115127 -0.01159304       0.011
   0.06955823 -0.06955823  0.00000000       0.005
   0.00000000 -0.00000000  0.09274430       0.003
  -0.01159304  0.01159304  0.10433734       0.011
  -0.02318608  0.02318608  0.11593038       0.011
   0.11593038 -0.11593038 -0.02318608       0.011
   0.10433734 -0.10433734 -0.01159304       0.011
   0.09274430 -0.09274430  0.00000000       0.005
   0.00000000  0.00000000  0.11593038       0.003
  -0.01159304  0.01159304  0.12752342       0.011
   0.12752342 -0.12752342 -0.01159304       0.011
   0.11593038 -0.11593038  0.00000000       0.005
  -0.00000000  0.00000000  0.13911646       0.003
   0.13911646 -0.13911646  0.00000000       0.005
   0.00000000  0.02318608  0.04637215       0.011
  -0.01159304  0.03477911  0.05796519       0.022
  -0.02318608  0.04637215  0.06955823       0.022
  -0.03477911  0.05796519  0.08115127       0.022
   0.10433734 -0.08115127 -0.05796519       0.022
   0.00000000  0.02318608  0.06955823       0.011
  -0.01159304  0.03477911  0.08115127       0.022
  -0.02318608  0.04637215  0.09274430       0.022
   0.11593038 -0.09274430 -0.04637215       0.022
   0.10433734 -0.08115127 -0.03477911       0.022
   0.09274430 -0.06955823 -0.02318608       0.022
   0.08115127 -0.05796519 -0.01159304       0.022
   0.06955823 -0.04637215  0.00000000       0.011
   0.00000000  0.02318608  0.09274430       0.011
  -0.01159304  0.03477911  0.10433734       0.022
   0.12752342 -0.10433734 -0.03477911       0.022
   0.11593038 -0.09274430 -0.02318608       0.022
   0.10433734 -0.08115127 -0.01159304       0.022
   0.09274430 -0.06955823 -0.00000000       0.011
   0.00000000  0.02318608  0.11593038       0.011
   0.13911646 -0.11593038 -0.02318608       0.022
   0.12752342 -0.10433734 -0.01159304       0.022
   0.11593038 -0.09274430  0.00000000       0.011
   0.15070950 -0.12752342 -0.01159304       0.011
   0.13911646 -0.11593038 -0.00000000       0.011
  -0.00000000  0.04637215  0.09274430       0.011
   0.13911646 -0.09274430 -0.04637215       0.022
   0.12752342 -0.08115127 -0.03477911       0.022
   0.15070950 -0.10433734 -0.03477911       0.011
   0.13911646 -0.09274430 -0.02318608       0.022
   0.12752342 -0.08115127 -0.01159304       0.022
   0.11593038 -0.06955823  0.00000000       0.011
   0.15070950 -0.10433734 -0.01159304       0.011
   0.13911646 -0.09274430 -0.00000000       0.011
   0.15070950 -0.08115127 -0.01159304       0.011

 k-points in reciprocal lattice and weights: KPOINTS
   0.00000000  0.00000000  0.00000000       0.000
   0.07692308 -0.00000000  0.00000000       0.004
   0.15384615  0.00000000 -0.00000000       0.004
   0.23076923  0.00000000 -0.00000000       0.004
   0.30769231  0.00000000 -0.00000000       0.004
   0.38461538 -0.00000000  0.00000000       0.004
   0.46153846  0.00000000 -0.00000000       0.004
   0.07692308  0.07692308  0.00000000       0.003
   0.15384615  0.07692308  0.00000000       0.011
   0.23076923  0.07692308 -0.00000000       0.011
   0.30769231  0.07692308  0.00000000       0.011
   0.38461538  0.07692308 -0.00000000       0.011
   0.46153846  0.07692308  0.00000000       0.011
  -0.46153846  0.07692308  0.00000000       0.011
  -0.38461538  0.07692308  0.00000000       0.011
  -0.30769231  0.07692308  0.00000000       0.011
  -0.23076923  0.07692308 -0.00000000       0.011
  -0.15384615  0.07692308 -0.00000000       0.011
  -0.07692308  0.07692308 -0.00000000       0.005
   0.15384615  0.15384615  0.00000000       0.003
   0.23076923  0.15384615 -0.00000000       0.011
   0.30769231  0.15384615 -0.00000000       0.011
   0.38461538  0.15384615  0.00000000       0.011
   0.46153846  0.15384615 -0.00000000       0.011
  -0.46153846  0.15384615  0.00000000       0.011
  -0.38461538  0.15384615  0.00000000       0.011
  -0.30769231  0.15384615  0.00000000       0.011
  -0.23076923  0.15384615 -0.00000000       0.011
  -0.15384615  0.15384615  0.00000000       0.005
   0.23076923  0.23076923  0.00000000       0.003
   0.30769231  0.23076923  0.00000000       0.011
   0.38461538  0.23076923  0.00000000       0.011
   0.46153846  0.23076923  0.00000000       0.011
  -0.46153846  0.23076923 -0.00000000       0.011
  -0.38461538  0.23076923 -0.00000000       0.011
  -0.30769231  0.23076923  0.00000000       0.011
  -0.23076923  0.23076923  0.00000000       0.005
   0.30769231  0.30769231  0.00000000       0.003
   0.38461538  0.30769231  0.00000000       0.011
   0.46153846  0.30769231 -0.00000000       0.011
  -0.46153846  0.30769231 -0.00000000       0.011
  -0.38461538  0.30769231 -0.00000000       0.011
  -0.30769231  0.30769231  0.00000000       0.005
   0.38461538  0.38461538  0.00000000       0.003
   0.46153846  0.38461538  0.00000000       0.011
  -0.46153846  0.38461538  0.00000000       0.011
  -0.38461538  0.38461538 -0.00000000       0.005
   0.46153846  0.46153846  0.00000000       0.003
  -0.46153846  0.46153846  0.00000000       0.005
   0.23076923  0.15384615  0.07692308       0.011
   0.30769231  0.15384615  0.07692308       0.022
   0.38461538  0.15384615  0.07692308       0.022
   0.46153846  0.15384615  0.07692308       0.022
  -0.46153846  0.15384615  0.07692308       0.022
   0.30769231  0.23076923  0.07692308       0.011
   0.38461538  0.23076923  0.07692308       0.022
   0.46153846  0.23076923  0.07692308       0.022
  -0.46153846  0.23076923  0.07692308       0.022
  -0.38461538  0.23076923  0.07692308       0.022
  -0.30769231  0.23076923  0.07692308       0.022
  -0.23076923  0.23076923  0.07692308       0.022
  -0.15384615  0.23076923  0.07692308       0.011
   0.38461538  0.30769231  0.07692308       0.011
   0.46153846  0.30769231  0.07692308       0.022
  -0.46153846  0.30769231  0.07692308       0.022
  -0.38461538  0.30769231  0.07692308       0.022
  -0.30769231  0.30769231  0.07692308       0.022
  -0.23076923  0.30769231  0.07692308       0.011
   0.46153846  0.38461538  0.07692308       0.011
  -0.46153846  0.38461538  0.07692308       0.022
  -0.38461538  0.38461538  0.07692308       0.022
  -0.30769231  0.38461538  0.07692308       0.011
  -0.46153846  0.46153846  0.07692308       0.011
  -0.38461538  0.46153846  0.07692308       0.011
   0.46153846  0.30769231  0.15384615       0.011
  -0.46153846  0.30769231  0.15384615       0.022
  -0.38461538  0.30769231  0.15384615       0.022
  -0.46153846  0.38461538  0.15384615       0.011
  -0.38461538  0.38461538  0.15384615       0.022
  -0.30769231  0.38461538  0.15384615       0.022
  -0.23076923  0.38461538  0.15384615       0.011
  -0.38461538  0.46153846  0.15384615       0.011
  -0.30769231  0.46153846  0.15384615       0.011
  -0.30769231  0.46153846  0.23076923       0.011

 position of ions in fractional coordinates (direct lattice)
   0.25000000  0.25000000  0.25000000
   0.75000000  0.75000000  0.75000000
   0.00000000  0.00000000  0.00000000

 position of ions in cartesian coordinates  (Angst):
   1.57748611  1.57748611  1.57748611
   4.73245833  4.73245833  4.73245833
   0.00000000  0.00000000  0.00000000



--------------------------------------------------------------------------------------------------------


 k-point  1 :   0.0000 0.0000 0.0000  plane waves:    2685
 k-point  2 :   0.0769-0.0000 0.0000  plane waves:    2688
 k-point  3 :   0.1538 0.0000-0.0000  plane waves:    2659
 k-point  4 :   0.2308 0.0000-0.0000  plane waves:    2644
 k-point  5 :   0.3077 0.0000-0.0000  plane waves:    2653
 k-point  6 :   0.3846-0.0000 0.0000  plane waves:    2632
 k-point  7 :   0.4615 0.0000-0.0000  plane waves:    2629
 k-point  8 :   0.0769 0.0769 0.0000  plane waves:    2681
 k-point  9 :   0.1538 0.0769 0.0000  plane waves:    2669
 k-point 10 :   0.2308 0.0769-0.0000  plane waves:    2648
 k-point 11 :   0.3077 0.0769 0.0000  plane waves:    2641
 k-point 12 :   0.3846 0.0769-0.0000  plane waves:    2649
 k-point 13 :   0.4615 0.0769 0.0000  plane waves:    2636
 k-point 14 :  -0.4615 0.0769 0.0000  plane waves:    2632
 k-point 15 :  -0.3846 0.0769 0.0000  plane waves:    2636
 k-point 16 :  -0.3077 0.0769 0.0000  plane waves:    2644
 k-point 17 :  -0.2308 0.0769-0.0000  plane waves:    2641
 k-point 18 :  -0.1538 0.0769-0.0000  plane waves:    2650
 k-point 19 :  -0.0769 0.0769-0.0000  plane waves:    2675
 k-point 20 :   0.1538 0.1538 0.0000  plane waves:    2657
 k-point 21 :   0.2308 0.1538-0.0000  plane waves:    2639
 k-point 22 :   0.3077 0.1538-0.0000  plane waves:    2648
 k-point 23 :   0.3846 0.1538 0.0000  plane waves:    2649
 k-point 24 :   0.4615 0.1538-0.0000  plane waves:    2642
 k-point 25 :  -0.4615 0.1538 0.0000  plane waves:    2627
 k-point 26 :  -0.3846 0.1538 0.0000  plane waves:    2636
 k-point 27 :  -0.3077 0.1538 0.0000  plane waves:    2635
 k-point 28 :  -0.2308 0.1538-0.0000  plane waves:    2639
 k-point 29 :  -0.1538 0.1538 0.0000  plane waves:    2639
 k-point 30 :   0.2308 0.2308 0.0000  plane waves:    2650
 k-point 31 :   0.3077 0.2308 0.0000  plane waves:    2646
 k-point 32 :   0.3846 0.2308 0.0000  plane waves:    2642
 k-point 33 :   0.4615 0.2308 0.0000  plane waves:    2643
 k-point 34 :  -0.4615 0.2308-0.0000  plane waves:    2638
 k-point 35 :  -0.3846 0.2308-0.0000  plane waves:    2632
 k-point 36 :  -0.3077 0.2308 0.0000  plane waves:    2640
 k-point 37 :  -0.2308 0.2308 0.0000  plane waves:    2642
 k-point 38 :   0.3077 0.3077 0.0000  plane waves:    2642
 k-point 39 :   0.3846 0.3077 0.0000  plane waves:    2637
 k-point 40 :   0.4615 0.3077-0.0000  plane waves:    2634
 k-point 41 :  -0.4615 0.3077-0.0000  plane waves:    2633
 k-point 42 :  -0.3846 0.3077-0.0000  plane waves:    2637
 k-point 43 :  -0.3077 0.3077 0.0000  plane waves:    2640
 k-point 44 :   0.3846 0.3846 0.0000  plane waves:    2650
 k-point 45 :   0.4615 0.3846 0.0000  plane waves:    2638
 k-point 46 :  -0.4615 0.3846 0.0000  plane waves:    2634
 k-point 47 :  -0.3846 0.3846-0.0000  plane waves:    2622
 k-point 48 :   0.4615 0.4615 0.0000  plane waves:    2626
 k-point 49 :  -0.4615 0.4615 0.0000  plane waves:    2638
 k-point 50 :   0.2308 0.1538 0.0769  plane waves:    2652
 k-point 51 :   0.3077 0.1538 0.0769  plane waves:    2645
 k-point 52 :   0.3846 0.1538 0.0769  plane waves:    2641
 k-point 53 :   0.4615 0.1538 0.0769  plane waves:    2641
 k-point 54 :  -0.4615 0.1538 0.0769  plane waves:    2636
 k-point 55 :   0.3077 0.2308 0.0769  plane waves:    2639
 k-point 56 :   0.3846 0.2308 0.0769  plane waves:    2645
 k-point 57 :   0.4615 0.2308 0.0769  plane waves:    2644
 k-point 58 :  -0.4615 0.2308 0.0769  plane waves:    2641
 k-point 59 :  -0.3846 0.2308 0.0769  plane waves:    2632
 k-point 60 :  -0.3077 0.2308 0.0769  plane waves:    2644
 k-point 61 :  -0.2308 0.2308 0.0769  plane waves:    2640
 k-point 62 :  -0.1538 0.2308 0.0769  plane waves:    2646
 k-point 63 :   0.3846 0.3077 0.0769  plane waves:    2648
 k-point 64 :   0.4615 0.3077 0.0769  plane waves:    2647
 k-point 65 :  -0.4615 0.3077 0.0769  plane waves:    2647
 k-point 66 :  -0.3846 0.3077 0.0769  plane waves:    2633
 k-point 67 :  -0.3077 0.3077 0.0769  plane waves:    2633
 k-point 68 :  -0.2308 0.3077 0.0769  plane waves:    2640
 k-point 69 :   0.4615 0.3846 0.0769  plane waves:    2647
 k-point 70 :  -0.4615 0.3846 0.0769  plane waves:    2632
 k-point 71 :  -0.3846 0.3846 0.0769  plane waves:    2632
 k-point 72 :  -0.3077 0.3846 0.0769  plane waves:    2635
 k-point 73 :  -0.4615 0.4615 0.0769  plane waves:    2637
 k-point 74 :  -0.3846 0.4615 0.0769  plane waves:    2630
 k-point 75 :   0.4615 0.3077 0.1538  plane waves:    2642
 k-point 76 :  -0.4615 0.3077 0.1538  plane waves:    2647
 k-point 77 :  -0.3846 0.3077 0.1538  plane waves:    2640
 k-point 78 :  -0.4615 0.3846 0.1538  plane waves:    2638
 k-point 79 :  -0.3846 0.3846 0.1538  plane waves:    2638
 k-point 80 :  -0.3077 0.3846 0.1538  plane waves:    2639
 k-point 81 :  -0.2308 0.3846 0.1538  plane waves:    2639
 k-point 82 :  -0.3846 0.4615 0.1538  plane waves:    2635
 k-point 83 :  -0.3077 0.4615 0.1538  plane waves:    2642
 k-point 84 :  -0.3077 0.4615 0.2308  plane waves:    2632

 maximum and minimum number of plane-waves per node :       680      644

 maximum number of plane-waves:      2688
 maximum index in each direction:
   IXMAX=   10   IYMAX=    9   IZMAX=    9
   IXMIN=  -10   IYMIN=  -10   IZMIN=   -9


 parallel 3D FFT for wavefunctions:
    minimum data exchange during FFTs selected (reduces bandwidth)
 parallel 3D FFT for charge:
    minimum data exchange during FFTs selected (reduces bandwidth)


 total amount of memory used by VASP MPI-rank0    87335. kBytes
=======================================================================

   base      :      30000. kBytes
   nonl-proj :      43642. kBytes
   fftplans  :       5203. kBytes
   grid      :       2732. kBytes
   one-center:         49. kBytes
   wavefun   :       5709. kBytes

     INWAV:  cpu time    0.0003: real time    0.0026
 Broyden mixing: mesh for mixing (old mesh)
   NGX = 19   NGY = 19   NGZ = 19
  (NGX  = 80   NGY  = 80   NGZ  = 80)
  gives a total of   6859 points

 initial charge density was supplied:
 charge density of overlapping atoms calculated
 number of electron      39.0000000 magnetization
 keeping initial charge density in first step


--------------------------------------------------------------------------------------------------------


 Maximum index for augmentation-charges        30141 (set IRDMAX)


--------------------------------------------------------------------------------------------------------


 First call to EWALD:  gamma=   0.446
 Maximum number of real-space cells 3x 3x 3
 Maximum number of reciprocal cells 3x 3x 3

    FEWALD:  cpu time    0.0053: real time    0.0064


--------------------------------------- Iteration      1(   1)  ---------------------------------------


    POTLOK:  cpu time    0.0499: real time    0.1290
    SETDIJ:  cpu time    0.1011: real time    0.1014
     EDDAV:  cpu time    1.4089: real time    1.4196
       DOS:  cpu time    0.0039: real time    0.0060
    --------------------------------------------
      LOOP:  cpu time    1.5641: real time    1.6566

 eigenvalue-minimisations  :  4056
 total energy-change (2. order) : 0.4374876E+03  (-0.2276552E+04)
 number of electron      39.0000000 magnetization
 augmentation part       39.0000000 magnetization

 Free energy of the ion-electron system (eV)
  ---------------------------------------------------
  alpha Z        PSCENC =       250.36181529
  Ewald energy   TEWEN  =     -3778.57835177
  -Hartree energ DENC   =      -708.89344585
  -exchange      EXHF   =         0.00000000
  -V(xc)+E(xc)   XCENC  =        92.33352134
  PAW double counting   =      3513.29252893    -3436.88002192
  entropy T*S    EENTRO =        -0.00012510
  eigenvalues    EBANDS =       410.49956904
  atomic energy  EATOM  =      4095.35208632
  Solvation  Ediel_sol  =         0.00000000
  ---------------------------------------------------
  free energy    TOTEN  =       437.48757627 eV

  energy without entropy =      437.48770137  energy(sigma->0) =      437.48763882


--------------------------------------------------------------------------------------------------------




--------------------------------------- Iteration      1(   2)  ---------------------------------------


     EDDAV:  cpu time    1.4290: real time    1.4698
       DOS:  cpu time    0.0027: real time    0.0036
    --------------------------------------------
      LOOP:  cpu time    1.4318: real time    1.4753

 eigenvalue-minimisations  :  4232
 total energy-change (2. order) :-0.4047644E+03  (-0.3961644E+03)
 number of electron      39.0000000 magnetization
 augmentation part       39.0000000 magnetization

 Free energy of the ion-electron system (eV)
  ---------------------------------------------------
  alpha Z        PSCENC =       250.36181529
  Ewald energy   TEWEN  =     -3778.57835177
  -Hartree energ DENC   =      -708.89344585
  -exchange      EXHF   =         0.00000000
  -V(xc)+E(xc)   XCENC  =        92.33352134
  PAW double counting   =      3513.29252893    -3436.88002192
  entropy T*S    EENTRO =        -0.00041228
  eigenvalues    EBANDS =         5.73550414
  atomic energy  EATOM  =      4095.35208632
  Solvation  Ediel_sol  =         0.00000000
  ---------------------------------------------------
  free energy    TOTEN  =        32.72322418 eV

  energy without entropy =       32.72363647  energy(sigma->0) =       32.72343032


--------------------------------------------------------------------------------------------------------




--------------------------------------- Iteration      1(   3)  ---------------------------------------


     EDDAV:  cpu time    1.6538: real time    1.6868
       DOS:  cpu time    0.0032: real time    0.0043
    --------------------------------------------
      LOOP:  cpu time    1.6570: real time    1.6891

 eigenvalue-minimisations  :  5048
 total energy-change (2. order) :-0.5281734E+02  (-0.5167059E+02)
 number of electron      39.0000000 magnetization
 augmentation part       39.0000000 magnetization

 Free energy of the ion-electron system (eV)
  ---------------------------------------------------
  alpha Z        PSCENC =       250.36181529
  Ewald energy   TEWEN  =     -3778.57835177
  -Hartree energ DENC   =      -708.89344585
  -exchange      EXHF   =         0.00000000
  -V(xc)+E(xc)   XCENC  =        92.33352134
  PAW double counting   =      3513.29252893    -3436.88002192
  entropy T*S    EENTRO =        -0.00062234
  eigenvalues    EBANDS =       -47.08162968
  atomic energy  EATOM  =      4095.35208632
  Solvation  Ediel_sol  =         0.00000000
  ---------------------------------------------------
  free energy    TOTEN  =       -20.09411969 eV

  energy without entropy =      -20.09349735  energy(sigma->0) =      -20.09380852


--------------------------------------------------------------------------------------------------------




--------------------------------------- Iteration      1(   4)  ---------------------------------------


     EDDAV:  cpu time    2.2176: real time    2.2373
       DOS:  cpu time    0.0032: real time    0.0042
    --------------------------------------------
      LOOP:  cpu time    2.2209: real time    2.2423

 eigenvalue-minimisations  :  7280
 total energy-change (2. order) :-0.5314561E+01  (-0.5289421E+01)
 number of electron      39.0000000 magnetization
 augmentation part       39.0000000 magnetization

 Free energy of the ion-electron system (eV)
  ---------------------------------------------------
  alpha Z        PSCENC =       250.36181529
  Ewald energy   TEWEN  =     -3778.57835177
  -Hartree energ DENC   =      -708.89344585
  -exchange      EXHF   =         0.00000000
  -V(xc)+E(xc)   XCENC  =        92.33352134
  PAW double counting   =      3513.29252893    -3436.88002192
  entropy T*S    EENTRO =        -0.00086204
  eigenvalues    EBANDS =       -52.39595103
  atomic energy  EATOM  =      4095.35208632
  Solvation  Ediel_sol  =         0.00000000
  ---------------------------------------------------
  free energy    TOTEN  =       -25.40868074 eV

  energy without entropy =      -25.40781870  energy(sigma->0) =      -25.40824972


--------------------------------------------------------------------------------------------------------




--------------------------------------- Iteration      1(   5)  ---------------------------------------


     EDDAV:  cpu time    1.7448: real time    1.7667
       DOS:  cpu time    0.0031: real time    0.0038
    CHARGE:  cpu time    0.3410: real time    0.3423
    MIXING:  cpu time    0.0100: real time    0.0108
    --------------------------------------------
      LOOP:  cpu time    2.0990: real time    2.1239

 eigenvalue-minimisations  :  5512
 total energy-change (2. order) :-0.1714874E+00  (-0.1712538E+00)
 number of electron      39.0000000 magnetization
 augmentation part        8.5889414 magnetization

 Broyden mixing:
  rms(total) = 0.17176E+01    rms(broyden)= 0.17176E+01
  rms(prec ) = 0.44265E+01
  weight for this iteration     100.00

 Free energy of the ion-electron system (eV)
  ---------------------------------------------------
  alpha Z        PSCENC =       250.36181529
  Ewald energy   TEWEN  =     -3778.57835177
  -Hartree energ DENC   =      -708.89344585
  -exchange      EXHF   =         0.00000000
  -V(xc)+E(xc)   XCENC  =        92.33352134
  PAW double counting   =      3513.29252893    -3436.88002192
  entropy T*S    EENTRO =        -0.00080714
  eigenvalues    EBANDS =       -52.56749330
  atomic energy  EATOM  =      4095.35208632
  Solvation  Ediel_sol  =         0.00000000
  ---------------------------------------------------
  free energy    TOTEN  =       -25.58016811 eV

  energy without entropy =      -25.57936097  energy(sigma->0) =      -25.57976454


--------------------------------------------------------------------------------------------------------




--------------------------------------- Iteration      1(   6)  ---------------------------------------


    POTLOK:  cpu time    0.0403: real time    0.0704
    SETDIJ:  cpu time    0.1038: real time    0.1040
     EDDAV:  cpu time    1.8869: real time    1.8871
       DOS:  cpu time    0.0030: real time    0.0036
    CHARGE:  cpu time    0.3076: real time    0.3080
    MIXING:  cpu time    0.0042: real time    0.0043
    --------------------------------------------
      LOOP:  cpu time    2.3460: real time    2.3775

 eigenvalue-minimisations  :  6168
 total energy-change (2. order) :-0.4572418E+01  (-0.1553952E+02)
 number of electron      39.0000000 magnetization
 augmentation part        7.0571059 magnetization

 Broyden mixing:
  rms(total) = 0.22995E+01    rms(broyden)= 0.22995E+01
  rms(prec ) = 0.55943E+01
  weight for this iteration     100.00

 eigenvalues of (default mixing * dielectric matrix)
  average eigenvalue GAMMA=   0.3386
  0.3386

 Free energy of the ion-electron system (eV)
  ---------------------------------------------------
  alpha Z        PSCENC =       250.36181529
  Ewald energy   TEWEN  =     -3778.57835177
  -Hartree energ DENC   =      -711.46325456
  -exchange      EXHF   =         0.00000000
  -V(xc)+E(xc)   XCENC  =        92.69393426
  PAW double counting   =      3986.82149763    -3912.16016715
  entropy T*S    EENTRO =        -0.00011659
  eigenvalues    EBANDS =       -53.18002919
  atomic energy  EATOM  =      4095.35208632
  Solvation  Ediel_sol  =         0.00000000
  ---------------------------------------------------
  free energy    TOTEN  =       -30.15258576 eV

  energy without entropy =      -30.15246917  energy(sigma->0) =      -30.15252746


--------------------------------------------------------------------------------------------------------




--------------------------------------- Iteration      1(   7)  ---------------------------------------


    POTLOK:  cpu time    0.0401: real time    0.0637
    SETDIJ:  cpu time    0.0947: real time    0.0948
     EDDAV:  cpu time    1.8054: real time    1.8057
       DOS:  cpu time    0.0032: real time    0.0045
    CHARGE:  cpu time    0.2850: real time    0.2852
    MIXING:  cpu time    0.0040: real time    0.0041
    --------------------------------------------
      LOOP:  cpu time    2.2323: real time    2.2577

 eigenvalue-minimisations  :  5824
 total energy-change (2. order) : 0.6607789E+01  (-0.2452314E+01)
 number of electron      39.0000000 magnetization
 augmentation part        7.6436885 magnetization

 Broyden mixing:
  rms(total) = 0.90482E+00    rms(broyden)= 0.90482E+00
  rms(prec ) = 0.21791E+01
  weight for this iteration     100.00

 eigenvalues of (default mixing * dielectric matrix)
  average eigenvalue GAMMA=   0.8387
  0.9763  0.7012

 Free energy of the ion-electron system (eV)
  ---------------------------------------------------
  alpha Z        PSCENC =       250.36181529
  Ewald energy   TEWEN  =     -3778.57835177
  -Hartree energ DENC   =      -700.13186708
  -exchange      EXHF   =         0.00000000
  -V(xc)+E(xc)   XCENC  =        92.13510154
  PAW double counting   =      4150.36936374    -4079.98166064
  entropy T*S    EENTRO =        -0.00064502
  eigenvalues    EBANDS =       -53.07063957
  atomic energy  EATOM  =      4095.35208632
  Solvation  Ediel_sol  =         0.00000000
  ---------------------------------------------------
  free energy    TOTEN  =       -23.54479719 eV

  energy without entropy =      -23.54415217  energy(sigma->0) =      -23.54447468


--------------------------------------------------------------------------------------------------------




--------------------------------------- Iteration      1(   8)  ---------------------------------------


    POTLOK:  cpu time    0.0313: real time    0.0580
    SETDIJ:  cpu time    0.0943: real time    0.0944
     EDDAV:  cpu time    1.8911: real time    1.8913
       DOS:  cpu time    0.0031: real time    0.0041
    CHARGE:  cpu time    0.2871: real time    0.2872
    MIXING:  cpu time    0.0046: real time    0.0047
    --------------------------------------------
      LOOP:  cpu time    2.3116: real time    2.3401

 eigenvalue-minimisations  :  5960
 total energy-change (2. order) :-0.3258055E-01  (-0.1878828E+01)
 number of electron      39.0000000 magnetization
 augmentation part        8.4804517 magnetization

 Broyden mixing:
  rms(total) = 0.62854E+00    rms(broyden)= 0.62854E+00
  rms(prec ) = 0.21020E+01
  weight for this iteration     100.00

 eigenvalues of (default mixing * dielectric matrix)
  average eigenvalue GAMMA=   1.0629
  2.0046  0.5920  0.5920

 Free energy of the ion-electron system (eV)
  ---------------------------------------------------
  alpha Z        PSCENC =       250.36181529
  Ewald energy   TEWEN  =     -3778.57835177
  -Hartree energ DENC   =      -690.33513903
  -exchange      EXHF   =         0.00000000
  -V(xc)+E(xc)   XCENC  =        91.72978446
  PAW double counting   =      4386.26987065    -4320.02218615
  entropy T*S    EENTRO =        -0.00128997
  eigenvalues    EBANDS =       -58.35396753
  atomic energy  EATOM  =      4095.35208632
  Solvation  Ediel_sol  =         0.00000000
  ---------------------------------------------------
  free energy    TOTEN  =       -23.57737774 eV

  energy without entropy =      -23.57608777  energy(sigma->0) =      -23.57673275


--------------------------------------------------------------------------------------------------------




--------------------------------------- Iteration      1(   9)  ---------------------------------------


    POTLOK:  cpu time    0.0308: real time    0.0597
    SETDIJ:  cpu time    0.0922: real time    0.0923
     EDDAV:  cpu time    1.8984: real time    1.8987
       DOS:  cpu time    0.0032: real time    0.0035
    CHARGE:  cpu time    0.2846: real time    0.2847
    MIXING:  cpu time    0.0065: real time    0.0066
    --------------------------------------------
      LOOP:  cpu time    2.3157: real time    2.3444

 eigenvalue-minimisations  :  6176
 total energy-change (2. order) : 0.5503924E+00  (-0.5802239E+00)
 number of electron      39.0000000 magnetization
 augmentation part        7.8825786 magnetization

 Broyden mixing:
  rms(total) = 0.10263E+00    rms(broyden)= 0.10263E+00
  rms(prec ) = 0.20588E+00
  weight for this iteration     100.00

 eigenvalues of (default mixing * dielectric matrix)
  average eigenvalue GAMMA=   1.0347
  2.2859  0.5892  0.5892  0.6745

 Free energy of the ion-electron system (eV)
  ---------------------------------------------------
  alpha Z        PSCENC =       250.36181529
  Ewald energy   TEWEN  =     -3778.57835177
  -Hartree energ DENC   =      -692.10427691
  -exchange      EXHF   =         0.00000000
  -V(xc)+E(xc)   XCENC  =        91.85525788
  PAW double counting   =      4591.85892903    -4527.08988090
  entropy T*S    EENTRO =        -0.00149410
  eigenvalues    EBANDS =       -54.68107013
  atomic energy  EATOM  =      4095.35208632
  Solvation  Ediel_sol  =         0.00000000
  ---------------------------------------------------
  free energy    TOTEN  =       -23.02698530 eV

  energy without entropy =      -23.02549120  energy(sigma->0) =      -23.02623825


--------------------------------------------------------------------------------------------------------




--------------------------------------- Iteration      1(  10)  ---------------------------------------


    POTLOK:  cpu time    0.0402: real time    0.0630
    SETDIJ:  cpu time    0.0945: real time    0.0946
     EDDAV:  cpu time    1.8552: real time    1.8554
       DOS:  cpu time    0.0032: real time    0.0041
    CHARGE:  cpu time    0.2849: real time    0.2850
    MIXING:  cpu time    0.0040: real time    0.0042
    --------------------------------------------
      LOOP:  cpu time    2.2821: real time    2.3073

 eigenvalue-minimisations  :  5976
 total energy-change (2. order) :-0.7259743E-02  (-0.1682306E-01)
 number of electron      39.0000000 magnetization
 augmentation part        7.8985090 magnetization

 Broyden mixing:
  rms(total) = 0.53466E-01    rms(broyden)= 0.53465E-01
  rms(prec ) = 0.15792E+00
  weight for this iteration     100.00

 eigenvalues of (default mixing * dielectric matrix)
  average eigenvalue GAMMA=   0.9919
  1.9839  0.5812  0.5812  0.9067  0.9067

 Free energy of the ion-electron system (eV)
  ---------------------------------------------------
  alpha Z        PSCENC =       250.36181529
  Ewald energy   TEWEN  =     -3778.57835177
  -Hartree energ DENC   =      -690.91799309
  -exchange      EXHF   =         0.00000000
  -V(xc)+E(xc)   XCENC  =        91.81397261
  PAW double counting   =      4651.14961873    -4586.94182812
  entropy T*S    EENTRO =        -0.00154913
  eigenvalues    EBANDS =       -55.27201587
  atomic energy  EATOM  =      4095.35208632
  Solvation  Ediel_sol  =         0.00000000
  ---------------------------------------------------
  free energy    TOTEN  =       -23.03424505 eV

  energy without entropy =      -23.03269591  energy(sigma->0) =      -23.03347048


--------------------------------------------------------------------------------------------------------




--------------------------------------- Iteration      1(  11)  ---------------------------------------


    POTLOK:  cpu time    0.0434: real time    0.0704
    SETDIJ:  cpu time    0.0947: real time    0.0949
     EDDAV:  cpu time    2.0105: real time    2.0108
       DOS:  cpu time    0.0031: real time    0.0037
    CHARGE:  cpu time    0.2864: real time    0.2864
    MIXING:  cpu time    0.0060: real time    0.0064
    --------------------------------------------
      LOOP:  cpu time    2.4441: real time    2.4735

 eigenvalue-minimisations  :  6576
 total energy-change (2. order) : 0.3279368E-02  (-0.7132285E-02)
 number of electron      39.0000000 magnetization
 augmentation part        7.9535092 magnetization

 Broyden mixing:
  rms(total) = 0.37264E-01    rms(broyden)= 0.37264E-01
  rms(prec ) = 0.93986E-01
  weight for this iteration     100.00

 eigenvalues of (default mixing * dielectric matrix)
  average eigenvalue GAMMA=   1.2841
  2.5972  2.3922  0.5775  0.5775  0.8183  0.7418

 Free energy of the ion-electron system (eV)
  ---------------------------------------------------
  alpha Z        PSCENC =       250.36181529
  Ewald energy   TEWEN  =     -3778.57835177
  -Hartree energ DENC   =      -690.65882123
  -exchange      EXHF   =         0.00000000
  -V(xc)+E(xc)   XCENC  =        91.79434754
  PAW double counting   =      4646.61538400    -4582.39678062
  entropy T*S    EENTRO =        -0.00151390
  eigenvalues    EBANDS =       -55.51913130
  atomic energy  EATOM  =      4095.35208632
  Solvation  Ediel_sol  =         0.00000000
  ---------------------------------------------------
  free energy    TOTEN  =       -23.03096568 eV

  energy without entropy =      -23.02945178  energy(sigma->0) =      -23.03020873


--------------------------------------------------------------------------------------------------------




--------------------------------------- Iteration      1(  12)  ---------------------------------------


    POTLOK:  cpu time    0.0616: real time    0.0947
    SETDIJ:  cpu time    0.0934: real time    0.0936
     EDDAV:  cpu time    1.9796: real time    1.9799
       DOS:  cpu time    0.0031: real time    0.0034
    CHARGE:  cpu time    0.2854: real time    0.2858
    MIXING:  cpu time    0.0047: real time    0.0049
    --------------------------------------------
      LOOP:  cpu time    2.4278: real time    2.4618

 eigenvalue-minimisations  :  6528
 total energy-change (2. order) : 0.7694864E-03  (-0.6631928E-03)
 number of electron      39.0000000 magnetization
 augmentation part        7.9394967 magnetization

 Broyden mixing:
  rms(total) = 0.54828E-02    rms(broyden)= 0.54827E-02
  rms(prec ) = 0.15741E-01
  weight for this iteration     100.00

 eigenvalues of (default mixing * dielectric matrix)
  average eigenvalue GAMMA=   1.2236
  2.6927  2.0269  0.5805  0.5805  0.9905  0.9905  0.7035

 Free energy of the ion-electron system (eV)
  ---------------------------------------------------
  alpha Z        PSCENC =       250.36181529
  Ewald energy   TEWEN  =     -3778.57835177
  -Hartree energ DENC   =      -690.80192150
  -exchange      EXHF   =         0.00000000
  -V(xc)+E(xc)   XCENC  =        91.79612828
  PAW double counting   =      4666.06356976    -4601.78730664
  entropy T*S    EENTRO =        -0.00155922
  eigenvalues    EBANDS =       -55.43465671
  atomic energy  EATOM  =      4095.35208632
  Solvation  Ediel_sol  =         0.00000000
  ---------------------------------------------------
  free energy    TOTEN  =       -23.03019619 eV

  energy without entropy =      -23.02863697  energy(sigma->0) =      -23.02941658


--------------------------------------------------------------------------------------------------------




--------------------------------------- Iteration      1(  13)  ---------------------------------------


    POTLOK:  cpu time    0.0360: real time    0.0609
    SETDIJ:  cpu time    0.0946: real time    0.0947
     EDDAV:  cpu time    2.0264: real time    2.0267
       DOS:  cpu time    0.0032: real time    0.0035
    CHARGE:  cpu time    0.2884: real time    0.2886
    MIXING:  cpu time    0.0045: real time    0.0046
    --------------------------------------------
      LOOP:  cpu time    2.4531: real time    2.4801

 eigenvalue-minimisations  :  6640
 total energy-change (2. order) :-0.2909172E-04  (-0.1538728E-03)
 number of electron      39.0000000 magnetization
 augmentation part        7.9312457 magnetization

 Broyden mixing:
  rms(total) = 0.58484E-02    rms(broyden)= 0.58484E-02
  rms(prec ) = 0.19347E-01
  weight for this iteration     100.00

 eigenvalues of (default mixing * dielectric matrix)
  average eigenvalue GAMMA=   1.2148
  2.5795  1.8816  1.4137  0.5808  0.5808  1.0597  0.8916  0.7309

 Free energy of the ion-electron system (eV)
  ---------------------------------------------------
  alpha Z        PSCENC =       250.36181529
  Ewald energy   TEWEN  =     -3778.57835177
  -Hartree energ DENC   =      -690.82671391
  -exchange      EXHF   =         0.00000000
  -V(xc)+E(xc)   XCENC  =        91.79786875
  PAW double counting   =      4667.50515442    -4603.20387184
  entropy T*S    EENTRO =        -0.00157098
  eigenvalues    EBANDS =       -55.43664155
  atomic energy  EATOM  =      4095.35208632
  Solvation  Ediel_sol  =         0.00000000
  ---------------------------------------------------
  free energy    TOTEN  =       -23.03022528 eV

  energy without entropy =      -23.02865430  energy(sigma->0) =      -23.02943979


--------------------------------------------------------------------------------------------------------




--------------------------------------- Iteration      1(  14)  ---------------------------------------


    POTLOK:  cpu time    0.0427: real time    0.0640
    SETDIJ:  cpu time    0.0949: real time    0.0950
     EDDAV:  cpu time    1.8234: real time    1.8237
       DOS:  cpu time    0.0032: real time    0.0035
    CHARGE:  cpu time    0.2859: real time    0.2860
    MIXING:  cpu time    0.0046: real time    0.0048
    --------------------------------------------
      LOOP:  cpu time    2.2547: real time    2.2783

 eigenvalue-minimisations  :  5832
 total energy-change (2. order) : 0.4993192E-04  (-0.6467714E-04)
 number of electron      39.0000000 magnetization
 augmentation part        7.9361624 magnetization

 Broyden mixing:
  rms(total) = 0.13651E-02    rms(broyden)= 0.13651E-02
  rms(prec ) = 0.39125E-02
  weight for this iteration     100.00

 eigenvalues of (default mixing * dielectric matrix)
  average eigenvalue GAMMA=   1.2938
  2.6826  2.1174  1.5250  1.5250  0.5808  0.5808  0.9560  0.9560  0.7207

 Free energy of the ion-electron system (eV)
  ---------------------------------------------------
  alpha Z        PSCENC =       250.36181529
  Ewald energy   TEWEN  =     -3778.57835177
  -Hartree energ DENC   =      -690.78114118
  -exchange      EXHF   =         0.00000000
  -V(xc)+E(xc)   XCENC  =        91.79573537
  PAW double counting   =      4667.26794635    -4602.95730662
  entropy T*S    EENTRO =        -0.00156480
  eigenvalues    EBANDS =       -55.48939431
  atomic energy  EATOM  =      4095.35208632
  Solvation  Ediel_sol  =         0.00000000
  ---------------------------------------------------
  free energy    TOTEN  =       -23.03017535 eV

  energy without entropy =      -23.02861055  energy(sigma->0) =      -23.02939295


--------------------------------------------------------------------------------------------------------




--------------------------------------- Iteration      1(  15)  ---------------------------------------


    POTLOK:  cpu time    0.0725: real time    0.1113
    SETDIJ:  cpu time    0.0949: real time    0.0951
     EDDAV:  cpu time    1.8820: real time    1.8824
       DOS:  cpu time    0.0032: real time    0.0037
    CHARGE:  cpu time    0.2881: real time    0.2882
    MIXING:  cpu time    0.0048: real time    0.0053
    --------------------------------------------
      LOOP:  cpu time    2.3456: real time    2.3821

 eigenvalue-minimisations  :  5984
 total energy-change (2. order) : 0.6476421E-07  (-0.5479916E-05)
 number of electron      39.0000000 magnetization
 augmentation part        7.9350150 magnetization

 Broyden mixing:
  rms(total) = 0.71062E-03    rms(broyden)= 0.71058E-03
  rms(prec ) = 0.21948E-02
  weight for this iteration     100.00

 eigenvalues of (default mixing * dielectric matrix)
  average eigenvalue GAMMA=   1.3083
  2.6729  2.3104  1.8970  1.3723  0.5808  0.5808  1.0157  1.0157  0.9135  0.7242

 Free energy of the ion-electron system (eV)
  ---------------------------------------------------
  alpha Z        PSCENC =       250.36181529
  Ewald energy   TEWEN  =     -3778.57835177
  -Hartree energ DENC   =      -690.79492858
  -exchange      EXHF   =         0.00000000
  -V(xc)+E(xc)   XCENC  =        91.79632468
  PAW double counting   =      4667.47847166    -4603.16358992
  entropy T*S    EENTRO =        -0.00156690
  eigenvalues    EBANDS =       -55.48043606
  atomic energy  EATOM  =      4095.35208632
  Solvation  Ediel_sol  =         0.00000000
  ---------------------------------------------------
  free energy    TOTEN  =       -23.03017529 eV

  energy without entropy =      -23.02860839  energy(sigma->0) =      -23.02939184


--------------------------------------------------------------------------------------------------------




--------------------------------------- Iteration      1(  16)  ---------------------------------------


    POTLOK:  cpu time    0.0906: real time    0.1273
    SETDIJ:  cpu time    0.0941: real time    0.0942
     EDDAV:  cpu time    1.9355: real time    1.9357
       DOS:  cpu time    0.0032: real time    0.0038
    CHARGE:  cpu time    0.2859: real time    0.2861
    MIXING:  cpu time    0.0053: real time    0.0102
    --------------------------------------------
      LOOP:  cpu time    2.4146: real time    2.4586

 eigenvalue-minimisations  :  6184
 total energy-change (2. order) : 0.7111184E-06  (-0.3445385E-06)
 number of electron      39.0000000 magnetization
 augmentation part        7.9353254 magnetization

 Broyden mixing:
  rms(total) = 0.24106E-03    rms(broyden)= 0.24095E-03
  rms(prec ) = 0.75445E-03
  weight for this iteration     100.00

 eigenvalues of (default mixing * dielectric matrix)
  average eigenvalue GAMMA=   1.3290
  2.7222  2.2982  2.1564  0.5808  0.5808  1.4603  0.7224  1.1015  1.1015  0.9474
  0.9474

 Free energy of the ion-electron system (eV)
  ---------------------------------------------------
  alpha Z        PSCENC =       250.36181529
  Ewald energy   TEWEN  =     -3778.57835177
  -Hartree energ DENC   =      -690.79280262
  -exchange      EXHF   =         0.00000000
  -V(xc)+E(xc)   XCENC  =        91.79628298
  PAW double counting   =      4667.36829435    -4603.05212480
  entropy T*S    EENTRO =        -0.00156659
  eigenvalues    EBANDS =       -55.48380773
  atomic energy  EATOM  =      4095.35208632
  Solvation  Ediel_sol  =         0.00000000
  ---------------------------------------------------
  free energy    TOTEN  =       -23.03017458 eV

  energy without entropy =      -23.02860798  energy(sigma->0) =      -23.02939128


--------------------------------------------------------------------------------------------------------




--------------------------------------- Iteration      1(  17)  ---------------------------------------


    POTLOK:  cpu time    0.0490: real time    0.0813
    SETDIJ:  cpu time    0.0941: real time    0.0942
     EDDAV:  cpu time    1.5011: real time    1.5014
       DOS:  cpu time    0.0029: real time    0.0036
    --------------------------------------------
      LOOP:  cpu time    1.6470: real time    1.6792

 eigenvalue-minimisations  :  4432
 total energy-change (2. order) : 0.8721781E-07  (-0.4495985E-07)
 number of electron      39.0000000 magnetization
 augmentation part        7.9353254 magnetization

 Free energy of the ion-electron system (eV)
  ---------------------------------------------------
  alpha Z        PSCENC =       250.36181529
  Ewald energy   TEWEN  =     -3778.57835177
  -Hartree energ DENC   =      -690.79251759
  -exchange      EXHF   =         0.00000000
  -V(xc)+E(xc)   XCENC  =        91.79628854
  PAW double counting   =      4667.36142168    -4603.04573077
  entropy T*S    EENTRO =        -0.00156655
  eigenvalues    EBANDS =       -55.48361964
  atomic energy  EATOM  =      4095.35208632
  Solvation  Ediel_sol  =         0.00000000
  ---------------------------------------------------
  free energy    TOTEN  =       -23.03017449 eV

  energy without entropy =      -23.02860794  energy(sigma->0) =      -23.02939121


--------------------------------------------------------------------------------------------------------




 average (electrostatic) potential at core
  the test charge radii are     1.2087  1.0856  1.2059
  (the norm of the test charge is              1.0000)
       1 -81.1461       2 -98.6582       3 -62.8163



 E-fermi :  12.3101     XC(G=0): -12.3253     alpha+bet :-18.6551


 k-point     1 :       0.0000    0.0000    0.0000
  band No.  band energies     occupation
      1     -31.6807      2.00000
      2     -10.9132      2.00000
      3     -10.9132      2.00000
      4     -10.8728      2.00000
      5     -10.8728      2.00000
      6     -10.8728      2.00000
      7      -7.1637      2.00000
      8      -7.1637      2.00000
      9      -7.1637      2.00000
     10      -1.1627      2.00000
     11       7.0150      2.00000
     12       7.0150      2.00000
     13       7.0150      2.00000
     14       7.0774      2.00000
     15       7.0774      2.00000
     16      10.8689      2.00000
     17      10.8689      2.00000
     18      10.8689      2.00000
     19      11.0898      2.00000
     20      12.1294      2.00000
     21      12.1294      2.00000
     22      12.1294      2.00000
     23      12.6578      0.00000
     24      12.9096      0.00000

 k-point     2 :       0.0769   -0.0000    0.0000
  band No.  band energies     occupation
      1     -31.6800      2.00000
      2     -10.9169      2.00000
      3     -10.9169      2.00000
      4     -10.8735      2.00000
      5     -10.8724      2.00000
      6     -10.8724      2.00000
      7      -7.1945      2.00000
      8      -7.1552      2.00000
      9      -7.1552      2.00000
     10      -1.0586      2.00000
     11       6.7654      2.00000
     12       6.7654      2.00000
     13       6.8839      2.00000
     14       7.3130      2.00000
     15       7.3130      2.00000
     16      10.2328      2.00000
     17      10.7980      2.00000
     18      10.7980      2.00000
     19      11.3954      2.00000
     20      12.1505      2.00000
     21      12.1505      2.00000
     22      12.2491      2.00000
     23      12.7282      0.00000
     24      12.7282      0.00000

 k-point     3 :       0.1538    0.0000   -0.0000
  band No.  band energies     occupation
      1     -31.6781      2.00000
      2     -10.9269      2.00000
      3     -10.9269      2.00000
      4     -10.8757      2.00000
      5     -10.8713      2.00000
      6     -10.8713      2.00000
      7      -7.2743      2.00000
      8      -7.1319      2.00000
[...]
  212              fftbas_plan_mpi                       0.061620                     12   6
  213                dfftw_execute                         0.025734                   36   7
  214                map_backward                          0.004086                   12   7
  215                  map_gather                            0.000795                  6   8
  216                  m_alltoallv_z                         0.001900                  6   8
  217                  map_scatter                           0.001107                  6   8
  218                map_forward                           0.028650                   12   7
  219                  map_gather                            0.016552                  6   8
  220                  m_alltoallv_z                         0.005511                  6   8
  221                  map_scatter                           0.006274                  6   8
  222            M_sumb_d                              0.006657                        6   5
  223          M_sumb_d                              0.000030                          1   4
  224        setdij_                               1.557672                           20   3
  225          fft3d_mpi                             0.220307                         40   4
  226            fftbas_plan_mpi                       0.202868                       40   5
  227              dfftw_execute                         0.087657                    120   6
  228              map_backward                          0.012787                     40   6
  229                map_gather                            0.002640                   20   7
  230                m_alltoallv_z                         0.005480                   20   7
  231                map_scatter                           0.003760                   20   7
  232              map_forward                           0.091524                     40   6
  233                map_gather                            0.051482                   20   7
  234                m_alltoallv_z                         0.017153                   20   7
  235                map_scatter                           0.021803                   20   7
  236          M_sumb_d                              0.011854                         20   4
  237        set_dd_magatom                        0.000004                            1   3
  238        set_dd_paw                            0.009680                            1   3
  239          set_rsgf_all                          0.000003                          1   4
  240          M_sumb_d                              0.009532                          8   4
  241        strkin                                0.001312                            1   3
  242          M_sumb_d                              0.000705                          1   4
  243        strelo                                0.002581                            1   3
  244          M_sumb_d                              0.000466                          2   4
  245        strenl                                0.925186                            1   3
  246          spher                                 0.686247                         19   4
  247          phase                                 0.011213                        189   4
  248          proj1                                 0.202816                       1134   4
  249            crexp_mul_wave                        0.028773                     3402   5
  250            M_sumb_d                              0.054921                     1134   5
  251          M_sumb_d                              0.003638                          1   4
  252        M_sumb_d                              0.000239                            6   3
  253        fft3d_mpi                             0.014947                           11   3
  254          fftbas_plan_mpi                       0.013942                         11   4
  255            dfftw_execute                         0.004846                       33   5
  256            map_forward                           0.002828                       10   5
  257              map_gather                            0.000612                      5   6
  258              m_alltoallv_z                         0.001301                      5   6
  259              map_scatter                           0.000674                      5   6
  260            map_backward                          0.003750                       12   5
  261              map_gather                            0.000726                      6   6
  262              m_alltoallv_z                         0.001642                      6   6
  263              map_scatter                           0.001093                      6   6
  264        ggaall_grid                           0.001606                            1   3
  265        forhar                                0.006072                            2   3
  266          M_sumb_d                              0.000158                          2   4
  267        strehar                               0.002668                            1   3
  268          M_sumb_d                              0.000168                          1   4
  269        chggra                                0.005691                            1   3
  270          fft3d_mpi                             0.004023                          3   4
  271            fftbas_plan_mpi                       0.003752                        3   5
  272              dfftw_execute                         0.001340                      9   6
  273              map_backward                          0.000591                      2   6
  274                map_gather                            0.000117                    1   7
  275                m_alltoallv_z                         0.000238                    1   7
  276                map_scatter                           0.000184                    1   7
  277              map_forward                           0.001035                      4   6
  278                map_gather                            0.000248                    2   7
  279                m_alltoallv_z                         0.000446                    2   7
  280                map_scatter                           0.000245                    2   7
  281          M_sumb_d                              0.000136                          3   4
  282        brmix                                 0.005976                            1   3
  283          M_sumb_d                              0.000294                          6   4
  284          brpre                                 0.000055                          1   4
  285          setg0                                 0.001444                          1   4
  286          broyd                                 0.002534                          1   4
  287            M_sumb_d                              0.000739                       19   5
  288            brget                                 0.000319                       69   5
  289            brsav                                 0.000133                       17   5
  290          M_bcast_z                             0.000705                          1   4
  291          M_bcast_d                             0.000047                          1   4
  292        M_bcast_d                             0.000259                            2   3
  293      potlok                                0.027388                              1   2
  294        fft3d_mpi                             0.018885                           13   3
  295          fftbas_plan_mpi                       0.017681                         13   4
  296            dfftw_execute                         0.005992                       39   5
  297            map_forward                           0.003798                       14   5
  298              map_gather                            0.000828                      8   6
  299              m_alltoallv_z                         0.001729                      8   6
  300              map_scatter                           0.000896                      8   6
  301            map_backward                          0.004795                       12   5
  302              map_gather                            0.001095                      6   6
  303              m_alltoallv_z                         0.002002                      6   6
  304              map_scatter                           0.001377                      6   6
  305        ggaall_grid                           0.001577                            1   3
  306        M_sumb_d                              0.000320                            6   3
  307        M_bcast_d                             0.000102                            1   3
  308      potlok_metagga                        0.000004                              1   2
  309      set_dd_magatom                        0.000004                              1   2
  310      set_dd_paw                            0.000471                              1   2
  311        set_rsgf_all                          0.000004                            1   3
  312        M_sumb_d                              0.000263                            8   3
  313      densta                                0.002222                              1   2
  314        M_sumb_d                              0.000805                           37   3
  315      lprj_proall                           0.000007                              1   2

 Flat profile
 ============

             routine name                   CPU           calls
 ---------------------------------------------------------------
 total_time                             13.755900           1
 eddav                                   5.768523          17
 dfftw_execute                           5.296132       55029
 fftbas_plan_mpi                         3.685048       18345
 M_sumb_d                                2.881785       50642
 setdij_                                 2.853215          41
 set_charge                              2.349053          13
 m_alltoallv_z                           2.019469       18370
 pdssyex_zheevx                          1.580092         357
 elmin                                   1.479654           1
 M_alltoall_d                            1.272298       60858
 orth1                                   0.962003       12468
 proj1                                   0.912660        7416
 vhamil                                  0.829869        8298
 gemm                                    0.818599       24894
 spher                                   0.793250          20
 map_forward                             0.706805       19774
 fftwav_mpi                              0.704469        9740
 map_gather                              0.649584       18370
 map_scatter                             0.595218       18370
 vnlac0                                  0.549155        8298
 redis_pw                                0.505116       23508
 M_bcast_z                               0.493856        6702
 redis_proj                              0.452376       29685
 hamiltmu                                0.449051        4149
 w1_copy                                 0.334780       24894
 map_backward                            0.294706       16912
 fft3d_mpi                               0.290541       18343
 work_mul_crexp                          0.263075       24894
 fftext_mpi                              0.257991        8298
 crpa_reader                             0.240549           1
 crexp_mul_wave                          0.203114       22248
 eccp                                    0.190172        2142
 overl                                   0.163820       14475
 kinhamil                                0.160913        8298
 M_bcast_d                               0.133965        4183
 overl1                                  0.105316        8298
 potlok                                  0.090957          14
 pw_charge                               0.087658        1442
 apply_precond                           0.080105        6156
 setup_precond                           0.068638        2142
 w1_projall                              0.066619        3078
 lincom                                  0.061544         378
 force_and_stress                        0.049021           1
 fornl                                   0.041407           1
 soft_charge                             0.036522          13
 truncate_high_frequency_w1              0.035400       10440
 phase                                   0.034626         589
 densta                                  0.028143          18
 ggaall_grid                             0.023472          15
 strenl                                  0.021273           1
 brmix                                   0.019453          13
 setg0                                   0.015633          14
 broyd                                   0.014344          13
 forhar                                  0.005914           2
 depsum                                  0.005703          13
 set_dd_paw                              0.002841          15
 forloc                                  0.002838           1
 strehar                                 0.002500           1
 brgrid                                  0.002436           1
 brget                                   0.002254         501
 strelo                                  0.002115           1
 orthch                                  0.001977           1
 choleski                                0.001743          21
 chggra                                  0.001532           1
 proj                                    0.001466          21
 brsav                                   0.001153         145
 brpre                                   0.000844          13
 strkin                                  0.000607           1
 fordep                                  0.000121           1
 set_dd_magatom                          0.000080          15
 vectorpot                               0.000072          14
 set_rsgf_all                            0.000071          15
 potlok_metagga                          0.000057          14
 set_kineden                             0.000042          12
 rotate_active_occupied_orbital          0.000015           1
 lprj_proall                             0.000007           1
 redis_pw_over_bands                     0.000004           1
 ---------------------------------------------------------------
  summed up times    55.8133280277252

 Accumulative profile
 ====================

             routine name                   CPU           calls
 ---------------------------------------------------------------
 total_time                             55.813328           1
 elmin                                  37.602466           1
 eddav                                  30.926207          17
 fft3d_mpi                              13.467459       18343
 fftbas_plan_mpi                        13.246963       18345
 hamiltmu                                9.540351        4149
 fftwav_mpi                              7.633227        9740
 kinhamil                                6.009105        8298
 fftext_mpi                              5.848192        8298
 dfftw_execute                           5.296132       55029
 set_charge                              3.792371          13
 force_and_stress                        3.407261           1
 setdij_                                 3.371046          41
 M_sumb_d                                2.881785       50642
 map_forward                             2.486765       19774
 vnlac0                                  2.147010        8298
 m_alltoallv_z                           2.019469       18370
 map_backward                            1.779018       16912
 pdssyex_zheevx                          1.580092         357
 proj1                                   1.570661        7416
 w1_projall                              1.412146        3078
 M_alltoall_d                            1.272298       60858
 soft_charge                             1.226712          13
 redis_pw                                1.220660       23508
 redis_proj                              1.009130       29685
 orth1                                   0.962003       12468
 strenl                                  0.925186           1
 vhamil                                  0.829869        8298
 gemm                                    0.818599       24894
 spher                                   0.793250          20
 map_gather                              0.649584       18370
 map_scatter                             0.595218       18370
 M_bcast_z                               0.493856        6702
 fordep                                  0.479877           1
 potlok                                  0.367152          14
 w1_copy                                 0.334780       24894
 eccp                                    0.313379        2142
 work_mul_crexp                          0.263075       24894
 crpa_reader                             0.240549           1
 crexp_mul_wave                          0.203114       22248
 set_dd_paw                              0.165761          15
 overl                                   0.163820       14475
 M_bcast_d                               0.133965        4183
 setup_precond                           0.118788        2142
 overl1                                  0.105316        8298
 pw_charge                               0.087658        1442
 apply_precond                           0.080105        6156
 brmix                                   0.071343          13
 lincom                                  0.061544         378
 fornl                                   0.055824           1
 densta                                  0.042338          18
 truncate_high_frequency_w1              0.035400       10440
 phase                                   0.034626         589
 orthch                                  0.033447           1
 broyd                                   0.023827          13
 proj                                    0.023784          21
 ggaall_grid                             0.023472          15
 setg0                                   0.015633          14
 depsum                                  0.009947          13
 forhar                                  0.006072           2
 chggra                                  0.005691           1
 forloc                                  0.002907           1
 strehar                                 0.002668           1
 strelo                                  0.002581           1
 brgrid                                  0.002436           1
 brget                                   0.002254         501
 choleski                                0.001743          21
 strkin                                  0.001312           1
 brsav                                   0.001153         145
 brpre                                   0.000844          13
 set_dd_magatom                          0.000080          15
 vectorpot                               0.000072          14
 set_rsgf_all                            0.000071          15
 potlok_metagga                          0.000057          14
 set_kineden                             0.000042          12
 rotate_active_occupied_orbital          0.000015           1
 lprj_proall                             0.000007           1
 redis_pw_over_bands                     0.000004           1
 ---------------------------------------------------------------

Profiling took   1.434125  1.744041  0.005757  0.004316 seconds
Profiling took   1.396015 seconds
