 ----------------------------------------------------
    OOO  PPPP  EEEEE N   N M   M PPPP
   O   O P   P E     NN  N MM MM P   P
   O   O PPPP  EEEEE N N N M M M PPPP   -- VERSION
   O   O P     E     N  NN M   M P
    OOO  P     EEEEE N   N M   M P
 ----------------------------------------------------
 running   64 mpi-ranks, with    1 threads/rank
 distrk:  each k-point on   16 cores,    4 groups
 distr:  one band on    4 cores,    4 groups
 using from now: INCAR
 vasp.6.0.8 29Jun18 (build Jun 13 2019 12:54:44) complex

 POSCAR found type information on POSCAR  U  Bi Pt
 POSCAR found :  3 types and       3 ions
 scaLAPACK will be used
 WARNING: PSMAXN for non-local potential too small

 -----------------------------------------------------------------------------
|                                                                             |
|  ADVICE TO THIS USER RUNNING 'VASP/VAMP'   (HEAR YOUR MASTER'S VOICE ...):  |
|                                                                             |
|      You enforced a specific xc-type in the INCAR file,                     |
|      a different type was found on the POTCAR file                          |
|          I HOPE YOU KNOW, WHAT YOU ARE  DOING                               |
|                                                                             |
 -----------------------------------------------------------------------------

 LDA part: xc-table for Pade appr. of Perdew
 POSCAR, INCAR and KPOINTS ok, starting setup
 FFT: planning ...
 WAVECAR not read
 entering main loop
       N       E                     dE             d eps       ncg     rms          rms(c)
 ELPA: falling back to scaLAPACK
 ELPA: falling back to scaLAPACK
 ELPA: falling back to scaLAPACK
 ELPA: falling back to scaLAPACK
DAV:   1     0.437487576271E+03    0.43749E+03   -0.22766E+04  4056   0.242E+03
DAV:   2     0.327232241820E+02   -0.40476E+03   -0.39616E+03  4232   0.514E+02
DAV:   3    -0.200941196924E+02   -0.52817E+02   -0.51671E+02  5048   0.185E+02
DAV:   4    -0.254086807422E+02   -0.53146E+01   -0.52894E+01  7280   0.476E+01
DAV:   5    -0.255801681083E+02   -0.17149E+00   -0.17125E+00  5512   0.706E+00    0.172E+01
DAV:   6    -0.301525857589E+02   -0.45724E+01   -0.15540E+02  6168   0.881E+01    0.230E+01
DAV:   7    -0.235447971917E+02    0.66078E+01   -0.24523E+01  5824   0.291E+01    0.905E+00
DAV:   8    -0.235773777385E+02   -0.32581E-01   -0.18788E+01  5960   0.215E+01    0.629E+00
DAV:   9    -0.230269853036E+02    0.55039E+00   -0.58022E+00  6176   0.152E+01    0.103E+00
DAV:  10    -0.230342450467E+02   -0.72597E-02   -0.16823E-01  5976   0.242E+00    0.535E-01
DAV:  11    -0.230309656788E+02    0.32794E-02   -0.71323E-02  6576   0.161E+00    0.373E-01
DAV:  12    -0.230301961924E+02    0.76949E-03   -0.66319E-03  6528   0.549E-01    0.548E-02
DAV:  13    -0.230302252841E+02   -0.29092E-04   -0.15387E-03  6640   0.229E-01    0.585E-02
DAV:  14    -0.230301753522E+02    0.49932E-04   -0.64677E-04  5832   0.146E-01    0.137E-02
DAV:  15    -0.230301752874E+02    0.64764E-07   -0.54799E-05  5984   0.465E-02    0.711E-03
DAV:  16    -0.230301745763E+02    0.71112E-06   -0.34454E-06  6184   0.122E-02    0.241E-03
DAV:  17    -0.230301744891E+02    0.87218E-07   -0.44960E-07  4432   0.370E-03
   1 F= -.23030174E+02 E0= -.23029391E+02  d E =-.156655E-02
