   3   3   0   0
  0.2623690E+02  0.4810419E-09  0.4810419E-09  0.4810419E-09  0.1000000E-15
  1.000000000000000E-004
  CAR
 unknown system
     12.99483717    -36.26890030  301     10.09032544      1.00000000
    -36.269  0.0000E+00  0.0000E+00
    -36.105  0.0000E+00  0.0000E+00
    -35.940  0.0000E+00  0.0000E+00
    -35.776  0.0000E+00  0.0000E+00
    -35.612  0.0000E+00  0.0000E+00
    -35.448  0.0000E+00  0.0000E+00
    -35.284  0.0000E+00  0.0000E+00
    -35.119  0.0000E+00  0.0000E+00
    -34.955  0.0000E+00  0.0000E+00
    -34.791  0.0000E+00  0.0000E+00
    -34.627  0.0000E+00  0.0000E+00
    -34.463  0.0000E+00  0.0000E+00
    -34.298  0.0000E+00  0.0000E+00
    -34.134  0.0000E+00  0.0000E+00
    -33.970  0.2030E+00  0.3333E-01
    -33.806  0.0000E+00  0.3333E-01
    -33.642  0.0000E+00  0.3333E-01
    -33.477  0.0000E+00  0.3333E-01
    -33.313  0.0000E+00  0.3333E-01
    -33.149  0.0000E+00  0.3333E-01
    -32.985  0.0000E+00  0.3333E-01
    -32.820  0.0000E+00  0.3333E-01
    -32.656  0.0000E+00  0.3333E-01
    -32.492  0.0000E+00  0.3333E-01
    -32.328  0.0000E+00  0.3333E-01
    -32.164  0.0000E+00  0.3333E-01
    -31.999  0.0000E+00  0.3333E-01
    -31.835  0.0000E+00  0.3333E-01
    -31.671  0.0000E+00  0.3333E-01
    -31.507  0.0000E+00  0.3333E-01
    -31.343  0.0000E+00  0.3333E-01
    -31.178  0.0000E+00  0.3333E-01
    -31.014  0.0000E+00  0.3333E-01
    -30.850  0.0000E+00  0.3333E-01
    -30.686  0.0000E+00  0.3333E-01
    -30.521  0.0000E+00  0.3333E-01
    -30.357  0.0000E+00  0.3333E-01
    -30.193  0.0000E+00  0.3333E-01
    -30.029  0.0000E+00  0.3333E-01
    -29.865  0.0000E+00  0.3333E-01
    -29.700  0.0000E+00  0.3333E-01
    -29.536  0.0000E+00  0.3333E-01
    -29.372  0.0000E+00  0.3333E-01
    -29.208  0.0000E+00  0.3333E-01
    -29.044  0.0000E+00  0.3333E-01
    -28.879  0.0000E+00  0.3333E-01
    -28.715  0.0000E+00  0.3333E-01
    -28.551  0.0000E+00  0.3333E-01
    -28.387  0.0000E+00  0.3333E-01
    -28.222  0.0000E+00  0.3333E-01
    -28.058  0.0000E+00  0.3333E-01
    -27.894  0.0000E+00  0.3333E-01
    -27.730  0.0000E+00  0.3333E-01
    -27.566  0.0000E+00  0.3333E-01
    -27.401  0.0000E+00  0.3333E-01
    -27.237  0.0000E+00  0.3333E-01
    -27.073  0.0000E+00  0.3333E-01
    -26.909  0.0000E+00  0.3333E-01
    -26.745  0.0000E+00  0.3333E-01
    -26.580  0.0000E+00  0.3333E-01
    -26.416  0.0000E+00  0.3333E-01
    -26.252  0.0000E+00  0.3333E-01
    -26.088  0.0000E+00  0.3333E-01
    -25.924  0.0000E+00  0.3333E-01
    -25.759  0.0000E+00  0.3333E-01
    -25.595  0.0000E+00  0.3333E-01
    -25.431  0.0000E+00  0.3333E-01
    -25.267  0.0000E+00  0.3333E-01
    -25.102  0.0000E+00  0.3333E-01
    -24.938  0.0000E+00  0.3333E-01
    -24.774  0.0000E+00  0.3333E-01
    -24.610  0.0000E+00  0.3333E-01
    -24.446  0.0000E+00  0.3333E-01
    -24.281  0.0000E+00  0.3333E-01
    -24.117  0.0000E+00  0.3333E-01
    -23.953  0.0000E+00  0.3333E-01
    -23.789  0.0000E+00  0.3333E-01
    -23.625  0.0000E+00  0.3333E-01
    -23.460  0.0000E+00  0.3333E-01
    -23.296  0.0000E+00  0.3333E-01
    -23.132  0.0000E+00  0.3333E-01
    -22.968  0.0000E+00  0.3333E-01
    -22.803  0.0000E+00  0.3333E-01
    -22.639  0.0000E+00  0.3333E-01
    -22.475  0.0000E+00  0.3333E-01
    -22.311  0.0000E+00  0.3333E-01
    -22.147  0.0000E+00  0.3333E-01
    -21.982  0.0000E+00  0.3333E-01
    -21.818  0.0000E+00  0.3333E-01
    -21.654  0.0000E+00  0.3333E-01
    -21.490  0.0000E+00  0.3333E-01
    -21.326  0.0000E+00  0.3333E-01
    -21.161  0.0000E+00  0.3333E-01
    -20.997  0.0000E+00  0.3333E-01
    -20.833  0.0000E+00  0.3333E-01
    -20.669  0.0000E+00  0.3333E-01
    -20.505  0.0000E+00  0.3333E-01
    -20.340  0.0000E+00  0.3333E-01
    -20.176  0.0000E+00  0.3333E-01
    -20.012  0.0000E+00  0.3333E-01
    -19.848  0.0000E+00  0.3333E-01
    -19.683  0.0000E+00  0.3333E-01
    -19.519  0.0000E+00  0.3333E-01
    -19.355  0.0000E+00  0.3333E-01
    -19.191  0.0000E+00  0.3333E-01
    -19.027  0.0000E+00  0.3333E-01
    -18.862  0.0000E+00  0.3333E-01
    -18.698  0.0000E+00  0.3333E-01
    -18.534  0.0000E+00  0.3333E-01
    -18.370  0.0000E+00  0.3333E-01
    -18.206  0.0000E+00  0.3333E-01
    -18.041  0.0000E+00  0.3333E-01
    -17.877  0.0000E+00  0.3333E-01
    -17.713  0.0000E+00  0.3333E-01
    -17.549  0.0000E+00  0.3333E-01
    -17.384  0.0000E+00  0.3333E-01
    -17.220  0.0000E+00  0.3333E-01
    -17.056  0.0000E+00  0.3333E-01
    -16.892  0.0000E+00  0.3333E-01
    -16.728  0.0000E+00  0.3333E-01
    -16.563  0.0000E+00  0.3333E-01
    -16.399  0.0000E+00  0.3333E-01
    -16.235  0.0000E+00  0.3333E-01
    -16.071  0.0000E+00  0.3333E-01
    -15.907  0.0000E+00  0.3333E-01
    -15.742  0.0000E+00  0.3333E-01
    -15.578  0.0000E+00  0.3333E-01
    -15.414  0.0000E+00  0.3333E-01
    -15.250  0.0000E+00  0.3333E-01
    -15.085  0.0000E+00  0.3333E-01
    -14.921  0.0000E+00  0.3333E-01
    -14.757  0.0000E+00  0.3333E-01
    -14.593  0.0000E+00  0.3333E-01
    -14.429  0.0000E+00  0.3333E-01
    -14.264  0.0000E+00  0.3333E-01
    -14.100  0.0000E+00  0.3333E-01
    -13.936  0.0000E+00  0.3333E-01
    -13.772  0.0000E+00  0.3333E-01
    -13.608  0.0000E+00  0.3333E-01
    -13.443  0.0000E+00  0.3333E-01
    -13.279  0.0000E+00  0.3333E-01
    -13.115  0.0000E+00  0.3333E-01
    -12.951  0.0000E+00  0.3333E-01
    -12.787  0.9636E+00  0.1916E+00
    -12.622  0.0000E+00  0.2000E+00
    -12.458  0.0000E+00  0.2000E+00
    -12.294  0.0000E+00  0.2000E+00
    -12.130  0.0000E+00  0.2000E+00
    -11.965  0.0000E+00  0.2000E+00
    -11.801  0.0000E+00  0.2000E+00
    -11.637  0.0000E+00  0.2000E+00
    -11.473  0.0000E+00  0.2000E+00
    -11.309  0.0000E+00  0.2000E+00
    -11.144  0.0000E+00  0.2000E+00
    -10.980  0.0000E+00  0.2000E+00
    -10.816  0.0000E+00  0.2000E+00
    -10.652  0.0000E+00  0.2000E+00
    -10.488  0.0000E+00  0.2000E+00
    -10.323  0.0000E+00  0.2000E+00
    -10.159  0.0000E+00  0.2000E+00
     -9.995  0.0000E+00  0.2000E+00
     -9.831  0.0000E+00  0.2000E+00
     -9.666  0.0000E+00  0.2000E+00
     -9.502  0.2669E-01  0.2044E+00
     -9.338  0.1465E+00  0.2543E+00
     -9.174  0.0000E+00  0.3000E+00
     -9.010  0.0000E+00  0.3000E+00
     -8.845  0.0000E+00  0.3000E+00
     -8.681  0.0000E+00  0.3000E+00
     -8.517  0.0000E+00  0.3000E+00
     -8.353  0.0000E+00  0.3000E+00
     -8.189  0.0000E+00  0.3000E+00
     -8.024  0.0000E+00  0.3000E+00
     -7.860  0.0000E+00  0.3000E+00
     -7.696  0.0000E+00  0.3000E+00
     -7.532  0.0000E+00  0.3000E+00
     -7.368  0.0000E+00  0.3000E+00
     -7.203  0.0000E+00  0.3000E+00
     -7.039  0.0000E+00  0.3000E+00
     -6.875  0.0000E+00  0.3000E+00
     -6.711  0.0000E+00  0.3000E+00
     -6.546  0.0000E+00  0.3000E+00
     -6.382  0.0000E+00  0.3000E+00
     -6.218  0.0000E+00  0.3000E+00
     -6.054  0.0000E+00  0.3000E+00
     -5.890  0.0000E+00  0.3000E+00
     -5.725  0.0000E+00  0.3000E+00
     -5.561  0.0000E+00  0.3000E+00
     -5.397  0.0000E+00  0.3000E+00
     -5.233  0.0000E+00  0.3000E+00
     -5.069  0.0000E+00  0.3000E+00
     -4.904  0.0000E+00  0.3000E+00
     -4.740  0.0000E+00  0.3000E+00
     -4.576  0.0000E+00  0.3000E+00
     -4.412  0.0000E+00  0.3000E+00
     -4.247  0.0000E+00  0.3000E+00
     -4.083  0.0000E+00  0.3000E+00
     -3.919  0.0000E+00  0.3000E+00
     -3.755  0.0000E+00  0.3000E+00
     -3.591  0.0000E+00  0.3000E+00
     -3.426  0.0000E+00  0.3000E+00
     -3.262  0.0000E+00  0.3000E+00
     -3.098  0.0000E+00  0.3000E+00
     -2.934  0.0000E+00  0.3000E+00
     -2.770  0.0000E+00  0.3000E+00
     -2.605  0.0000E+00  0.3000E+00
     -2.441  0.6703E-04  0.3000E+00
     -2.277  0.6937E-03  0.3003E+00
     -2.113  0.1259E-02  0.3010E+00
     -1.948  0.3456E-02  0.3023E+00
     -1.784  0.9037E-02  0.3040E+00
     -1.620  0.1863E-01  0.3081E+00
     -1.456  0.4803E-01  0.3211E+00
     -1.292  0.1532E-01  0.3316E+00
     -1.127  0.0000E+00  0.3333E+00
     -0.963  0.0000E+00  0.3333E+00
     -0.799  0.0000E+00  0.3333E+00
     -0.635  0.0000E+00  0.3333E+00
     -0.471  0.0000E+00  0.3333E+00
     -0.306  0.0000E+00  0.3333E+00
     -0.142  0.0000E+00  0.3333E+00
      0.022  0.0000E+00  0.3333E+00
      0.186  0.0000E+00  0.3333E+00
      0.350  0.0000E+00  0.3333E+00
      0.515  0.0000E+00  0.3333E+00
      0.679  0.0000E+00  0.3333E+00
      0.843  0.0000E+00  0.3333E+00
      1.007  0.0000E+00  0.3333E+00
      1.172  0.0000E+00  0.3333E+00
      1.336  0.0000E+00  0.3333E+00
      1.500  0.0000E+00  0.3333E+00
      1.664  0.0000E+00  0.3333E+00
      1.828  0.0000E+00  0.3333E+00
      1.993  0.0000E+00  0.3333E+00
      2.157  0.0000E+00  0.3333E+00
      2.321  0.0000E+00  0.3333E+00
      2.485  0.0000E+00  0.3333E+00
      2.649  0.0000E+00  0.3333E+00
      2.814  0.0000E+00  0.3333E+00
      2.978  0.0000E+00  0.3333E+00
      3.142  0.0000E+00  0.3333E+00
      3.306  0.0000E+00  0.3333E+00
      3.471  0.0000E+00  0.3333E+00
      3.635  0.0000E+00  0.3333E+00
      3.799  0.4232E-03  0.3334E+00
      3.963  0.3846E-02  0.3348E+00
      4.127  0.3039E-01  0.3445E+00
      4.292  0.1709E-01  0.3517E+00
      4.456  0.2220E-01  0.3559E+00
      4.620  0.4116E-02  0.3586E+00
      4.784  0.2490E-01  0.3650E+00
      4.948  0.5024E-01  0.3858E+00
      5.113  0.4292E-01  0.4008E+00
      5.277  0.4519E-01  0.4165E+00
      5.441  0.3010E-01  0.4306E+00
      5.605  0.1213E-02  0.4337E+00
      5.769  0.1365E-01  0.4368E+00
      5.934  0.8531E-01  0.4707E+00
      6.098  0.7881E-01  0.4942E+00
      6.262  0.1186E-01  0.5045E+00
      6.426  0.2001E-01  0.5120E+00
      6.591  0.2049E-01  0.5206E+00
      6.755  0.1330E-01  0.5255E+00
      6.919  0.8960E-02  0.5290E+00
      7.083  0.8961E-02  0.5325E+00
      7.247  0.5380E-02  0.5350E+00
      7.412  0.1084E-01  0.5405E+00
      7.576  0.8414E-02  0.5435E+00
      7.740  0.1757E-01  0.5495E+00
      7.904  0.1229E-01  0.5528E+00
      8.068  0.2689E-01  0.5583E+00
      8.233  0.2780E-02  0.5604E+00
      8.397  0.6412E-01  0.5739E+00
      8.561  0.4848E-01  0.5955E+00
      8.725  0.1463E-02  0.5990E+00
      8.890  0.2588E-02  0.6000E+00
      9.054  0.0000E+00  0.6000E+00
      9.218  0.7392E-03  0.6001E+00
      9.382  0.2440E-02  0.6009E+00
      9.546  0.2739E-01  0.6082E+00
      9.711  0.3752E-01  0.6193E+00
      9.875  0.3562E-01  0.6314E+00
     10.039  0.1445E-01  0.6356E+00
     10.203  0.1052E+00  0.6869E+00
     10.367  0.1557E+00  0.7269E+00
     10.532  0.1376E+00  0.7800E+00
     10.696  0.1586E-01  0.7998E+00
     10.860  0.0000E+00  0.8000E+00
     11.024  0.0000E+00  0.8000E+00
     11.189  0.0000E+00  0.8000E+00
     11.353  0.0000E+00  0.8000E+00
     11.517  0.0000E+00  0.8000E+00
     11.681  0.0000E+00  0.8000E+00
     11.845  0.0000E+00  0.8000E+00
     12.010  0.0000E+00  0.8000E+00
     12.174  0.0000E+00  0.8000E+00
     12.338  0.0000E+00  0.8000E+00
     12.502  0.0000E+00  0.8000E+00
     12.666  0.0000E+00  0.8000E+00
     12.831  0.0000E+00  0.8000E+00
     12.995  0.0000E+00  0.8000E+00
