    3    3   60    1
  0.2623690E+02  0.4810419E-09  0.4810419E-09  0.4810419E-09  0.1000000E-15
  1.000000000000000E-004
  CAR
 unknown system
     39     84     24

  0.0000000E+00  0.0000000E+00  0.0000000E+00  0.4551661E-03
    1      -34.029640   1.000000
    2      -12.827418   1.000000
    3      -12.827418   1.000000
    4      -12.798749   1.000000
    5      -12.798749   1.000000
    6      -12.798749   1.000000
    7       -9.321803   1.000000
    8       -9.321803   1.000000
    9       -9.321803   1.000000
   10       -2.445371   1.000000
   11        5.462764   1.000000
   12        5.462764   1.000000
   13        5.462764   1.000000
   14        5.712911   1.000000
   15        5.712911   1.000000
   16        8.486032   1.000000
   17        8.909950   1.000000
   18        8.909950   1.000000
   19        8.909950   1.000000
   20       10.046430   1.000000
   21       10.046430   1.000000
   22       10.046430   1.000000
   23       10.223064   0.000000
   24       10.332337   0.000000

  0.7692308E-01  0.2442159E-17 -0.2095133E-17  0.3641329E-02
    1      -34.029372   1.000000
    2      -12.829075   1.000000
    3      -12.829075   1.000000
    4      -12.799047   1.000000
    5      -12.798550   1.000000
    6      -12.798549   1.000000
    7       -9.336666   1.000000
    8       -9.318247   1.000000
    9       -9.318247   1.000000
   10       -2.376759   1.000000
   11        5.336730   1.000000
   12        5.340912   1.000000
   13        5.340912   1.000000
   14        5.827240   1.000000
   15        5.827240   1.000000
   16        8.064269   1.000000
   17        8.850632   1.000000
   18        8.850632   1.000000
   19        9.172490   1.000000
   20       10.025535   1.000000
   21       10.038088   1.000000
   22       10.038088   1.000000
   23       10.333483   0.000000
   24       10.355527   0.000000

  0.1538462E+00  0.5420417E-17 -0.4726365E-17  0.3641329E-02
    1      -34.028629   1.000000
    2      -12.833670   1.000000
    3      -12.833670   1.000000
    4      -12.799942   1.000000
    5      -12.797963   1.000000
    6      -12.797963   1.000000
    7       -9.376368   1.000000
    8       -9.308422   1.000000
    9       -9.308422   1.000000
   10       -2.185294   1.000000
   11        5.015132   1.000000
   12        5.171559   1.000000
   13        5.171560   1.000000
   14        5.963807   1.000000
   15        5.963807   1.000000
   16        7.467435   1.000000
   17        8.722885   1.000000
   18        8.722885   1.000000
   19        9.254593   1.000000
   20       10.035803   1.000000
   21       10.035803   1.000000
   22       10.241960   0.000000
   23       10.336683   0.000000
   24       10.542470   0.000000

  0.2307692E+00 -0.3229385E-17  0.4270463E-17  0.3641329E-02
    1      -34.027581   1.000000
    2      -12.840127   1.000000
    3      -12.840127   1.000000
    4      -12.801423   1.000000
    5      -12.797058   1.000000
    6      -12.797058   1.000000
    7       -9.428871   1.000000
    8       -9.294648   1.000000
    9       -9.294648   1.000000
   10       -1.911495   1.000000
   11        4.613352   1.000000
   12        5.043335   1.000000
   13        5.043336   1.000000
   14        6.015188   1.000000
   15        6.015188   1.000000
   16        6.917601   1.000000
   17        8.612451   1.000000
   18        8.612451   1.000000
   19        9.247450   1.000000
   20       10.051110   1.000000
   21       10.051110   1.000000
   22       10.341201   0.000000
   23       10.388688   0.000000
   24       10.619428   0.000000

  0.3076923E+00  0.1084083E-16 -0.9452730E-17  0.3641329E-02
    1      -34.026471   1.000000
    2      -12.846958   1.000000
    3      -12.846958   1.000000
    4      -12.803300   1.000000
    5      -12.796071   1.000000
    6      -12.796071   1.000000
    7       -9.480501   1.000000
    8       -9.280127   1.000000
    9       -9.280127   1.000000
   10       -1.615035   1.000000
   11        4.234374   1.000000
   12        4.972481   1.000000
   13        4.972481   1.000000
   14        5.967348   1.000000
   15        5.967348   1.000000
   16        6.481644   1.000000
   17        8.562369   1.000000
   18        8.562369   1.000000
   19        9.283435   1.000000
   20       10.082675   0.860365
   21       10.082675   0.860361
   22       10.346013   0.000000
   23       10.459654   0.000000
   24       10.590232   0.000000

  0.3846154E+00 -0.9610222E-17  0.1134535E-16  0.3641329E-02
    1      -34.025551   1.000000
    2      -12.852592   1.000000
    3      -12.852592   1.000000
    4      -12.805066   1.000000
    5      -12.795222   1.000000
    6      -12.795222   1.000000
    7       -9.520316   1.000000
    8       -9.268163   1.000000
    9       -9.268163   1.000000
   10       -1.364137   1.000000
   11        3.948907   1.000000
   12        4.953605   1.000000
   13        4.953605   1.000000
   14        5.863895   1.000000
   15        5.863895   1.000000
   16        6.187082   1.000000
   17        8.559984   1.000000
   18        8.559984   1.000000
   19        9.357576   1.000000
   20       10.126710   0.000000
   21       10.126710   0.000000
   22       10.350004   0.000000
   23       10.509862   0.000000
   24       10.513259   0.000000

  0.4615385E+00 -0.1357086E-16  0.1565301E-16  0.3641329E-02
    1      -34.025028   1.000000
    2      -12.855747   1.000000
    3      -12.855746   1.000000
    4      -12.806159   1.000000
    5      -12.794723   1.000000
    6      -12.794723   1.000000
    7       -9.541670   1.000000
    8       -9.261436   1.000000
    9       -9.261436   1.000000
   10       -1.220248   1.000000
   11        3.797647   1.000000
   12        4.960842   1.000000
   13        4.960842   1.000000
   14        5.780215   1.000000
   15        5.780215   1.000000
   16        6.040152   1.000000
   17        8.570467   1.000000
   18        8.570467   1.000000
   19        9.421989   1.000000
   20       10.167676   0.000000
   21       10.167676   0.000000
   22       10.352339   0.000000
   23       10.441788   0.000000
   24       10.441819   0.000000

  0.7692308E-01  0.7692308E-01  0.1540246E-17  0.2730997E-02
    1      -34.029283   1.000000
    2      -12.831922   1.000000
    3      -12.827019   1.000000
    4      -12.799250   1.000000
    5      -12.798431   1.000000
    6      -12.798431   1.000000
    7       -9.329514   1.000000
    8       -9.323280   1.000000
    9       -9.323280   1.000000
   10       -2.355431   1.000000
   11        5.076588   1.000000
   12        5.476419   1.000000
   13        5.476419   1.000000
   14        5.727028   1.000000
   15        5.874719   1.000000
   16        8.044825   1.000000
   17        8.754564   1.000000
   18        8.754564   1.000000
   19        9.334063   1.000000
   20        9.942577   1.000000
   21       10.059188   0.999995
   22       10.059188   0.999995
   23       10.343336   0.000000
   24       10.384440   0.000000

  0.1538462E+00  0.7692308E-01 -0.1937180E-17  0.1092399E-01
    1      -34.028703   1.000000
    2      -12.836991   1.000000
    3      -12.828346   1.000000
    4      -12.799958   1.000000
    5      -12.798015   1.000000
    6      -12.797900   1.000000
    7       -9.359846   1.000000
    8       -9.321071   1.000000
    9       -9.312022   1.000000
   10       -2.209674   1.000000
   11        4.793911   1.000000
   12        5.360487   1.000000
   13        5.385338   1.000000
   14        5.826112   1.000000
   15        5.977551   1.000000
   16        7.643601   1.000000
   17        8.614067   1.000000
   18        8.615974   1.000000
   19        9.435154   1.000000
   20       10.000210   1.000000
   21       10.061199   0.999981
   22       10.159494   0.000000
   23       10.349204   0.000000
   24       10.510113   0.000000

  0.2307692E+00  0.7692308E-01 -0.1955780E-17  0.1092399E-01
    1      -34.027761   1.000000
    2      -12.843093   1.000000
    3      -12.832797   1.000000
    4      -12.801094   1.000000
    5      -12.797399   1.000000
    6      -12.796986   1.000000
    7       -9.408473   1.000000
    8       -9.312169   1.000000
    9       -9.296761   1.000000
   10       -1.971612   1.000000
   11        4.511494   1.000000
   12        5.135472   1.000000
   13        5.258291   1.000000
   14        5.905323   1.000000
   15        6.067286   1.000000
   16        7.134334   1.000000
   17        8.472098   1.000000
   18        8.514459   1.000000
   19        9.411898   1.000000
   20       10.032385   1.000000
   21       10.064975   0.999832
   22       10.343620   0.000000
   23       10.352174   0.000000
   24       10.588552   0.000000

  0.3076923E+00  0.7692308E-01 -0.1801184E-17  0.1092399E-01
    1      -34.026673   1.000000
    2      -12.848857   1.000000
    3      -12.839275   1.000000
    4      -12.802636   1.000000
    5      -12.796643   1.000000
    6      -12.795945   1.000000
    7       -9.460312   1.000000
    8       -9.298681   1.000000
    9       -9.282798   1.000000
   10       -1.694466   1.000000
   11        4.240598   1.000000
   12        4.961092   1.000000
   13        5.163738   1.000000
   14        5.889139   1.000000
   15        6.072850   1.000000
   16        6.667503   1.000000
   17        8.393040   1.000000
   18        8.483431   1.000000
   19        9.398286   1.000000
   20       10.073109   0.992549
   21       10.081941   0.882129
   22       10.354672   0.000000
   23       10.420859   0.000000
   24       10.583357   0.000000

  0.3846154E+00  0.7692308E-01 -0.8758678E-17  0.1092399E-01
    1      -34.025695   1.000000
    2      -12.852996   1.000000
    3      -12.846234   1.000000
    4      -12.804278   1.000000
    5      -12.795865   1.000000
    6      -12.795056   1.000000
    7       -9.503643   1.000000
    8       -9.283729   1.000000
    9       -9.273238   1.000000
   10       -1.441779   1.000000
   11        4.016826   1.000000
   12        4.887682   1.000000
   13        5.096871   1.000000
   14        5.818476   1.000000
   15        5.997047   1.000000
   16        6.313200   1.000000
   17        8.377128   1.000000
   18        8.500450   1.000000
   19        9.427583   1.000000
   20       10.115383   0.000197
   21       10.121768   0.000004
   22       10.355273   0.000000
   23       10.453563   0.000000
   24       10.540579   0.000000

  0.4615385E+00  0.7692308E-01 -0.2979490E-18  0.1092399E-01
    1      -34.025044   1.000000
    2      -12.854612   1.000000
    3      -12.852053   1.000000
    4      -12.805490   1.000000
    5      -12.795266   1.000000
    6      -12.794554   1.000000
    7       -9.530643   1.000000
    8       -9.270684   1.000000
    9       -9.270111   1.000000
   10       -1.272620   1.000000
   11        3.878327   1.000000
   12        4.903861   1.000000
   13        5.028141   1.000000
   14        5.777709   1.000000
   15        5.886865   1.000000
   16        6.101818   1.000000
   17        8.388474   1.000000
   18        8.524289   1.000000
   19        9.478600   1.000000
   20       10.160629   0.000000
   21       10.163779   0.000000
   22       10.350541   0.000000
   23       10.432973   0.000000
   24       10.493156   0.000000

 -0.4615385E+00  0.7692308E-01 -0.8001469E-17  0.1092399E-01
    1      -34.024869   1.000000
    2      -12.855456   1.000000
    3      -12.853317   1.000000
    4      -12.805821   1.000000
    5      -12.795000   1.000000
    6      -12.794539   1.000000
    7       -9.537449   1.000000
    8       -9.273998   1.000000
    9       -9.262471   1.000000
   10       -1.226263   1.000000
   11        3.842344   1.000000
   12        4.941050   1.000000
   13        4.975645   1.000000
   14        5.798973   1.000000
   15        5.822057   1.000000
   16        6.049869   1.000000
   17        8.387345   1.000000
   18        8.533118   1.000000
   19        9.500097   1.000000
   20       10.167094   0.000000
   21       10.191481   0.000000
   22       10.340979   0.000000
   23       10.438867   0.000000
   24       10.447806   0.000000

 -0.3846154E+00  0.7692308E-01  0.4592599E-18  0.1092399E-01
    1      -34.025215   1.000000
    2      -12.855712   1.000000
    3      -12.849423   1.000000
    4      -12.805078   1.000000
    5      -12.795173   1.000000
    6      -12.795019   1.000000
    7       -9.523299   1.000000
    8       -9.283912   1.000000
    9       -9.260941   1.000000
   10       -1.313600   1.000000
   11        3.915201   1.000000
   12        4.862401   1.000000
   13        5.064159   1.000000
   14        5.780189   1.000000
   15        5.933522   1.000000
   16        6.158267   1.000000
   17        8.352046   1.000000
   18        8.533182   1.000000
   19        9.468691   1.000000
   20       10.131892   0.000000
   21       10.167371   0.000000
   22       10.346874   0.000000
   23       10.466866   0.000000
   24       10.484456   0.000000

 -0.3076923E+00  0.7692308E-01 -0.1065130E-16  0.1092399E-01
    1      -34.025997   1.000000
    2      -12.852776   1.000000
    3      -12.843724   1.000000
    4      -12.803621   1.000000
    5      -12.795847   1.000000
    6      -12.795735   1.000000
    7       -9.490180   1.000000
    8       -9.297511   1.000000
    9       -9.266461   1.000000
   10       -1.514938   1.000000
   11        4.099809   1.000000
   12        4.829290   1.000000
   13        5.154002   1.000000
   14        5.828366   1.000000
   15        6.053725   1.000000
   16        6.417311   1.000000
   17        8.292181   1.000000
   18        8.551175   1.000000
   19        9.420377   1.000000
   20       10.093872   0.307990
   21       10.115563   0.000179
   22       10.351673   0.000000
   23       10.463850   0.000000
   24       10.531493   0.000000

 -0.2307692E+00  0.7692308E-01 -0.1049671E-16  0.1092399E-01
    1      -34.027042   1.000000
    2      -12.847316   1.000000
    3      -12.837508   1.000000
    4      -12.801935   1.000000
    5      -12.796813   1.000000
    6      -12.796567   1.000000
    7       -9.443492   1.000000
    8       -9.311547   1.000000
    9       -9.277843   1.000000
   10       -1.783092   1.000000
   11        4.382844   1.000000
   12        4.863307   1.000000
   13        5.263299   1.000000
   14        5.875533   1.000000
   15        6.120663   1.000000
   16        6.811109   1.000000
   17        8.255404   1.000000
   18        8.616848   1.000000
   19        9.398209   1.000000
   20       10.066689   0.999585
   21       10.068176   0.999133
   22       10.350004   0.000000
   23       10.409543   0.000000
   24       10.590682   0.000000

 -0.1538462E+00  0.7692308E-01 -0.3576411E-17  0.1092399E-01
    1      -34.028105   1.000000
    2      -12.840534   1.000000
    3      -12.832202   1.000000
    4      -12.800501   1.000000
    5      -12.797686   1.000000
    6      -12.797435   1.000000
    7       -9.392952   1.000000
    8       -9.322291   1.000000
    9       -9.292524   1.000000
   10       -2.055102   1.000000
   11        4.722673   1.000000
   12        4.969591   1.000000
   13        5.401715   1.000000
   14        5.850620   1.000000
   15        6.096064   1.000000
   16        7.293654   1.000000
   17        8.319153   1.000000
   18        8.730375   1.000000
   19        9.407763   1.000000
   20       10.030756   1.000000
   21       10.053866   1.000000
   22       10.315011   0.000000
   23       10.345735   0.000000
   24       10.584074   0.000000

 -0.7692308E-01  0.7692308E-01  0.4884318E-17  0.5461994E-02
    1      -34.028948   1.000000
    2      -12.833972   1.000000
    3      -12.829161   1.000000
    4      -12.799555   1.000000
    5      -12.798293   1.000000
    6      -12.798160   1.000000
    7       -9.353125   1.000000
    8       -9.325068   1.000000
    9       -9.307125   1.000000
   10       -2.268810   1.000000
   11        5.059055   1.000000
   12        5.138477   1.000000
   13        5.488387   1.000000
   14        5.786872   1.000000
   15        5.984706   1.000000
   16        7.753637   1.000000
   17        8.555871   1.000000
   18        8.835916   1.000000
   19        9.366182   1.000000
   20       10.018414   1.000000
   21       10.033449   1.000000
   22       10.135744   0.000000
   23       10.339789   0.000000
   24       10.470714   0.000000

  0.1538462E+00  0.1538462E+00  0.3080493E-17  0.2730997E-02
    1      -34.028308   1.000000
    2      -12.841302   1.000000
    3      -12.825905   1.000000
    4      -12.800714   1.000000
    5      -12.797474   1.000000
    6      -12.797474   1.000000
    7       -9.352218   1.000000
    8       -9.327525   1.000000
    9       -9.327525   1.000000
   10       -2.123561   1.000000
   11        4.495660   1.000000
   12        5.502572   1.000000
   13        5.502572   1.000000
   14        5.766696   1.000000
   15        5.920707   1.000000
   16        7.609745   1.000000
   17        8.479444   1.000000
   18        8.479444   1.000000
   19        9.480697   1.000000
   20       10.076280   0.976500
   21       10.076281   0.976497
   22       10.099510   0.096981
   23       10.376369   0.000000
   24       10.570123   0.000000

  0.2307692E+00  0.1538462E+00  0.2407771E-17  0.1092399E-01
    1      -34.027535   1.000000
    2      -12.845586   1.000000
    3      -12.827040   1.000000
    4      -12.801719   1.000000
    5      -12.796854   1.000000
    6      -12.796626   1.000000
    7       -9.388350   1.000000
    8       -9.326329   1.000000
    9       -9.316572   1.000000
   10       -1.949548   1.000000
   11        4.254252   1.000000
   12        5.375487   1.000000
   13        5.444202   1.000000
   14        5.825875   1.000000
   15        5.971920   1.000000
   16        7.332941   1.000000
   17        8.305890   1.000000
   18        8.387806   1.000000
   19        9.504798   1.000000
   20       10.046122   1.000000
   21       10.083084   0.847094
   22       10.271670   0.000000
   23       10.389425   0.000000
   24       10.607361   0.000000

  0.3076923E+00  0.1538462E+00 -0.1261728E-17  0.1092399E-01
    1      -34.026565   1.000000
    2      -12.848905   1.000000
    3      -12.831480   1.000000
    4      -12.802770   1.000000
    5      -12.796424   1.000000
    6      -12.795554   1.000000
    7       -9.436449   1.000000
    8       -9.317831   1.000000
    9       -9.303146   1.000000
   10       -1.731140   1.000000
   11        4.097381   1.000000
   12        5.148226   1.000000
   13        5.351099   1.000000
   14        5.842014   1.000000
   15        6.043005   1.000000
   16        6.944205   1.000000
   17        8.134228   1.000000
   18        8.371324   1.000000
   19        9.536965   1.000000
   20       10.064526   0.999868
   21       10.094980   0.255192
   22       10.355772   0.000000
   23       10.390700   0.000000
   24       10.604202   0.000000

  0.3846154E+00  0.1538462E+00  0.5658567E-17  0.1092399E-01
    1      -34.025617   1.000000
    2      -12.850484   1.000000
    3      -12.838065   1.000000
    4      -12.803779   1.000000
    5      -12.796145   1.000000
    6      -12.794608   1.000000
    7       -9.479307   1.000000
    8       -9.304017   1.000000
    9       -9.295905   1.000000
   10       -1.520772   1.000000
   11        4.029889   1.000000
   12        4.972402   1.000000
   13        5.251352   1.000000
   14        5.813623   1.000000
   15        6.046859   1.000000
   16        6.560182   1.000000
   17        8.048373   1.000000
   18        8.401925   1.000000
   19        9.552833   1.000000
   20       10.111514   0.001366
   21       10.120729   0.000009
   22       10.385287   0.000000
   23       10.387446   0.000000
   24       10.573667   0.000000

  0.4615385E+00  0.1538462E+00 -0.3911559E-17  0.1092399E-01
    1      -34.024909   1.000000
    2      -12.850064   1.000000
    3      -12.845184   1.000000
    4      -12.804503   1.000000
    5      -12.795992   1.000000
    6      -12.794052   1.000000
    7       -9.508300   1.000000
    8       -9.296548   1.000000
    9       -9.288051   1.000000
   10       -1.364277   1.000000
   11        4.023995   1.000000
   12        4.899813   1.000000
   13        5.122941   1.000000
   14        5.817300   1.000000
   15        5.983090   1.000000
   16        6.277107   1.000000
   17        8.021325   1.000000
   18        8.431738   1.000000
   19        9.582465   1.000000
   20       10.151458   0.000000
   21       10.162966   0.000000
   22       10.370722   0.000000
   23       10.403599   0.000000
   24       10.550845   0.000000

 -0.4615385E+00  0.1538462E+00  0.1198743E-16  0.1092399E-01
    1      -34.024602   1.000000
    2      -12.851261   1.000000
    3      -12.847800   1.000000
    4      -12.804665   1.000000
    5      -12.795941   1.000000
    6      -12.794025   1.000000
    7       -9.519149   1.000000
    8       -9.304478   1.000000
    9       -9.273529   1.000000
   10       -1.290507   1.000000
   11        4.028047   1.000000
   12        4.938291   1.000000
   13        4.972837   1.000000
   14        5.886238   1.000000
   15        5.889950   1.000000
   16        6.162487   1.000000
   17        8.000915   1.000000
   18        8.439152   1.000000
   19        9.612368   1.000000
   20       10.153902   0.000000
   21       10.213170   0.000000
   22       10.340415   0.000000
   23       10.432598   0.000000
   24       10.495640   0.000000

 -0.3846154E+00  0.1538462E+00 -0.7307417E-17  0.1092399E-01
    1      -34.024769   1.000000
    2      -12.854946   1.000000
    3      -12.844181   1.000000
    4      -12.804102   1.000000
    5      -12.796015   1.000000
    6      -12.794487   1.000000
    7       -9.511128   1.000000
    8       -9.317198   1.000000
    9       -9.263723   1.000000
   10       -1.312320   1.000000
   11        4.022812   1.000000
   12        4.839870   1.000000
   13        5.059668   1.000000
   14        5.809913   1.000000
   15        6.008919   1.000000
   16        6.235099   1.000000
   17        7.944861   1.000000
   18        8.437163   1.000000
   19        9.612103   1.000000
   20       10.124313   0.000001
   21       10.227325   0.000000
   22       10.324693   0.000000
   23       10.465067   0.000000
   24       10.473653   0.000000

 -0.3076923E+00  0.1538462E+00  0.5184532E-17  0.1092399E-01
    1      -34.025367   1.000000
    2      -12.855485   1.000000
    3      -12.839908   1.000000
    4      -12.803072   1.000000
    5      -12.796226   1.000000
    6      -12.795290   1.000000
    7       -9.486527   1.000000
    8       -9.330705   1.000000
    9       -9.260867   1.000000
   10       -1.429673   1.000000
   11        4.053328   1.000000
   12        4.758960   1.000000
   13        5.220842   1.000000
   14        5.778794   1.000000
   15        6.127074   1.000000
   16        6.469698   1.000000
   17        7.848268   1.000000
   18        8.458101   1.000000
   19        9.584975   1.000000
   20       10.094476   0.278621
   21       10.176702   0.000000
   22       10.350036   0.000000
   23       10.454655   0.000000
   24       10.492742   0.000000

 -0.2307692E+00  0.1538462E+00 -0.1411032E-16  0.1092399E-01
    1      -34.026262   1.000000
    2      -12.852782   1.000000
    3      -12.835880   1.000000
    4      -12.802023   1.000000
    5      -12.796541   1.000000
    6      -12.796234   1.000000
    7       -9.451317   1.000000
    8       -9.339753   1.000000
    9       -9.265661   1.000000
   10       -1.623454   1.000000
   11        4.177694   1.000000
   12        4.750735   1.000000
   13        5.385487   1.000000
   14        5.771732   1.000000
   15        6.194730   1.000000
   16        6.808879   1.000000
   17        7.772199   1.000000
   18        8.529463   1.000000
   19        9.553437   1.000000
   20       10.076790   0.972199
   21       10.116100   0.000134
   22       10.360991   0.000000
   23       10.422262   0.000000
   24       10.542700   0.000000

 -0.1538462E+00  0.1538462E+00  0.1084083E-16  0.5461994E-02
    1      -34.027251   1.000000
    2      -12.847406   1.000000
    3      -12.833037   1.000000
    4      -12.801171   1.000000
    5      -12.797089   1.000000
    6      -12.796924   1.000000
    7       -9.416534   1.000000
    8       -9.337712   1.000000
    9       -9.277079   1.000000
   10       -1.850731   1.000000
   11        4.412083   1.000000
   12        4.822676   1.000000
   13        5.498908   1.000000
   14        5.763556   1.000000
   15        6.182635   1.000000
   16        7.119086   1.000000
   17        7.891223   1.000000
   18        8.641341   1.000000
   19        9.514370   1.000000
   20       10.062622   0.999955
   21       10.066447   0.999634
   22       10.357106   0.000000
   23       10.377653   0.000000
   24       10.585440   0.000000

  0.2307692E+00  0.2307692E+00  0.4620739E-17  0.2730997E-02
    1      -34.026961   1.000000
    2      -12.846987   1.000000
    3      -12.824325   1.000000
    4      -12.802867   1.000000
    5      -12.795916   1.000000
    6      -12.795916   1.000000
    7       -9.387889   1.000000
    8       -9.333887   1.000000
    9       -9.333887   1.000000
   10       -1.856595   1.000000
   11        4.066917   1.000000
   12        5.506788   1.000000
   13        5.506788   1.000000
   14        5.818605   1.000000
   15        5.824042   1.000000
   16        7.299163   1.000000
   17        8.305255   1.000000
   18        8.305255   1.000000
   19        9.459619   1.000000
   20       10.095263   0.242520
   21       10.095263   0.242513
   22       10.233701   0.000000
   23       10.430877   0.000000
   24       10.678508   0.000000

  0.3076923E+00  0.2307692E+00  0.4891907E-18  0.1092399E-01
    1      -34.026164   1.000000
    2      -12.846922   1.000000
    3      -12.825418   1.000000
    4      -12.803905   1.000000
    5      -12.795234   1.000000
    6      -12.794918   1.000000
    7       -9.421302   1.000000
    8       -9.333138   1.000000
    9       -9.329123   1.000000
   10       -1.722827   1.000000
   11        3.997677   1.000000
   12        5.348227   1.000000
   13        5.459721   1.000000
   14        5.850165   1.000000
   15        5.861576   1.000000
   16        7.093278   1.000000
   17        8.149108   1.000000
   18        8.298425   1.000000
   19        9.547795   1.000000
   20       10.081410   0.896309
   21       10.107832   0.006648
   22       10.281105   0.000000
   23       10.449749   0.000000
   24       10.664023   0.000000

  0.3846154E+00  0.2307692E+00 -0.5676756E-18  0.1092399E-01
    1      -34.025334   1.000000
    2      -12.845449   1.000000
    3      -12.829953   1.000000
    4      -12.804556   1.000000
    5      -12.795113   1.000000
    6      -12.793932   1.000000
    7       -9.458490   1.000000
    8       -9.325073   1.000000
    9       -9.324331   1.000000
   10       -1.584212   1.000000
   11        4.053056   1.000000
   12        5.126040   1.000000
   13        5.362918   1.000000
   14        5.855078   1.000000
   15        5.948857   1.000000
   16        6.803432   1.000000
   17        7.915394   1.000000
   18        8.336391   1.000000
   19        9.641998   1.000000
   20       10.094108   0.296349
   21       10.129445   0.000000
   22       10.319052   0.000000
   23       10.446269   0.000000
   24       10.619295   0.000000

  0.4615385E+00  0.2307692E+00  0.3739986E-17  0.1092399E-01
    1      -34.024657   1.000000
    2      -12.842990   1.000000
    3      -12.836711   1.000000
    4      -12.804622   1.000000
    5      -12.795556   1.000000
    6      -12.793333   1.000000
    7       -9.484265   1.000000
    8       -9.329897   1.000000
    9       -9.309506   1.000000
   10       -1.468960   1.000000
   11        4.193015   1.000000
   12        4.973384   1.000000
   13        5.218724   1.000000
   14        5.883482   1.000000
   15        5.974225   1.000000
   16        6.515227   1.000000
   17        7.739891   1.000000
   18        8.363481   1.000000
   19        9.682465   1.000000
   20       10.126895   0.000000
   21       10.165204   0.000000
   22       10.358328   0.000000
   23       10.425261   0.000000
   24       10.573321   0.000000

 -0.4615385E+00  0.2307692E+00 -0.2756604E-16  0.1092399E-01
    1      -34.024287   1.000000
    2      -12.844099   1.000000
    3      -12.840237   1.000000
    4      -12.803951   1.000000
    5      -12.796384   1.000000
    6      -12.793266   1.000000
    7       -9.493632   1.000000
    8       -9.342918   1.000000
    9       -9.292023   1.000000
   10       -1.392089   1.000000
   11        4.312453   1.000000
   12        4.920706   1.000000
   13        5.046238   1.000000
   14        5.918137   1.000000
   15        5.960284   1.000000
   16        6.359803   1.000000
   17        7.623309   1.000000
   18        8.357010   1.000000
   19        9.710177   1.000000
   20       10.129077   0.000000
   21       10.213342   0.000000
   22       10.383589   0.000000
   23       10.416681   0.000000
   24       10.538854   0.000000

 -0.3846154E+00  0.2307692E+00  0.8650262E-17  0.1092399E-01
    1      -34.024310   1.000000
    2      -12.850510   1.000000
    3      -12.837868   1.000000
    4      -12.802705   1.000000
    5      -12.797284   1.000000
    6      -12.793708   1.000000
    7       -9.487164   1.000000
    8       -9.359451   1.000000
    9       -9.275827   1.000000
   10       -1.362055   1.000000
   11        4.290173   1.000000
   12        4.884439   1.000000
   13        4.982510   1.000000
   14        5.845660   1.000000
   15        6.066736   1.000000
   16        6.403646   1.000000
   17        7.525829   1.000000
   18        8.338560   1.000000
   19        9.723412   1.000000
   20       10.101171   0.062544
   21       10.263118   0.000000
   22       10.326651   0.000000