 vasp.6.0.8 29Jun18 (build Jun 13 2019 12:54:44) complex

 executed on      IFC18_CrayMPICH date 2021.11.11  15:47:52
 running   64 mpi-ranks, with    1 threads/rank
 distrk:  each k-point on   16 cores,    4 groups
 distr:  one band on NCORES_PER_BAND=   4 cores,    4 groups


--------------------------------------------------------------------------------------------------------


 INCAR:
 POTCAR:    PAW_PBE Bi_d 06Sep2000
 POTCAR:    PAW_PBE Pt 04Feb2005
 POTCAR:    PAW_PBE U 06Sep2000
 POTCAR:    PAW_PBE Bi_d 06Sep2000
   VRHFIN =Bi:
   LEXCH  = PE
   EATOM  =  1959.2045 eV,  143.9975 Ry

   TITEL  = PAW_PBE Bi_d 06Sep2000
   LULTRA =        F    use ultrasoft PP ?
   IUNSCR =        1    unscreen: 0-lin 1-nonlin 2-no
   RPACOR =    2.200    partial core radius
   POMASS =  208.980; ZVAL   =   15.000    mass and valenz
   RCORE  =    2.500    outmost cutoff radius
   RWIGS  =    3.090; RWIGS  =    1.635    wigner-seitz radius (au A)
   ENMAX  =  242.839; ENMIN  =  182.129 eV
   ICORE  =        3    local potential
   LCOR   =        T    correct aug charges
   LPAW   =        T    paw PP
   EAUG   =  442.899
   DEXC   =    0.000
   RMAX   =    2.551    core radius for proj-oper
   RAUG   =    1.300    factor for augmentation sphere
   RDEP   =    2.650    radius for radial grids
   RDEPT  =    2.039    core radius for aug-charge

   Atomic configuration
   16 entries
     n  l   j            E        occ.
     1  0  0.50    -90639.6581   2.0000
     2  0  0.50    -16282.4666   2.0000
     2  1  1.50    -13922.8286   6.0000
     3  0  0.50     -3930.4763   2.0000
     3  1  1.50     -3256.7013   6.0000
     3  2  2.50     -2581.6168  10.0000
     4  0  0.50      -902.2614   2.0000
     4  1  1.50      -681.5915   6.0000
     4  2  2.50      -429.8249  10.0000
     4  3  3.50      -152.6004  14.0000
     5  0  0.50      -157.7156   2.0000
     5  1  1.50       -95.8054   6.0000
     5  2  2.50       -27.0806  10.0000
     6  0  0.50       -14.4732   2.0000
     6  1  1.50        -4.5702   3.0000
     5  3  2.50        -2.7212   0.0000
   Description
     l       E           TYP  RCUT    TYP  RCUT
     2    -27.0805982     23  2.500
     2     -1.3605826     23  2.500
     0    -14.4732271     23  2.500
     0      6.8029130     23  2.500
     1     -4.5701651     23  2.500
     1     13.6058260     23  2.500
     3     -1.3605826      7  2.500
  local pseudopotential read in
  partial core-charges read in
  partial kinetic energy density read in
  atomic valenz-charges read in
  non local Contribution for L=           2  read in
    real space projection operators read in
  non local Contribution for L=           2  read in
    real space projection operators read in
  non local Contribution for L=           0  read in
    real space projection operators read in
  non local Contribution for L=           0  read in
    real space projection operators read in
  non local Contribution for L=           1  read in
    real space projection operators read in
  non local Contribution for L=           1  read in
    real space projection operators read in
    PAW grid and wavefunctions read in

   number of l-projection  operators is LMAX  =           6
   number of lm-projection operators is LMMAX =          18

 POTCAR:    PAW_PBE Pt 04Feb2005
   VRHFIN =Pt: s1d9
   LEXCH  = PE
   EATOM  =   729.1176 eV,   53.5886 Ry

   TITEL  = PAW_PBE Pt 04Feb2005
   LULTRA =        F    use ultrasoft PP ?
   IUNSCR =        1    unscreen: 0-lin 1-nonlin 2-no
   RPACOR =    2.330    partial core radius
   POMASS =  195.080; ZVAL   =   10.000    mass and valenz
   RCORE  =    2.600    outmost cutoff radius
   RWIGS  =    2.750; RWIGS  =    1.455    wigner-seitz radius (au A)
   ENMAX  =  230.283; ENMIN  =  172.712 eV
   ICORE  =        3    local potential
   LCOR   =        T    correct aug charges
   LPAW   =        T    paw PP
   EAUG   =  358.966
   DEXC   =    0.000
   RMAX   =    2.658    core radius for proj-oper
   RAUG   =    1.300    factor for augmentation sphere
   RDEP   =    2.761    radius for radial grids
   RDEPT  =    2.203    core radius for aug-charge

   Atomic configuration
   16 entries
     n  l   j            E        occ.
     1  0  0.50    -78401.1885   2.0000
     2  0  0.50    -13770.7750   2.0000
     2  1  1.50    -11931.0468   6.0000
     3  0  0.50     -3234.7234   2.0000
     3  1  1.50     -2699.2216   6.0000
     3  2  2.50     -2119.5714  10.0000
     4  0  0.50      -695.1528   2.0000
     4  1  1.50      -519.6034   6.0000
     4  2  2.50      -306.6786  10.0000
     4  3  3.50       -70.1041  14.0000
     5  0  0.50      -101.7747   2.0000
     5  1  1.50       -55.9873   6.0000
     5  2  2.50        -6.1423   9.0000
     6  0  0.50        -5.6573   1.0000
     6  1  1.50        -6.8029   0.0000
     5  3  2.50        -1.3606   0.0000
   Description
     l       E           TYP  RCUT    TYP  RCUT
     2     -6.1423404     23  2.500
     2     -7.5029230     23  2.500
     0     -5.6573207     23  2.500
     0      0.7416693     23  2.500
     1     -2.7211652     23  2.600
     1     20.4087390     23  2.600
     3     -1.3605826     23  2.500
  local pseudopotential read in
  partial core-charges read in
  partial kinetic energy density read in
  atomic valenz-charges read in
  non local Contribution for L=           2  read in
    real space projection operators read in
  non local Contribution for L=           2  read in
    real space projection operators read in
  non local Contribution for L=           0  read in
    real space projection operators read in
  non local Contribution for L=           0  read in
    real space projection operators read in
  non local Contribution for L=           1  read in
    real space projection operators read in
  non local Contribution for L=           1  read in
    real space projection operators read in
    PAW grid and wavefunctions read in

   number of l-projection  operators is LMAX  =           6
   number of lm-projection operators is LMMAX =          18

 POTCAR:    PAW_PBE U 06Sep2000
   VRHFIN =U:  [Xe,5d,4f]
   LEXCH  = PE
   EATOM  =  1405.3058 eV,  103.2871 Ry

   TITEL  = PAW_PBE U 06Sep2000
   LULTRA =        F    use ultrasoft PP ?
   IUNSCR =        1    unscreen: 0-lin 1-nonlin 2-no
   RPACOR =    2.200    partial core radius
   POMASS =  238.029; ZVAL   =   14.000    mass and valenz
   RCORE  =    2.800    outmost cutoff radius
   RWIGS  =    3.000; RWIGS  =    1.588    wigner-seitz radius (au A)
   ENMAX  =  252.502; ENMIN  =  189.376 eV
   RCLOC  =    1.811    cutoff for local pot
   LCOR   =        T    correct aug charges
   LPAW   =        T    paw PP
   EAUG   =  526.410
   DEXC   =    0.000
   RMAX   =    2.863    core radius for proj-oper
   RAUG   =    1.300    factor for augmentation sphere
   RDEP   =    2.950    radius for radial grids
   RDEPT  =    2.270    core radius for aug-charge

   Atomic configuration
   18 entries
     n  l   j            E        occ.
     1  0  0.50   -116038.1941   2.0000
     2  0  0.50    -21694.8835   2.0000
     2  1  1.50    -18009.1553   6.0000
     3  0  0.50     -5481.2929   2.0000
     3  1  1.50     -4458.9283   6.0000
     3  2  2.50     -3575.9978  10.0000
     4  0  0.50     -1400.5351   2.0000
     4  1  1.50     -1066.7807   6.0000
     4  2  2.50      -732.1336  10.0000
     4  3  3.50      -377.4393  14.0000
     5  0  0.50      -314.7366   2.0000
     5  1  1.50      -211.6057   6.0000
     5  2  2.50      -103.2045  10.0000
     6  0  0.50       -50.6026   2.0000
     7  0  0.50        -4.5896   2.0000
     6  1  1.50       -25.2884   6.0000
     6  2  1.50        -3.1039   2.0000
     5  3  2.50        -6.3670   2.0000
   Description
     l       E           TYP  RCUT    TYP  RCUT
     0    -50.6026097     23  2.600
     0     -4.5896371     23  2.600
     1    -25.2883770     23  2.500
     1     27.2116520     23  2.500
     2     -3.1038686     23  2.500
     2      0.8290654     23  2.500
     3     -6.3670133     23  2.800
     3     -7.7275959     23  2.800
  local pseudopotential read in
  partial core-charges read in
  partial kinetic energy density read in
  atomic valenz-charges read in
  non local Contribution for L=           0  read in
    real space projection operators read in
  non local Contribution for L=           0  read in
    real space projection operators read in
  non local Contribution for L=           1  read in
    real space projection operators read in
  non local Contribution for L=           1  read in
    real space projection operators read in
  non local Contribution for L=           2  read in
    real space projection operators read in
  non local Contribution for L=           2  read in
    real space projection operators read in
  non local Contribution for L=           3  read in
    real space projection operators read in
  non local Contribution for L=           3  read in
    real space projection operators read in
    PAW grid and wavefunctions read in

   number of l-projection  operators is LMAX  =           8
   number of lm-projection operators is LMMAX =          32


 -----------------------------------------------------------------------------
|                                                                             |
|  ADVICE TO THIS USER RUNNING 'VASP/VAMP'   (HEAR YOUR MASTER'S VOICE ...):  |
|                                                                             |
|      You enforced a specific xc-type in the INCAR file,                     |
|      a different type was found on the POTCAR file                          |
|          I HOPE YOU KNOW, WHAT YOU ARE  DOING                               |
|                                                                             |
 -----------------------------------------------------------------------------

  PAW_PBE Bi_d 06Sep2000                :
 energy of atom  1       EATOM=-1959.2045
 kinetic energy error for atom=    0.0040 (will be added to EATOM!!)
  PAW_PBE Pt 04Feb2005                  :
 energy of atom  2       EATOM= -729.1176
 kinetic energy error for atom=    0.0032 (will be added to EATOM!!)
  PAW_PBE U 06Sep2000                   :
 energy of atom  3       EATOM=-1405.3058
 kinetic energy error for atom=    0.0014 (will be added to EATOM!!)


 POSCAR: U1 Bi1 Pt1
  positions in direct lattice
  No initial velocities read in
 exchange correlation table for  LEXCH =       14
   RHO(1)=    0.500       N(1)  =     2000
   RHO(2)=  100.500       N(2)  =     4000



--------------------------------------------------------------------------------------------------------


 ion  position               nearest neighbor table
   1  0.250  0.250  0.250-   2 2.95   2 2.95   2 2.95   2 2.95   3 3.40   3 3.40   3 3.40   3 3.40
                             3 3.40   3 3.40
   2  0.000  0.000  0.000-   3 2.95   3 2.95   3 2.95   1 2.95   3 2.95   1 2.95   1 2.95   1 2.95

   3  0.750  0.750  0.750-   2 2.95   2 2.95   2 2.95   2 2.95   1 3.40   1 3.40   1 3.40   1 3.40
                             1 3.40   1 3.40

  LATTYP: Found a face centered cubic cell.
 ALAT       =     6.8029600000

  Lattice vectors:

 A1 = (   0.0000000000,   3.4014800000,   3.4014800000)
 A2 = (   3.4014800000,   0.0000000000,   3.4014800000)
 A3 = (   3.4014800000,   3.4014800000,   0.0000000000)


Analysis of symmetry for initial positions (statically):
=====================================================================
 Subroutine PRICEL returns:
 Original cell was already a primitive cell.


 Routine SETGRP: Setting up the symmetry group for a
 face centered cubic supercell.


 Subroutine GETGRP returns: Found 24 space group operations
 (whereof 24 operations were pure point group operations)
 out of a pool of 48 trial point group operations.


The static configuration has the point symmetry T_d .


Analysis of symmetry for dynamics (positions and initial velocities):
=====================================================================
 Subroutine PRICEL returns:
 Original cell was already a primitive cell.


 Routine SETGRP: Setting up the symmetry group for a
 face centered cubic supercell.


 Subroutine GETGRP returns: Found 24 space group operations
 (whereof 24 operations were pure point group operations)
 out of a pool of 48 trial point group operations.


The dynamic configuration has the point symmetry T_d .


 Subroutine INISYM returns: Found 24 space group operations
 (whereof 24 operations are pure point group operations),
 and found     1 'primitive' translations


----------------------------------------------------------------------------------------

                                     Primitive cell

  volume of cell :      78.7107

  direct lattice vectors                    reciprocal lattice vectors
     0.000000000  3.401480000  3.401480000    -0.146994838  0.146994838  0.146994838
     3.401480000  0.000000000  3.401480000     0.146994838 -0.146994838  0.146994838
     3.401480000  3.401480000  0.000000000     0.146994838  0.146994838 -0.146994838

  length of vectors
     4.810419148  4.810419148  4.810419148     0.254602527  0.254602527  0.254602527

  position of ions in fractional coordinates (direct lattice)
     0.250000000  0.250000000  0.250000000
     0.000000000  0.000000000  0.000000000
     0.750000000  0.750000000  0.750000000

  ion indices of the primitive-cell ions
   primitive index   ion index
                 1           1
                 2           2
                 3           3

----------------------------------------------------------------------------------------



 KPOINTS: KPOINTS

Automatic generation of k-mesh.
Space group operators:
 irot       det(A)        alpha          n_x          n_y          n_z        tau_x        tau_y        tau_z
    1     1.000000     0.000000     1.000000     0.000000     0.000000     0.000000     0.000000     0.000000
    2     1.000000   120.000000    -0.577350    -0.577350    -0.577350     0.000000     0.000000     0.000000
    3     1.000000   120.000000     0.577350     0.577350     0.577350     0.000000     0.000000     0.000000
    4    -1.000000    90.000000    -0.000000    -0.000000    -1.000000     0.000000     0.000000     0.000000
    5    -1.000000   180.000000     0.000000     0.707107     0.707107     0.000000     0.000000     0.000000
    6    -1.000000    90.000000    -0.000000     1.000000    -0.000000     0.000000     0.000000     0.000000
    7     1.000000   180.000000    -0.000000     0.000000     1.000000     0.000000     0.000000     0.000000
    8     1.000000   120.000000    -0.577350     0.577350     0.577350     0.000000     0.000000     0.000000
    9     1.000000   120.000000    -0.577350     0.577350    -0.577350     0.000000     0.000000     0.000000
   10    -1.000000    90.000000     0.000000     0.000000     1.000000     0.000000     0.000000     0.000000
   11    -1.000000    90.000000    -1.000000     0.000000    -0.000000     0.000000     0.000000     0.000000
   12    -1.000000   180.000000     0.707107     0.000000     0.707107     0.000000     0.000000     0.000000
   13     1.000000   120.000000     0.577350    -0.577350     0.577350     0.000000     0.000000     0.000000
   14     1.000000   120.000000    -0.577350    -0.577350     0.577350     0.000000     0.000000     0.000000
   15     1.000000   180.000000     1.000000     0.000000     0.000000     0.000000     0.000000     0.000000
   16    -1.000000    90.000000     0.000000    -1.000000     0.000000     0.000000     0.000000     0.000000
   17    -1.000000   180.000000     0.707107     0.707107    -0.000000     0.000000     0.000000     0.000000
   18    -1.000000    90.000000     1.000000     0.000000     0.000000     0.000000     0.000000     0.000000
   19     1.000000   120.000000     0.577350    -0.577350    -0.577350     0.000000     0.000000     0.000000
   20     1.000000   180.000000    -0.000000     1.000000     0.000000     0.000000     0.000000     0.000000
   21     1.000000   120.000000     0.577350     0.577350    -0.577350     0.000000     0.000000     0.000000
   22    -1.000000   180.000000    -0.000000    -0.707107     0.707107     0.000000     0.000000     0.000000
   23    -1.000000   180.000000     0.707107    -0.707107     0.000000     0.000000     0.000000     0.000000
   24    -1.000000   180.000000    -0.707107     0.000000     0.707107     0.000000     0.000000     0.000000

 Subroutine IBZKPT returns following result:
 ===========================================

 Found     84 irreducible k-points:

 Following reciprocal coordinates:
            Coordinates               Weight
  0.000000  0.000000  0.000000      1.000000
  0.076923  0.000000 -0.000000      8.000000
  0.153846  0.000000 -0.000000      8.000000
  0.230769 -0.000000  0.000000      8.000000
  0.307692  0.000000 -0.000000      8.000000
  0.384615 -0.000000  0.000000      8.000000
  0.461538 -0.000000  0.000000      8.000000
  0.076923  0.076923  0.000000      6.000000
  0.153846  0.076923 -0.000000     24.000000
  0.230769  0.076923 -0.000000     24.000000
  0.307692  0.076923 -0.000000     24.000000
  0.384615  0.076923 -0.000000     24.000000
  0.461538  0.076923 -0.000000     24.000000
 -0.461538  0.076923 -0.000000     24.000000
 -0.384615  0.076923  0.000000     24.000000
 -0.307692  0.076923 -0.000000     24.000000
 -0.230769  0.076923 -0.000000     24.000000
 -0.153846  0.076923 -0.000000     24.000000
 -0.076923  0.076923  0.000000     12.000000
  0.153846  0.153846  0.000000      6.000000
  0.230769  0.153846  0.000000     24.000000
  0.307692  0.153846 -0.000000     24.000000
  0.384615  0.153846  0.000000     24.000000
  0.461538  0.153846 -0.000000     24.000000
 -0.461538  0.153846  0.000000     24.000000
 -0.384615  0.153846 -0.000000     24.000000
 -0.307692  0.153846  0.000000     24.000000
 -0.230769  0.153846 -0.000000     24.000000
 -0.153846  0.153846  0.000000     12.000000
  0.230769  0.230769  0.000000      6.000000
  0.307692  0.230769  0.000000     24.000000
  0.384615  0.230769 -0.000000     24.000000
  0.461538  0.230769  0.000000     24.000000
 -0.461538  0.230769 -0.000000     24.000000
 -0.384615  0.230769  0.000000     24.000000
 -0.307692  0.230769  0.000000     24.000000
 -0.230769  0.230769 -0.000000     12.000000
  0.307692  0.307692  0.000000      6.000000
  0.384615  0.307692  0.000000     24.000000
  0.461538  0.307692 -0.000000     24.000000
 -0.461538  0.307692 -0.000000     24.000000
 -0.384615  0.307692 -0.000000     24.000000
 -0.307692  0.307692  0.000000     12.000000
  0.384615  0.384615  0.000000      6.000000
  0.461538  0.384615  0.000000     24.000000
 -0.461538  0.384615  0.000000     24.000000
 -0.384615  0.384615 -0.000000     12.000000
  0.461538  0.461538  0.000000      6.000000
 -0.461538  0.461538 -0.000000     12.000000
  0.230769  0.153846  0.076923     24.000000
  0.307692  0.153846  0.076923     48.000000
  0.384615  0.153846  0.076923     48.000000
  0.461538  0.153846  0.076923     48.000000
 -0.461538  0.153846  0.076923     48.000000
  0.307692  0.230769  0.076923     24.000000
  0.384615  0.230769  0.076923     48.000000
  0.461538  0.230769  0.076923     48.000000
 -0.461538  0.230769  0.076923     48.000000
 -0.384615  0.230769  0.076923     48.000000
 -0.307692  0.230769  0.076923     48.000000
 -0.230769  0.230769  0.076923     48.000000
 -0.153846  0.230769  0.076923     24.000000
  0.384615  0.307692  0.076923     24.000000
  0.461538  0.307692  0.076923     48.000000
 -0.461538  0.307692  0.076923     48.000000
 -0.384615  0.307692  0.076923     48.000000
 -0.307692  0.307692  0.076923     48.000000
 -0.230769  0.307692  0.076923     24.000000
  0.461538  0.384615  0.076923     24.000000
 -0.461538  0.384615  0.076923     48.000000
 -0.384615  0.384615  0.076923     48.000000
 -0.307692  0.384615  0.076923     24.000000
 -0.461538  0.461538  0.076923     24.000000
 -0.384615  0.461538  0.076923     24.000000
  0.461538  0.307692  0.153846     24.000000
 -0.461538  0.307692  0.153846     48.000000
 -0.384615  0.307692  0.153846     48.000000
 -0.461538  0.384615  0.153846     24.000000
 -0.384615  0.384615  0.153846     48.000000
 -0.307692  0.384615  0.153846     48.000000
 -0.230769  0.384615  0.153846     24.000000
 -0.384615  0.461538  0.153846     24.000000
 -0.307692  0.461538  0.153846     24.000000
 -0.307692  0.461538  0.230769     24.000000

 Following cartesian coordinates:
            Coordinates               Weight
  0.000000  0.000000  0.000000      1.000000
 -0.011307  0.011307  0.011307      8.000000
 -0.022615  0.022615  0.022615      8.000000
 -0.033922  0.033922  0.033922      8.000000
 -0.045229  0.045229  0.045229      8.000000
 -0.056536  0.056536  0.056536      8.000000
 -0.067844  0.067844  0.067844      8.000000
  0.000000 -0.000000  0.022615      6.000000
 -0.011307  0.011307  0.033922     24.000000
 -0.022615  0.022615  0.045229     24.000000
 -0.033922  0.033922  0.056536     24.000000
 -0.045229  0.045229  0.067844     24.000000
 -0.056536  0.056536  0.079151     24.000000
  0.079151 -0.079151 -0.056536     24.000000
  0.067844 -0.067844 -0.045229     24.000000
  0.056536 -0.056536 -0.033922     24.000000
  0.045229 -0.045229 -0.022615     24.000000
  0.033922 -0.033922 -0.011307     24.000000
  0.022615 -0.022615 -0.000000     12.000000
  0.000000 -0.000000  0.045229      6.000000
 -0.011307  0.011307  0.056536     24.000000
 -0.022615  0.022615  0.067844     24.000000
 -0.033922  0.033922  0.079151     24.000000
 -0.045229  0.045229  0.090458     24.000000
  0.090458 -0.090458 -0.045229     24.000000
  0.079151 -0.079151 -0.033922     24.000000
  0.067844 -0.067844 -0.022615     24.000000
  0.056536 -0.056536 -0.011307     24.000000
  0.045229 -0.045229 -0.000000     12.000000
 -0.000000  0.000000  0.067844      6.000000
 -0.011307  0.011307  0.079151     24.000000
 -0.022615  0.022615  0.090458     24.000000
 -0.033922  0.033922  0.101766     24.000000
  0.101766 -0.101766 -0.033922     24.000000
  0.090458 -0.090458 -0.022615     24.000000
  0.079151 -0.079151 -0.011307     24.000000
  0.067844 -0.067844 -0.000000     12.000000
  0.000000 -0.000000  0.090458      6.000000
 -0.011307  0.011307  0.101766     24.000000
 -0.022615  0.022615  0.113073     24.000000
  0.113073 -0.113073 -0.022615     24.000000
  0.101766 -0.101766 -0.011307     24.000000
  0.090458 -0.090458 -0.000000     12.000000
  0.000000  0.000000  0.113073      6.000000
 -0.011307  0.011307  0.124380     24.000000
  0.124380 -0.124380 -0.011307     24.000000
  0.113073 -0.113073  0.000000     12.000000
 -0.000000  0.000000  0.135688      6.000000
  0.135688 -0.135688  0.000000     12.000000
 -0.000000  0.022615  0.045229     24.000000
 -0.011307  0.033922  0.056536     48.000000
 -0.022615  0.045229  0.067844     48.000000
 -0.033922  0.056536  0.079151     48.000000
  0.101766 -0.079151 -0.056536     48.000000
  0.000000  0.022615  0.067844     24.000000
 -0.011307  0.033922  0.079151     48.000000
 -0.022615  0.045229  0.090458     48.000000
  0.113073 -0.090458 -0.045229     48.000000
  0.101766 -0.079151 -0.033922     48.000000
  0.090458 -0.067844 -0.022615     48.000000
  0.079151 -0.056536 -0.011307     48.000000
  0.067844 -0.045229 -0.000000     24.000000
  0.000000  0.022615  0.090458     24.000000
 -0.011307  0.033922  0.101766     48.000000
  0.124380 -0.101766 -0.033922     48.000000
  0.113073 -0.090458 -0.022615     48.000000
  0.101766 -0.079151 -0.011307     48.000000
  0.090458 -0.067844 -0.000000     24.000000
  0.000000  0.022615  0.113073     24.000000
  0.135688 -0.113073 -0.022615     48.000000
  0.124380 -0.101766 -0.011307     48.000000
  0.113073 -0.090458  0.000000     24.000000
  0.146995 -0.124380 -0.011307     24.000000
  0.135688 -0.113073 -0.000000     24.000000
 -0.000000  0.045229  0.090458     24.000000
  0.135688 -0.090458 -0.045229     48.000000
  0.124380 -0.079151 -0.033922     48.000000
  0.146995 -0.101766 -0.033922     24.000000
  0.135688 -0.090458 -0.022615     48.000000
  0.124380 -0.079151 -0.011307     48.000000
  0.113073 -0.067844  0.000000     24.000000
  0.146995 -0.101766 -0.011307     24.000000
  0.135688 -0.090458  0.000000     24.000000
  0.146995 -0.079151 -0.011307     24.000000



--------------------------------------------------------------------------------------------------------




 Dimension of arrays:
   k-points           NKPTS =     84   k-points in BZ     NKDIM =     84   number of bands    NBANDS=     24
   number of dos      NEDOS =    301   number of ions     NIONS =      3
   non local maximal  LDIM  =      8   non local SUM 2l+1 LMDIM =     32
   total plane-waves  NPLWV =  46656
   max r-space proj   IRMAX =      1   max aug-charges    IRDMAX=  36348
   dimension x,y,z NGX =    36 NGY =   36 NGZ =   36
   dimension x,y,z NGXF=    72 NGYF=   72 NGZF=   72
   support grid    NGXF=    72 NGYF=   72 NGZF=   72
   ions per type =               1   1   1
   NGX,Y,Z   is equivalent  to a cutoff of  12.44, 12.44, 12.44 a.u.
   NGXF,Y,Z  is equivalent  to a cutoff of  24.88, 24.88, 24.88 a.u.

 SYSTEM =  unknown system
 POSCAR =  U1 Bi1 Pt1

 Startparameter for this run:
   NWRITE =      2    write-flag & timer
   PREC   = acc       normal or accurate (medium, high low for compatibility)
   ISTART =      0    job   : 0-new  1-cont  2-samecut
   ICHARG =      2    charge: 1-file 2-atom 10-const
   ISPIN  =      1    spin polarized calculation?
   LNONCOLLINEAR =      F non collinear calculations
   LSORBIT =      F    spin-orbit coupling
   INIWAV =      1    electr: 0-lowe 1-rand  2-diag
   LASPH  =      F    aspherical Exc in radial PAW
   METAGGA=      F    non-selfconsistent MetaGGA calc.

 Electronic Relaxation 1
   ENCUT  =  520.0 eV  38.22 Ry    6.18 a.u.   8.94  8.94  8.94*2*pi/ulx,y,z
   ENINI  =  520.0     initial cutoff
   ENAUG  =  526.4 eV  augmentation charge cutoff
   NELM   =     60;   NELMIN=  5; NELMDL= -5     # of ELM steps
   EDIFF  = 0.1E-04   stopping-criterion for ELM
   LREAL  =      F    real-space projection
   NLSPLINE    = F    spline interpolate recip. space projectors
   LCOMPAT=      F    compatible to vasp.4.4
   GGA_COMPAT  = T    GGA compatible to vasp.4.4-vasp.4.6
   LMAXPAW     = -100 max onsite density
   LMAXMIX     =    2 max onsite mixed and CHGCAR
   VOSKOWN=      0    Vosko Wilk Nusair interpolation
   ROPT   =    0.00000   0.00000   0.00000
 Ionic relaxation
   EDIFFG = 0.1E-03   stopping-criterion for IOM
   NSW    =     60    number of steps for IOM
   NBLOCK =      1;   KBLOCK =     60    inner block; outer block
   IBRION =      2    ionic relax: 0-MD 1-quasi-New 2-CG
   NFREE  =      1    steps in history (QN), initial steepest desc. (CG)
   ISIF   =      7    stress and relaxation
   IWAVPR =     11    prediction:  0-non 1-charg 2-wave 3-comb
   ISYM   =      2    0-nonsym 1-usesym 2-fastsym
   LCORR  =      T    Harris-Foulkes like correction to forces

   POTIM  = 0.1000    time-step for ionic-motion
   TEIN   =    0.0    initial temperature
   TEBEG  =    0.0;   TEEND  =   0.0 temperature during run
   SMASS  =  -3.00    Nose mass-parameter (am)
   estimated Nose-frequenzy (Omega)   =  0.10E-29 period in steps = 0.63E+47 mass=  -0.529E-27a.u.
   SCALEE = 1.0000    scale energy and forces
   NPACO  =    256;   APACO  = 16.0  distance and # of slots for P.C.
   PSTRESS=    0.0 pullay stress

  Mass of Ions in am
   POMASS = 208.98195.08238.03
  Ionic Valenz
   ZVAL   =  15.00 10.00 14.00
  Atomic Wigner-Seitz radii
   RWIGS  =  -1.00 -1.00 -1.00
  virtual crystal weights
   VCA    =   1.00  1.00  1.00
   NELECT =      39.0000    total number of electrons
   NUPDOWN=      -1.0000    fix difference up-down

 DOS related values:
   EMIN   =  10.00;   EMAX   =-10.00  energy-range for DOS
   EFERMI =   0.00
   ISMEAR =     0;   SIGMA  =   0.01  broadening in eV -4-tet -1-fermi 0-gaus

 Electronic relaxation 2 (details)
   IALGO  =     38    algorithm
   LDIAG  =      T    sub-space diagonalisation (order eigenvalues)
   LSUBROT=      F    optimize rotation matrix (better conditioning)
   TURBO    =      0    0=normal 1=particle mesh
   IRESTART =      0    0=no restart 2=restart with 2 vectors
   NREBOOT  =      0    no. of reboots
   NMIN     =      0    reboot dimension
   EREF     =   0.00    reference energy to select bands
   IMIX   =      4    mixing-type and parameters
     AMIX     =   0.40;   BMIX     =  1.00
     AMIX_MAG =   1.60;   BMIX_MAG =  1.00
     AMIN     =   0.10
     WC   =   100.;   INIMIX=   1;  MIXPRE=   1;  MAXMIX= -45

 Intra band minimization:
   WEIMIN = 0.0010     energy-eigenvalue tresh-hold
   EBREAK =  0.10E-06  absolut break condition
   DEPER  =   0.30     relativ break condition

   TIME   =   0.40     timestep for ELM

  volume/ion in A,a.u.               =      26.24       177.06
  Fermi-wavevector in a.u.,A,eV,Ry     =   1.295443  2.448033 22.832938  1.678174
  Thomas-Fermi vector in A             =   2.426963

 Write flags
   LWAVE        =      F    write WAVECAR
   LDOWNSAMPLE  =      F    k-point downsampling of WAVECAR
   LCHARG       =      F    write CHGCAR
   LVTOT        =      F    write LOCPOT, total local potential
   LVHAR        =      F    write LOCPOT, Hartree potential only
   LELF         =      F    write electronic localiz. function (ELF)
   LORBIT       =      0    0 simple, 1 ext, 2 COOP (PROOUT), +10 PAW based schemes


 Dipole corrections
   LMONO  =      F    monopole corrections only (constant potential shift)
   LDIPOL =      F    correct potential (dipole corrections)
   IDIPOL =      0    1-x, 2-y, 3-z, 4-all directions
   EPSILON=  1.0000000 bulk dielectric constant

 Exchange correlation treatment:
   GGA     =    PS    GGA type
   LEXCH   =    14    internal setting for exchange type
   VOSKOWN=      0    Vosko Wilk Nusair interpolation
   LHFCALC =     F    Hartree Fock is set to
   LHFONE  =     F    Hartree Fock one center treatment
   AEXX    =    0.0000 exact exchange contribution

 Linear response parameters
   LEPSILON=     F    determine dielectric tensor
   LRPA    =     F    only Hartree local field effects (RPA)
   LNABLA  =     F    use nabla operator in PAW spheres
   LVEL    =     F    velocity operator in full k-point grid
   LINTERFAST=   F  fast interpolation
   KINTER  =     0    interpolate to denser k-point grid
   CSHIFT  =0.1000    complex shift for real part using Kramers Kronig
   OMEGAMAX=  -1.0    maximum frequency
   DEG_THRESHOLD= 0.2000000E-02 threshold for treating states as degnerate
   RTIME   =   -0.100 relaxation time in fs
  (WPLASMAI=    0.000 imaginary part of plasma frequency in eV, 0.658/RTIME)
   DFIELD  = 0.0000000 0.0000000 0.0000000 field for delta impulse in time

 Orbital magnetization related:
   ORBITALMAG=     F  switch on orbital magnetization
   LCHIMAG   =     F  perturbation theory with respect to B field
   DQ        =  0.001000  dq finite difference perturbation B field
   LLRAUG    =     F  two centre corrections for induced B field



--------------------------------------------------------------------------------------------------------


 conjugate gradient relaxation of ions
 charge density and potential will be updated during run
 non-spin polarized calculation
 Variant of blocked Davidson
 Davidson routine will perform the subspace rotation
 perform sub-space diagonalisation
    after iterative eigenvector-optimisation
 modified Broyden-mixing scheme, WC =      100.0
 initial mixing is a Kerker type mixing with AMIX =  0.4000 and BMIX =      1.0000
 Hartree-type preconditioning will be used
 using additional bands            4
 reciprocal scheme for non local part
 use partial core corrections
 calculate Harris-corrections to forces
   (improved forces if not selfconsistent)
 use gradient corrections
 use of overlap-Matrix (Vanderbilt PP)
 Gauss-broadening in eV      SIGMA  =   0.01


--------------------------------------------------------------------------------------------------------


  energy-cutoff  :      520.00
  volume of cell :       78.71
      direct lattice vectors                 reciprocal lattice vectors
     0.000000000  3.401480000  3.401480000    -0.146994838  0.146994838  0.146994838
     3.401480000  0.000000000  3.401480000     0.146994838 -0.146994838  0.146994838
     3.401480000  3.401480000  0.000000000     0.146994838  0.146994838 -0.146994838

  length of vectors
     4.810419148  4.810419148  4.810419148     0.254602527  0.254602527  0.254602527



 k-points in units of 2pi/SCALE and weight: KPOINTS
   0.00000000  0.00000000  0.00000000       0.000
  -0.01130730  0.01130730  0.01130730       0.004
  -0.02261459  0.02261459  0.02261459       0.004
  -0.03392189  0.03392189  0.03392189       0.004
  -0.04522918  0.04522918  0.04522918       0.004
  -0.05653648  0.05653648  0.05653648       0.004
  -0.06784377  0.06784377  0.06784377       0.004
   0.00000000 -0.00000000  0.02261459       0.003
  -0.01130730  0.01130730  0.03392189       0.011
  -0.02261459  0.02261459  0.04522918       0.011
  -0.03392189  0.03392189  0.05653648       0.011
  -0.04522918  0.04522918  0.06784377       0.011
  -0.05653648  0.05653648  0.07915107       0.011
   0.07915107 -0.07915107 -0.05653648       0.011
   0.06784377 -0.06784377 -0.04522918       0.011
   0.05653648 -0.05653648 -0.03392189       0.011
   0.04522918 -0.04522918 -0.02261459       0.011
   0.03392189 -0.03392189 -0.01130730       0.011
   0.02261459 -0.02261459 -0.00000000       0.005
   0.00000000 -0.00000000  0.04522918       0.003
  -0.01130730  0.01130730  0.05653648       0.011
  -0.02261459  0.02261459  0.06784377       0.011
  -0.03392189  0.03392189  0.07915107       0.011
  -0.04522918  0.04522918  0.09045836       0.011
   0.09045836 -0.09045836 -0.04522918       0.011
   0.07915107 -0.07915107 -0.03392189       0.011
   0.06784377 -0.06784377 -0.02261459       0.011
   0.05653648 -0.05653648 -0.01130730       0.011
   0.04522918 -0.04522918 -0.00000000       0.005
  -0.00000000  0.00000000  0.06784377       0.003
  -0.01130730  0.01130730  0.07915107       0.011
  -0.02261459  0.02261459  0.09045836       0.011
  -0.03392189  0.03392189  0.10176566       0.011
   0.10176566 -0.10176566 -0.03392189       0.011
   0.09045836 -0.09045836 -0.02261459       0.011
   0.07915107 -0.07915107 -0.01130730       0.011
   0.06784377 -0.06784377 -0.00000000       0.005
   0.00000000 -0.00000000  0.09045836       0.003
  -0.01130730  0.01130730  0.10176566       0.011
  -0.02261459  0.02261459  0.11307295       0.011
   0.11307295 -0.11307295 -0.02261459       0.011
   0.10176566 -0.10176566 -0.01130730       0.011
   0.09045836 -0.09045836 -0.00000000       0.005
   0.00000000  0.00000000  0.11307295       0.003
  -0.01130730  0.01130730  0.12438025       0.011
   0.12438025 -0.12438025 -0.01130730       0.011
   0.11307295 -0.11307295  0.00000000       0.005
  -0.00000000  0.00000000  0.13568754       0.003
   0.13568754 -0.13568754  0.00000000       0.005
  -0.00000000  0.02261459  0.04522918       0.011
  -0.01130730  0.03392189  0.05653648       0.022
  -0.02261459  0.04522918  0.06784377       0.022
  -0.03392189  0.05653648  0.07915107       0.022
   0.10176566 -0.07915107 -0.05653648       0.022
   0.00000000  0.02261459  0.06784377       0.011
  -0.01130730  0.03392189  0.07915107       0.022
  -0.02261459  0.04522918  0.09045836       0.022
   0.11307295 -0.09045836 -0.04522918       0.022
   0.10176566 -0.07915107 -0.03392189       0.022
   0.09045836 -0.06784377 -0.02261459       0.022
   0.07915107 -0.05653648 -0.01130730       0.022
   0.06784377 -0.04522918 -0.00000000       0.011
   0.00000000  0.02261459  0.09045836       0.011
  -0.01130730  0.03392189  0.10176566       0.022
   0.12438025 -0.10176566 -0.03392189       0.022
   0.11307295 -0.09045836 -0.02261459       0.022
   0.10176566 -0.07915107 -0.01130730       0.022
   0.09045836 -0.06784377 -0.00000000       0.011
   0.00000000  0.02261459  0.11307295       0.011
   0.13568754 -0.11307295 -0.02261459       0.022
   0.12438025 -0.10176566 -0.01130730       0.022
   0.11307295 -0.09045836  0.00000000       0.011
   0.14699484 -0.12438025 -0.01130730       0.011
   0.13568754 -0.11307295 -0.00000000       0.011
  -0.00000000  0.04522918  0.09045836       0.011
   0.13568754 -0.09045836 -0.04522918       0.022
   0.12438025 -0.07915107 -0.03392189       0.022
   0.14699484 -0.10176566 -0.03392189       0.011
   0.13568754 -0.09045836 -0.02261459       0.022
   0.12438025 -0.07915107 -0.01130730       0.022
   0.11307295 -0.06784377  0.00000000       0.011
   0.14699484 -0.10176566 -0.01130730       0.011
   0.13568754 -0.09045836  0.00000000       0.011
   0.14699484 -0.07915107 -0.01130730       0.011

 k-points in reciprocal lattice and weights: KPOINTS
   0.00000000  0.00000000  0.00000000       0.000
   0.07692308  0.00000000 -0.00000000       0.004
   0.15384615  0.00000000 -0.00000000       0.004
   0.23076923 -0.00000000  0.00000000       0.004
   0.30769231  0.00000000 -0.00000000       0.004
   0.38461538 -0.00000000  0.00000000       0.004
   0.46153846 -0.00000000  0.00000000       0.004
   0.07692308  0.07692308  0.00000000       0.003
   0.15384615  0.07692308 -0.00000000       0.011
   0.23076923  0.07692308 -0.00000000       0.011
   0.30769231  0.07692308 -0.00000000       0.011
   0.38461538  0.07692308 -0.00000000       0.011
   0.46153846  0.07692308 -0.00000000       0.011
  -0.46153846  0.07692308 -0.00000000       0.011
  -0.38461538  0.07692308  0.00000000       0.011
  -0.30769231  0.07692308 -0.00000000       0.011
  -0.23076923  0.07692308 -0.00000000       0.011
  -0.15384615  0.07692308 -0.00000000       0.011
  -0.07692308  0.07692308  0.00000000       0.005
   0.15384615  0.15384615  0.00000000       0.003
   0.23076923  0.15384615  0.00000000       0.011
   0.30769231  0.15384615 -0.00000000       0.011
   0.38461538  0.15384615  0.00000000       0.011
   0.46153846  0.15384615 -0.00000000       0.011
  -0.46153846  0.15384615  0.00000000       0.011
  -0.38461538  0.15384615 -0.00000000       0.011
  -0.30769231  0.15384615  0.00000000       0.011
  -0.23076923  0.15384615 -0.00000000       0.011
  -0.15384615  0.15384615  0.00000000       0.005
   0.23076923  0.23076923  0.00000000       0.003
   0.30769231  0.23076923  0.00000000       0.011
   0.38461538  0.23076923 -0.00000000       0.011
   0.46153846  0.23076923  0.00000000       0.011
  -0.46153846  0.23076923 -0.00000000       0.011
  -0.38461538  0.23076923  0.00000000       0.011
  -0.30769231  0.23076923  0.00000000       0.011
  -0.23076923  0.23076923 -0.00000000       0.005
   0.30769231  0.30769231  0.00000000       0.003
   0.38461538  0.30769231  0.00000000       0.011
   0.46153846  0.30769231 -0.00000000       0.011
  -0.46153846  0.30769231 -0.00000000       0.011
  -0.38461538  0.30769231 -0.00000000       0.011
  -0.30769231  0.30769231  0.00000000       0.005
   0.38461538  0.38461538  0.00000000       0.003
   0.46153846  0.38461538  0.00000000       0.011
  -0.46153846  0.38461538  0.00000000       0.011
  -0.38461538  0.38461538 -0.00000000       0.005
   0.46153846  0.46153846  0.00000000       0.003
  -0.46153846  0.46153846 -0.00000000       0.005
   0.23076923  0.15384615  0.07692308       0.011
   0.30769231  0.15384615  0.07692308       0.022
   0.38461538  0.15384615  0.07692308       0.022
   0.46153846  0.15384615  0.07692308       0.022
  -0.46153846  0.15384615  0.07692308       0.022
   0.30769231  0.23076923  0.07692308       0.011
   0.38461538  0.23076923  0.07692308       0.022
   0.46153846  0.23076923  0.07692308       0.022
  -0.46153846  0.23076923  0.07692308       0.022
  -0.38461538  0.23076923  0.07692308       0.022
  -0.30769231  0.23076923  0.07692308       0.022
  -0.23076923  0.23076923  0.07692308       0.022
  -0.15384615  0.23076923  0.07692308       0.011
   0.38461538  0.30769231  0.07692308       0.011
   0.46153846  0.30769231  0.07692308       0.022
  -0.46153846  0.30769231  0.07692308       0.022
  -0.38461538  0.30769231  0.07692308       0.022
  -0.30769231  0.30769231  0.07692308       0.022
  -0.23076923  0.30769231  0.07692308       0.011
   0.46153846  0.38461538  0.07692308       0.011
  -0.46153846  0.38461538  0.07692308       0.022
  -0.38461538  0.38461538  0.07692308       0.022
  -0.30769231  0.38461538  0.07692308       0.011
  -0.46153846  0.46153846  0.07692308       0.011
  -0.38461538  0.46153846  0.07692308       0.011
   0.46153846  0.30769231  0.15384615       0.011
  -0.46153846  0.30769231  0.15384615       0.022
  -0.38461538  0.30769231  0.15384615       0.022
  -0.46153846  0.38461538  0.15384615       0.011
  -0.38461538  0.38461538  0.15384615       0.022
  -0.30769231  0.38461538  0.15384615       0.022
  -0.23076923  0.38461538  0.15384615       0.011
  -0.38461538  0.46153846  0.15384615       0.011
  -0.30769231  0.46153846  0.15384615       0.011
  -0.30769231  0.46153846  0.23076923       0.011

 position of ions in fractional coordinates (direct lattice)
   0.25000000  0.25000000  0.25000000
   0.00000000  0.00000000  0.00000000
   0.75000000  0.75000000  0.75000000

 position of ions in cartesian coordinates  (Angst):
   1.70074000  1.70074000  1.70074000
   0.00000000  0.00000000  0.00000000
   5.10222000  5.10222000  5.10222000



--------------------------------------------------------------------------------------------------------


 k-point  1 :   0.0000 0.0000 0.0000  plane waves:    2085
 k-point  2 :   0.0769 0.0000-0.0000  plane waves:    2097
 k-point  3 :   0.1538 0.0000-0.0000  plane waves:    2112
 k-point  4 :   0.2308-0.0000 0.0000  plane waves:    2109
 k-point  5 :   0.3077 0.0000-0.0000  plane waves:    2120
 k-point  6 :   0.3846-0.0000 0.0000  plane waves:    2120
 k-point  7 :   0.4615-0.0000 0.0000  plane waves:    2108
 k-point  8 :   0.0769 0.0769 0.0000  plane waves:    2093
 k-point  9 :   0.1538 0.0769-0.0000  plane waves:    2107
 k-point 10 :   0.2308 0.0769-0.0000  plane waves:    2105
 k-point 11 :   0.3077 0.0769-0.0000  plane waves:    2107
 k-point 12 :   0.3846 0.0769-0.0000  plane waves:    2113
 k-point 13 :   0.4615 0.0769-0.0000  plane waves:    2112
 k-point 14 :  -0.4615 0.0769-0.0000  plane waves:    2111
 k-point 15 :  -0.3846 0.0769 0.0000  plane waves:    2112
 k-point 16 :  -0.3077 0.0769-0.0000  plane waves:    2115
 k-point 17 :  -0.2308 0.0769-0.0000  plane waves:    2116
 k-point 18 :  -0.1538 0.0769-0.0000  plane waves:    2107
 k-point 19 :  -0.0769 0.0769 0.0000  plane waves:    2119
 k-point 20 :   0.1538 0.1538 0.0000  plane waves:    2109
 k-point 21 :   0.2308 0.1538 0.0000  plane waves:    2105
 k-point 22 :   0.3077 0.1538-0.0000  plane waves:    2116
 k-point 23 :   0.3846 0.1538 0.0000  plane waves:    2119
 k-point 24 :   0.4615 0.1538-0.0000  plane waves:    2118
 k-point 25 :  -0.4615 0.1538 0.0000  plane waves:    2124
 k-point 26 :  -0.3846 0.1538-0.0000  plane waves:    2119
 k-point 27 :  -0.3077 0.1538 0.0000  plane waves:    2111
 k-point 28 :  -0.2308 0.1538-0.0000  plane waves:    2117
 k-point 29 :  -0.1538 0.1538 0.0000  plane waves:    2103
 k-point 30 :   0.2308 0.2308 0.0000  plane waves:    2105
 k-point 31 :   0.3077 0.2308 0.0000  plane waves:    2109
 k-point 32 :   0.3846 0.2308-0.0000  plane waves:    2116
 k-point 33 :   0.4615 0.2308 0.0000  plane waves:    2120
 k-point 34 :  -0.4615 0.2308-0.0000  plane waves:    2123
 k-point 35 :  -0.3846 0.2308 0.0000  plane waves:    2127
 k-point 36 :  -0.3077 0.2308 0.0000  plane waves:    2125
 k-point 37 :  -0.2308 0.2308-0.0000  plane waves:    2113
 k-point 38 :   0.3077 0.3077 0.0000  plane waves:    2105
 k-point 39 :   0.3846 0.3077 0.0000  plane waves:    2113
 k-point 40 :   0.4615 0.3077-0.0000  plane waves:    2120
 k-point 41 :  -0.4615 0.3077-0.0000  plane waves:    2123
 k-point 42 :  -0.3846 0.3077-0.0000  plane waves:    2125
 k-point 43 :  -0.3077 0.3077 0.0000  plane waves:    2123
 k-point 44 :   0.3846 0.3846 0.0000  plane waves:    2112
 k-point 45 :   0.4615 0.3846 0.0000  plane waves:    2122
 k-point 46 :  -0.4615 0.3846 0.0000  plane waves:    2120
 k-point 47 :  -0.3846 0.3846-0.0000  plane waves:    2141
 k-point 48 :   0.4615 0.4615 0.0000  plane waves:    2116
 k-point 49 :  -0.4615 0.4615-0.0000  plane waves:    2127
 k-point 50 :   0.2308 0.1538 0.0769  plane waves:    2103
 k-point 51 :   0.3077 0.1538 0.0769  plane waves:    2106
 k-point 52 :   0.3846 0.1538 0.0769  plane waves:    2109
 k-point 53 :   0.4615 0.1538 0.0769  plane waves:    2120
 k-point 54 :  -0.4615 0.1538 0.0769  plane waves:    2123
 k-point 55 :   0.3077 0.2308 0.0769  plane waves:    2110
 k-point 56 :   0.3846 0.2308 0.0769  plane waves:    2109
 k-point 57 :   0.4615 0.2308 0.0769  plane waves:    2112
 k-point 58 :  -0.4615 0.2308 0.0769  plane waves:    2117
 k-point 59 :  -0.3846 0.2308 0.0769  plane waves:    2121
 k-point 60 :  -0.3077 0.2308 0.0769  plane waves:    2115
 k-point 61 :  -0.2308 0.2308 0.0769  plane waves:    2121
 k-point 62 :  -0.1538 0.2308 0.0769  plane waves:    2114
 k-point 63 :   0.3846 0.3077 0.0769  plane waves:    2111
 k-point 64 :   0.4615 0.3077 0.0769  plane waves:    2115
 k-point 65 :  -0.4615 0.3077 0.0769  plane waves:    2125
 k-point 66 :  -0.3846 0.3077 0.0769  plane waves:    2130
 k-point 67 :  -0.3077 0.3077 0.0769  plane waves:    2128
 k-point 68 :  -0.2308 0.3077 0.0769  plane waves:    2119
 k-point 69 :   0.4615 0.3846 0.0769  plane waves:    2118
 k-point 70 :  -0.4615 0.3846 0.0769  plane waves:    2128
 k-point 71 :  -0.3846 0.3846 0.0769  plane waves:    2133
 k-point 72 :  -0.3077 0.3846 0.0769  plane waves:    2131
 k-point 73 :  -0.4615 0.4615 0.0769  plane waves:    2127
 k-point 74 :  -0.3846 0.4615 0.0769  plane waves:    2128
 k-point 75 :   0.4615 0.3077 0.1538  plane waves:    2118
 k-point 76 :  -0.4615 0.3077 0.1538  plane waves:    2119
 k-point 77 :  -0.3846 0.3077 0.1538  plane waves:    2125
 k-point 78 :  -0.4615 0.3846 0.1538  plane waves:    2127
 k-point 79 :  -0.3846 0.3846 0.1538  plane waves:    2130
 k-point 80 :  -0.3077 0.3846 0.1538  plane waves:    2136
 k-point 81 :  -0.2308 0.3846 0.1538  plane waves:    2131
 k-point 82 :  -0.3846 0.4615 0.1538  plane waves:    2133
 k-point 83 :  -0.3077 0.4615 0.1538  plane waves:    2136
 k-point 84 :  -0.3077 0.4615 0.2308  plane waves:    2140

 maximum and minimum number of plane-waves per node :       540      518

 maximum number of plane-waves:      2141
 maximum index in each direction:
   IXMAX=    9   IYMAX=    8   IZMAX=    8
   IXMIN=   -9   IYMIN=   -9   IZMIN=   -9


 parallel 3D FFT for wavefunctions:
    minimum data exchange during FFTs selected (reduces bandwidth)
 parallel 3D FFT for charge:
    minimum data exchange during FFTs selected (reduces bandwidth)


 total amount of memory used by VASP MPI-rank0    72906. kBytes
=======================================================================

   base      :      30000. kBytes
   nonl-proj :      34862. kBytes
   fftplans  :       1218. kBytes
   grid      :       2165. kBytes
   one-center:         49. kBytes
   wavefun   :       4612. kBytes

     INWAV:  cpu time    0.0002: real time    0.0003
 Broyden mixing: mesh for mixing (old mesh)
   NGX = 17   NGY = 17   NGZ = 17
  (NGX  = 72   NGY  = 72   NGZ  = 72)
  gives a total of   4913 points

 initial charge density was supplied:
 charge density of overlapping atoms calculated
 number of electron      39.0000000 magnetization
 keeping initial charge density in first step


--------------------------------------------------------------------------------------------------------


 Maximum index for augmentation-charges         2761 (set IRDMAX)


--------------------------------------------------------------------------------------------------------


 First call to EWALD:  gamma=   0.414
 Maximum number of real-space cells 3x 3x 3
 Maximum number of reciprocal cells 3x 3x 3

    FEWALD:  cpu time    0.0053: real time    0.0058


--------------------------------------- Iteration      1(   1)  ---------------------------------------


    POTLOK:  cpu time    0.0395: real time    0.0928
    SETDIJ:  cpu time    0.0196: real time    0.0197
     EDDAV:  cpu time    1.2946: real time    1.3026
       DOS:  cpu time    0.0042: real time    0.0050
    --------------------------------------------
      LOOP:  cpu time    1.3582: real time    1.4232

 eigenvalue-minimisations  :  4032
 total energy-change (2. order) : 0.3944227E+03  (-0.1879648E+04)
 number of electron      39.0000000 magnetization
 augmentation part       39.0000000 magnetization

 Free energy of the ion-electron system (eV)
  ---------------------------------------------------
  alpha Z        PSCENC =       199.77951123
  Ewald energy   TEWEN  =     -3504.74197696
  -Hartree energ DENC   =      -822.23968080
  -exchange      EXHF   =         0.00000000
  -V(xc)+E(xc)   XCENC  =        89.47366052
  PAW double counting   =      3513.29252893    -3436.88002192
  entropy T*S    EENTRO =        -0.00019097
  eigenvalues    EBANDS =       260.39263933
  atomic energy  EATOM  =      4095.34623897
  Solvation  Ediel_sol  =         0.00000000
  ---------------------------------------------------
  free energy    TOTEN  =       394.42270832 eV

  energy without entropy =      394.42289929  energy(sigma->0) =      394.42280380


--------------------------------------------------------------------------------------------------------




--------------------------------------- Iteration      1(   2)  ---------------------------------------


     EDDAV:  cpu time    1.3518: real time    1.3770
       DOS:  cpu time    0.0031: real time    0.0033
    --------------------------------------------
      LOOP:  cpu time    1.3549: real time    1.3805

 eigenvalue-minimisations  :  4472
 total energy-change (2. order) :-0.3693777E+03  (-0.3627435E+03)
 number of electron      39.0000000 magnetization
 augmentation part       39.0000000 magnetization

 Free energy of the ion-electron system (eV)
  ---------------------------------------------------
  alpha Z        PSCENC =       199.77951123
  Ewald energy   TEWEN  =     -3504.74197696
  -Hartree energ DENC   =      -822.23968080
  -exchange      EXHF   =         0.00000000
  -V(xc)+E(xc)   XCENC  =        89.47366052
  PAW double counting   =      3513.29252893    -3436.88002192
  entropy T*S    EENTRO =        -0.00035252
  eigenvalues    EBANDS =      -108.98488465
  atomic energy  EATOM  =      4095.34623897
  Solvation  Ediel_sol  =         0.00000000
  ---------------------------------------------------
  free energy    TOTEN  =        25.04502280 eV

  energy without entropy =       25.04537532  energy(sigma->0) =       25.04519906


--------------------------------------------------------------------------------------------------------




--------------------------------------- Iteration      1(   3)  ---------------------------------------


     EDDAV:  cpu time    1.5073: real time    1.5360
       DOS:  cpu time    0.0032: real time    0.0034
    --------------------------------------------
      LOOP:  cpu time    1.5105: real time    1.5397

 eigenvalue-minimisations  :  5168
 total energy-change (2. order) :-0.4611542E+02  (-0.4505030E+02)
 number of electron      39.0000000 magnetization
 augmentation part       39.0000000 magnetization

 Free energy of the ion-electron system (eV)
  ---------------------------------------------------
  alpha Z        PSCENC =       199.77951123
  Ewald energy   TEWEN  =     -3504.74197696
  -Hartree energ DENC   =      -822.23968080
  -exchange      EXHF   =         0.00000000
  -V(xc)+E(xc)   XCENC  =        89.47366052
  PAW double counting   =      3513.29252893    -3436.88002192
  entropy T*S    EENTRO =        -0.00091498
  eigenvalues    EBANDS =      -155.09973928
  atomic energy  EATOM  =      4095.34623897
  Solvation  Ediel_sol  =         0.00000000
  ---------------------------------------------------
  free energy    TOTEN  =       -21.07039429 eV

  energy without entropy =      -21.06947931  energy(sigma->0) =      -21.06993680


--------------------------------------------------------------------------------------------------------




--------------------------------------- Iteration      1(   4)  ---------------------------------------


     EDDAV:  cpu time    2.0749: real time    2.1046
       DOS:  cpu time    0.0032: real time    0.0035
    --------------------------------------------
      LOOP:  cpu time    2.0781: real time    2.1076

 eigenvalue-minimisations  :  7504
 total energy-change (2. order) :-0.4637972E+01  (-0.4618584E+01)
 number of electron      39.0000000 magnetization
 augmentation part       39.0000000 magnetization

 Free energy of the ion-electron system (eV)
  ---------------------------------------------------
  alpha Z        PSCENC =       199.77951123
  Ewald energy   TEWEN  =     -3504.74197696
  -Hartree energ DENC   =      -822.23968080
  -exchange      EXHF   =         0.00000000
  -V(xc)+E(xc)   XCENC  =        89.47366052
  PAW double counting   =      3513.29252893    -3436.88002192
  entropy T*S    EENTRO =        -0.00103935
  eigenvalues    EBANDS =      -159.73758729
  atomic energy  EATOM  =      4095.34623897
  Solvation  Ediel_sol  =         0.00000000
  ---------------------------------------------------
  free energy    TOTEN  =       -25.70836668 eV

  energy without entropy =      -25.70732733  energy(sigma->0) =      -25.70784700


--------------------------------------------------------------------------------------------------------




--------------------------------------- Iteration      1(   5)  ---------------------------------------


     EDDAV:  cpu time    1.6444: real time    1.6727
       DOS:  cpu time    0.0033: real time    0.0036
    CHARGE:  cpu time    0.1174: real time    0.1184
    MIXING:  cpu time    0.0041: real time    0.0048
    --------------------------------------------
      LOOP:  cpu time    1.7692: real time    1.7994

 eigenvalue-minimisations  :  5784
 total energy-change (2. order) :-0.1706587E+00  (-0.1704576E+00)
 number of electron      38.9999999 magnetization
 augmentation part        8.9865771 magnetization

 Broyden mixing:
  rms(total) = 0.14635E+01    rms(broyden)= 0.14634E+01
  rms(prec ) = 0.44525E+01
  weight for this iteration     100.00

 Free energy of the ion-electron system (eV)
  ---------------------------------------------------
  alpha Z        PSCENC =       199.77951123
  Ewald energy   TEWEN  =     -3504.74197696
  -Hartree energ DENC   =      -822.23968080
  -exchange      EXHF   =         0.00000000
  -V(xc)+E(xc)   XCENC  =        89.47366052
  PAW double counting   =      3513.29252893    -3436.88002192
  entropy T*S    EENTRO =        -0.00117119
  eigenvalues    EBANDS =      -159.90811413
  atomic energy  EATOM  =      4095.34623897
  Solvation  Ediel_sol  =         0.00000000
  ---------------------------------------------------
  free energy    TOTEN  =       -25.87902536 eV

  energy without entropy =      -25.87785417  energy(sigma->0) =      -25.87843976


--------------------------------------------------------------------------------------------------------




--------------------------------------- Iteration      1(   6)  ---------------------------------------


    POTLOK:  cpu time    0.0396: real time    0.0587
    SETDIJ:  cpu time    0.0167: real time    0.0168
     EDDAV:  cpu time    1.7036: real time    1.7039
       DOS:  cpu time    0.0030: real time    0.0032
    CHARGE:  cpu time    0.1071: real time    0.1072
    MIXING:  cpu time    0.0036: real time    0.0038
    --------------------------------------------
      LOOP:  cpu time    1.8736: real time    1.8938

 eigenvalue-minimisations  :  6048
 total energy-change (2. order) :-0.8980742E+01  (-0.2238163E+02)
 number of electron      38.9999998 magnetization
 augmentation part        7.0161483 magnetization

 Broyden mixing:
  rms(total) = 0.22018E+01    rms(broyden)= 0.22017E+01
  rms(prec ) = 0.61843E+01
  weight for this iteration     100.00

 eigenvalues of (default mixing * dielectric matrix)
  average eigenvalue GAMMA=   0.3632
  0.3632

 Free energy of the ion-electron system (eV)
  ---------------------------------------------------
  alpha Z        PSCENC =       199.77951123
  Ewald energy   TEWEN  =     -3504.74197696
  -Hartree energ DENC   =      -833.34510719
  -exchange      EXHF   =         0.00000000
  -V(xc)+E(xc)   XCENC  =        90.12550226
  PAW double counting   =      3763.29628492    -3686.45209675
  entropy T*S    EENTRO =        -0.00004216
  eigenvalues    EBANDS =      -158.86808169
  atomic energy  EATOM  =      4095.34623897
  Solvation  Ediel_sol  =         0.00000000
  ---------------------------------------------------
  free energy    TOTEN  =       -34.85976739 eV

  energy without entropy =      -34.85972523  energy(sigma->0) =      -34.85974631


--------------------------------------------------------------------------------------------------------




--------------------------------------- Iteration      1(   7)  ---------------------------------------


    POTLOK:  cpu time    0.0283: real time    0.0562
    SETDIJ:  cpu time    0.0160: real time    0.0161
     EDDAV:  cpu time    1.6708: real time    1.6711
       DOS:  cpu time    0.0032: real time    0.0035
    CHARGE:  cpu time    0.1147: real time    0.1148
    MIXING:  cpu time    0.0031: real time    0.0034
    --------------------------------------------
      LOOP:  cpu time    1.8362: real time    1.8651

 eigenvalue-minimisations  :  5816
 total energy-change (2. order) : 0.1000582E+02  (-0.2707092E+01)
 number of electron      38.9999998 magnetization
 augmentation part        7.4669208 magnetization

 Broyden mixing:
  rms(total) = 0.10988E+01    rms(broyden)= 0.10987E+01
  rms(prec ) = 0.32672E+01
  weight for this iteration     100.00

 eigenvalues of (default mixing * dielectric matrix)
  average eigenvalue GAMMA=   0.7357
  0.7357  0.7357

 Free energy of the ion-electron system (eV)
  ---------------------------------------------------
  alpha Z        PSCENC =       199.77951123
  Ewald energy   TEWEN  =     -3504.74197696
  -Hartree energ DENC   =      -819.19157275
  -exchange      EXHF   =         0.00000000
  -V(xc)+E(xc)   XCENC  =        89.45771951
  PAW double counting   =      3843.75919786    -3771.26691560
  entropy T*S    EENTRO =        -0.00061790
  eigenvalues    EBANDS =      -157.99553588
  atomic energy  EATOM  =      4095.34623897
  Solvation  Ediel_sol  =         0.00000000
  ---------------------------------------------------
  free energy    TOTEN  =       -24.85395154 eV

  energy without entropy =      -24.85333364  energy(sigma->0) =      -24.85364259


--------------------------------------------------------------------------------------------------------




--------------------------------------- Iteration      1(   8)  ---------------------------------------


    POTLOK:  cpu time    0.0283: real time    0.0523
    SETDIJ:  cpu time    0.0163: real time    0.0164
     EDDAV:  cpu time    1.6972: real time    1.6974
       DOS:  cpu time    0.0032: real time    0.0034
    CHARGE:  cpu time    0.1094: real time    0.1095
    MIXING:  cpu time    0.0033: real time    0.0034
    --------------------------------------------
      LOOP:  cpu time    1.8575: real time    1.8828

 eigenvalue-minimisations  :  5952
 total energy-change (2. order) : 0.2641367E+00  (-0.3952649E+01)
 number of electron      38.9999999 magnetization
 augmentation part        9.0918933 magnetization

 Broyden mixing:
  rms(total) = 0.92974E+00    rms(broyden)= 0.92968E+00
  rms(prec ) = 0.29841E+01
  weight for this iteration     100.00

 eigenvalues of (default mixing * dielectric matrix)
  average eigenvalue GAMMA=   0.8859
  1.6063  0.5257  0.5257

 Free energy of the ion-electron system (eV)
  ---------------------------------------------------
  alpha Z        PSCENC =       199.77951123
  Ewald energy   TEWEN  =     -3504.74197696
  -Hartree energ DENC   =      -807.61067199
  -exchange      EXHF   =         0.00000000
  -V(xc)+E(xc)   XCENC  =        88.96232321
  PAW double counting   =      3883.62470214    -3814.08112265
  entropy T*S    EENTRO =        -0.00132525
  eigenvalues    EBANDS =      -165.86749353
  atomic energy  EATOM  =      4095.34623897
  Solvation  Ediel_sol  =         0.00000000
  ---------------------------------------------------
  free energy    TOTEN  =       -24.58981484 eV

  energy without entropy =      -24.58848958  energy(sigma->0) =      -24.58915221


--------------------------------------------------------------------------------------------------------




--------------------------------------- Iteration      1(   9)  ---------------------------------------


    POTLOK:  cpu time    0.0285: real time    0.0528
    SETDIJ:  cpu time    0.0160: real time    0.0161
     EDDAV:  cpu time    1.7620: real time    1.7622
       DOS:  cpu time    0.0032: real time    0.0034
    CHARGE:  cpu time    0.1093: real time    0.1094
    MIXING:  cpu time    0.0057: real time    0.0059
    --------------------------------------------
      LOOP:  cpu time    1.9248: real time    1.9492

 eigenvalue-minimisations  :  6280
 total energy-change (2. order) : 0.9836545E+00  (-0.1027529E+01)
 number of electron      38.9999999 magnetization
 augmentation part        8.1423769 magnetization

 Broyden mixing:
  rms(total) = 0.16064E+00    rms(broyden)= 0.16063E+00
  rms(prec ) = 0.28292E+00
  weight for this iteration     100.00

 eigenvalues of (default mixing * dielectric matrix)
  average eigenvalue GAMMA=   0.8867
  1.9380  0.5757  0.5757  0.4572

 Free energy of the ion-electron system (eV)
  ---------------------------------------------------
  alpha Z        PSCENC =       199.77951123
  Ewald energy   TEWEN  =     -3504.74197696
  -Hartree energ DENC   =      -812.50406066
  -exchange      EXHF   =         0.00000000
  -V(xc)+E(xc)   XCENC  =        89.20264587
  PAW double counting   =      3982.82030651    -3913.85511619
  entropy T*S    EENTRO =        -0.00136249
  eigenvalues    EBANDS =      -159.65234662
  atomic energy  EATOM  =      4095.34623897
  Solvation  Ediel_sol  =         0.00000000
  ---------------------------------------------------
  free energy    TOTEN  =       -23.60616037 eV

  energy without entropy =      -23.60479788  energy(sigma->0) =      -23.60547912


--------------------------------------------------------------------------------------------------------




--------------------------------------- Iteration      1(  10)  ---------------------------------------


    POTLOK:  cpu time    0.0357: real time    0.0569
    SETDIJ:  cpu time    0.0165: real time    0.0166
     EDDAV:  cpu time    1.8015: real time    1.8017
       DOS:  cpu time    0.0032: real time    0.0034
    CHARGE:  cpu time    0.1072: real time    0.1075
    MIXING:  cpu time    0.0036: real time    0.0038
    --------------------------------------------
      LOOP:  cpu time    1.9677: real time    1.9894

 eigenvalue-minimisations  :  6440
 total energy-change (2. order) :-0.9967056E-01  (-0.1230473E+00)
 number of electron      38.9999999 magnetization
 augmentation part        7.9222932 magnetization

 Broyden mixing:
  rms(total) = 0.23953E+00    rms(broyden)= 0.23953E+00
  rms(prec ) = 0.77502E+00
  weight for this iteration     100.00

 eigenvalues of (default mixing * dielectric matrix)
  average eigenvalue GAMMA=   0.9418
  1.9322  1.0427  0.5211  0.5211  0.6917

 Free energy of the ion-electron system (eV)
  ---------------------------------------------------
  alpha Z        PSCENC =       199.77951123
  Ewald energy   TEWEN  =     -3504.74197696
  -Hartree energ DENC   =      -812.13852400
  -exchange      EXHF   =         0.00000000
  -V(xc)+E(xc)   XCENC  =        89.20708343
  PAW double counting   =      4051.38599200    -3983.22294701
  entropy T*S    EENTRO =        -0.00131902
  eigenvalues    EBANDS =      -159.31988955
  atomic energy  EATOM  =      4095.34623897
  Solvation  Ediel_sol  =         0.00000000
  ---------------------------------------------------
  free energy    TOTEN  =       -23.70583093 eV

  energy without entropy =      -23.70451191  energy(sigma->0) =      -23.70517142


--------------------------------------------------------------------------------------------------------




--------------------------------------- Iteration      1(  11)  ---------------------------------------


    POTLOK:  cpu time    0.0330: real time    0.0527
    SETDIJ:  cpu time    0.0164: real time    0.0165
     EDDAV:  cpu time    1.6831: real time    1.6833
       DOS:  cpu time    0.0033: real time    0.0036
    CHARGE:  cpu time    0.1086: real time    0.1087
    MIXING:  cpu time    0.0039: real time    0.0040
    --------------------------------------------
      LOOP:  cpu time    1.8483: real time    1.8681

 eigenvalue-minimisations  :  5968
 total energy-change (2. order) : 0.8040837E-01  (-0.6070251E-01)
 number of electron      38.9999999 magnetization
 augmentation part        8.1369696 magnetization

 Broyden mixing:
  rms(total) = 0.36009E-01    rms(broyden)= 0.35963E-01
  rms(prec ) = 0.66246E-01
  weight for this iteration     100.00

 eigenvalues of (default mixing * dielectric matrix)
  average eigenvalue GAMMA=   1.0726
  1.9713  1.9713  0.5266  0.5266  0.7842  0.6556

 Free energy of the ion-electron system (eV)
  ---------------------------------------------------
  alpha Z        PSCENC =       199.77951123
  Ewald energy   TEWEN  =     -3504.74197696
  -Hartree energ DENC   =      -810.62512365
  -exchange      EXHF   =         0.00000000
  -V(xc)+E(xc)   XCENC  =        89.13954836
  PAW double counting   =      4043.09771836    -3975.19194328
  entropy T*S    EENTRO =        -0.00179269
  eigenvalues    EBANDS =      -160.42760290
  atomic energy  EATOM  =      4095.34623897
  Solvation  Ediel_sol  =         0.00000000
  ---------------------------------------------------
  free energy    TOTEN  =       -23.62542255 eV

  energy without entropy =      -23.62362986  energy(sigma->0) =      -23.62452621


--------------------------------------------------------------------------------------------------------




--------------------------------------- Iteration      1(  12)  ---------------------------------------


    POTLOK:  cpu time    0.0349: real time    0.0521
    SETDIJ:  cpu time    0.0161: real time    0.0162
     EDDAV:  cpu time    1.9899: real time    1.9902
       DOS:  cpu time    0.0033: real time    0.0035
    CHARGE:  cpu time    0.1087: real time    0.1088
    MIXING:  cpu time    0.0038: real time    0.0039
    --------------------------------------------
      LOOP:  cpu time    2.1566: real time    2.1755

 eigenvalue-minimisations  :  7240
 total energy-change (2. order) :-0.2696826E-02  (-0.4059634E-02)
 number of electron      38.9999999 magnetization
 augmentation part        8.1759091 magnetization

 Broyden mixing:
  rms(total) = 0.41796E-01    rms(broyden)= 0.41791E-01
  rms(prec ) = 0.11081E+00
  weight for this iteration     100.00

 eigenvalues of (default mixing * dielectric matrix)
  average eigenvalue GAMMA=   1.2160
  2.5162  2.5162  0.8974  0.8974  0.5271  0.5271  0.6308

 Free energy of the ion-electron system (eV)
  ---------------------------------------------------
  alpha Z        PSCENC =       199.77951123
  Ewald energy   TEWEN  =     -3504.74197696
  -Hartree energ DENC   =      -810.46304163
  -exchange      EXHF   =         0.00000000
  -V(xc)+E(xc)   XCENC  =        89.13008723
  PAW double counting   =      4044.41000344    -3976.52901801
  entropy T*S    EENTRO =        -0.00189076
  eigenvalues    EBANDS =      -160.55803287
  atomic energy  EATOM  =      4095.34623897
  Solvation  Ediel_sol  =         0.00000000
  ---------------------------------------------------
  free energy    TOTEN  =       -23.62811938 eV

  energy without entropy =      -23.62622862  energy(sigma->0) =      -23.62717400


--------------------------------------------------------------------------------------------------------




--------------------------------------- Iteration      1(  13)  ---------------------------------------


    POTLOK:  cpu time    0.0283: real time    0.0562
    SETDIJ:  cpu time    0.0126: real time    0.0128
     EDDAV:  cpu time    1.7985: real time    1.7987
       DOS:  cpu time    0.0033: real time    0.0036
    CHARGE:  cpu time    0.1087: real time    0.1088
    MIXING:  cpu time    0.0039: real time    0.0040
    --------------------------------------------
      LOOP:  cpu time    1.9552: real time    1.9834

 eigenvalue-minimisations  :  6384
 total energy-change (2. order) :-0.5885190E-03  (-0.2755725E-03)
 number of electron      38.9999999 magnetization
 augmentation part        8.1764461 magnetization

 Broyden mixing:
  rms(total) = 0.38159E-01    rms(broyden)= 0.38158E-01
  rms(prec ) = 0.11992E+00
  weight for this iteration     100.00

 eigenvalues of (default mixing * dielectric matrix)
  average eigenvalue GAMMA=   1.2089
  2.7736  2.0438  1.3700  0.5276  0.5276  0.6232  0.9027  0.9027

 Free energy of the ion-electron system (eV)
  ---------------------------------------------------
  alpha Z        PSCENC =       199.77951123
  Ewald energy   TEWEN  =     -3504.74197696
  -Hartree energ DENC   =      -810.78477886
  -exchange      EXHF   =         0.00000000
  -V(xc)+E(xc)   XCENC  =        89.13688061
  PAW double counting   =      4042.66198836    -3974.62616466
  entropy T*S    EENTRO =        -0.00192343
  eigenvalues    EBANDS =      -160.39848314
  atomic energy  EATOM  =      4095.34623897
  Solvation  Ediel_sol  =         0.00000000
  ---------------------------------------------------
  free energy    TOTEN  =       -23.62870790 eV

  energy without entropy =      -23.62678446  energy(sigma->0) =      -23.62774618


--------------------------------------------------------------------------------------------------------




--------------------------------------- Iteration      1(  14)  ---------------------------------------


    POTLOK:  cpu time    0.0277: real time    0.0517
    SETDIJ:  cpu time    0.0160: real time    0.0163
     EDDAV:  cpu time    1.6918: real time    1.6921
       DOS:  cpu time    0.0032: real time    0.0034
    CHARGE:  cpu time    0.1088: real time    0.1090
    MIXING:  cpu time    0.0041: real time    0.0042
    --------------------------------------------
      LOOP:  cpu time    1.8516: real time    1.8765

 eigenvalue-minimisations  :  6040
 total energy-change (2. order) : 0.1626139E-02  (-0.1872814E-02)
 number of electron      38.9999999 magnetization
 augmentation part        8.1347846 magnetization

 Broyden mixing:
  rms(total) = 0.82522E-02    rms(broyden)= 0.82495E-02
  rms(prec ) = 0.24103E-01
  weight for this iteration     100.00

 eigenvalues of (default mixing * dielectric matrix)
  average eigenvalue GAMMA=   1.1606
  2.5276  2.1739  0.5276  0.5276  1.1665  1.1665  0.6290  0.8633  0.8633

 Free energy of the ion-electron system (eV)
  ---------------------------------------------------
  alpha Z        PSCENC =       199.77951123
  Ewald energy   TEWEN  =     -3504.74197696
  -Hartree energ DENC   =      -811.01708200
  -exchange      EXHF   =         0.00000000
  -V(xc)+E(xc)   XCENC  =        89.14690932
  PAW double counting   =      4048.10904060    -3980.03350947
  entropy T*S    EENTRO =        -0.00187683
  eigenvalues    EBANDS =      -160.21433662
  atomic energy  EATOM  =      4095.34623897
  Solvation  Ediel_sol  =         0.00000000
  ---------------------------------------------------
  free energy    TOTEN  =       -23.62708176 eV

  energy without entropy =      -23.62520493  energy(sigma->0) =      -23.62614335


--------------------------------------------------------------------------------------------------------




--------------------------------------- Iteration      1(  15)  ---------------------------------------


    POTLOK:  cpu time    0.0350: real time    0.0517
    SETDIJ:  cpu time    0.0163: real time    0.0164
     EDDAV:  cpu time    1.9175: real time    1.9178
       DOS:  cpu time    0.0033: real time    0.0036
    CHARGE:  cpu time    0.1084: real time    0.1085
    MIXING:  cpu time    0.0043: real time    0.0045
    --------------------------------------------
      LOOP:  cpu time    2.0849: real time    2.1032

 eigenvalue-minimisations  :  6984
 total energy-change (2. order) : 0.3672569E-04  (-0.7268298E-04)
 number of electron      38.9999999 magnetization
 augmentation part        8.1418709 magnetization

 Broyden mixing:
  rms(total) = 0.29047E-02    rms(broyden)= 0.29047E-02
  rms(prec ) = 0.72248E-02
  weight for this iteration     100.00

 eigenvalues of (default mixing * dielectric matrix)
  average eigenvalue GAMMA=   1.2128
  2.6864  2.1741  1.4518  1.4518  0.5277  0.5277  0.9914  0.9914  0.6281  0.6977

 Free energy of the ion-electron system (eV)
  ---------------------------------------------------
  alpha Z        PSCENC =       199.77951123
  Ewald energy   TEWEN  =     -3504.74197696
  -Hartree energ DENC   =      -810.93868330
  -exchange      EXHF   =         0.00000000
  -V(xc)+E(xc)   XCENC  =        89.14410458
  PAW double counting   =      4048.09266089    -3980.02172737
  entropy T*S    EENTRO =        -0.00190297
  eigenvalues    EBANDS =      -160.28527009
  atomic energy  EATOM  =      4095.34623897
  Solvation  Ediel_sol  =         0.00000000
  ---------------------------------------------------
  free energy    TOTEN  =       -23.62704503 eV

  energy without entropy =      -23.62514207  energy(sigma->0) =      -23.62609355


--------------------------------------------------------------------------------------------------------




--------------------------------------- Iteration      1(  16)  ---------------------------------------


    POTLOK:  cpu time    0.0360: real time    0.0540
    SETDIJ:  cpu time    0.0164: real time    0.0165
     EDDAV:  cpu time    1.3557: real time    1.3559
       DOS:  cpu time    0.0032: real time    0.0035
    CHARGE:  cpu time    0.1091: real time    0.1092
    MIXING:  cpu time    0.0047: real time    0.0072
    --------------------------------------------
      LOOP:  cpu time    1.5252: real time    1.5466

 eigenvalue-minimisations  :  4160
 total energy-change (2. order) :-0.4063758E-05  (-0.1635129E-04)
 number of electron      38.9999999 magnetization
 augmentation part        8.1459260 magnetization

 Broyden mixing:
  rms(total) = 0.16906E-02    rms(broyden)= 0.16902E-02
  rms(prec ) = 0.53785E-02
  weight for this iteration     100.00

 eigenvalues of (default mixing * dielectric matrix)
  average eigenvalue GAMMA=   1.2494
  2.5077  2.5077  1.5595  1.5595  0.5277  0.5277  1.1517  1.1517  0.6266  0.8118
  0.8118

 Free energy of the ion-electron system (eV)
  ---------------------------------------------------
  alpha Z        PSCENC =       199.77951123
  Ewald energy   TEWEN  =     -3504.74197696
  -Hartree energ DENC   =      -810.91177410
  -exchange      EXHF   =         0.00000000
  -V(xc)+E(xc)   XCENC  =        89.14318386
  PAW double counting   =      4048.21978537    -3980.15040190
  entropy T*S    EENTRO =        -0.00191020
  eigenvalues    EBANDS =      -160.30970537
  atomic energy  EATOM  =      4095.34623897
  Solvation  Ediel_sol  =         0.00000000
  ---------------------------------------------------
  free energy    TOTEN  =       -23.62704910 eV

  energy without entropy =      -23.62513889  energy(sigma->0) =      -23.62609400


--------------------------------------------------------------------------------------------------------




--------------------------------------- Iteration      1(  17)  ---------------------------------------


    POTLOK:  cpu time    0.0288: real time    0.0515
    SETDIJ:  cpu time    0.0163: real time    0.0164
     EDDAV:  cpu time    1.2248: real time    1.2250
       DOS:  cpu time    0.0032: real time    0.0034
    --------------------------------------------
      LOOP:  cpu time    1.2730: real time    1.2942

 eigenvalue-minimisations  :  3680
 total energy-change (2. order) : 0.3695025E-05  (-0.3135211E-05)
 number of electron      38.9999999 magnetization
 augmentation part        8.1459260 magnetization

 Free energy of the ion-electron system (eV)
  ---------------------------------------------------
  alpha Z        PSCENC =       199.77951123
  Ewald energy   TEWEN  =     -3504.74197696
  -Hartree energ DENC   =      -810.92355530
  -exchange      EXHF   =         0.00000000
  -V(xc)+E(xc)   XCENC  =        89.14388071
  PAW double counting   =      4048.60727429    -3980.53814569
  entropy T*S    EENTRO =        -0.00190649
  eigenvalues    EBANDS =      -160.29836616
  atomic energy  EATOM  =      4095.34623897
  Solvation  Ediel_sol  =         0.00000000
  ---------------------------------------------------
  free energy    TOTEN  =       -23.62704540 eV

  energy without entropy =      -23.62513891  energy(sigma->0) =      -23.62609216


--------------------------------------------------------------------------------------------------------




 average (electrostatic) potential at core
  the test charge radii are     1.0856  1.2059  1.2087
  (the norm of the test charge is              1.0000)
       1-101.5839       2 -65.2666       3 -84.5929



 E-fermi :   9.0927     XC(G=0): -11.1296     alpha+bet :-14.8861


 k-point     1 :       0.0000    0.0000    0.0000
  band No.  band energies     occupation
      1     -35.0913      2.00000
      2     -13.7066      2.00000
      3     -13.7066      2.00000
      4     -13.6821      2.00000
      5     -13.6821      2.00000
      6     -13.6821      2.00000
      7     -10.3217      2.00000
      8     -10.3217      2.00000
      9     -10.3217      2.00000
     10      -3.0230      2.00000
     11       4.7922      2.00000
     12       4.7922      2.00000
     13       4.7922      2.00000
     14       5.1000      2.00000
     15       5.1000      2.00000
     16       7.2613      2.00000
     17       8.0399      2.00000
     18       8.0399      2.00000
     19       8.0399      2.00000
     20       9.1199      0.00012
     21       9.1199      0.00012
     22       9.1199      0.00012
     23       9.1251      0.00000
     24       9.2921      0.00000

 k-point     2 :       0.0769    0.0000   -0.0000
  band No.  band energies     occupation
      1     -35.0911      2.00000
      2     -13.7077      2.00000
      3     -13.7077      2.00000
      4     -13.6823      2.00000
      5     -13.6820      2.00000
      6     -13.6820      2.00000
      7     -10.3320      2.00000
      8     -10.3195      2.00000
      9     -10.3195      2.00000
     10      -2.9672      2.00000
     11       4.6638      2.00000
     12       4.7050      2.00000
     13       4.7050      2.00000
     14       5.1818      2.00000
     15       5.1818      2.00000
     16       7.0148      2.00000
     17       7.9859      2.00000
     18       7.9859      2.00000
     19       8.1941      2.00000
     20       9.0238      2.00000
     21       9.0893      1.37490
     22       9.0893      1.37467
     23       9.2723      0.00000
     24       9.3426      0.00000

 k-point     3 :       0.1538    0.0000   -0.0000
  band No.  band energies     occupation
      1     -35.0907      2.00000
      2     -13.7107      2.00000
      3     -13.7107      2.00000
      4     -13.6828      2.00000
      5     -13.6815      2.00000
      6     -13.6815      2.00000
      7     -10.3598      2.00000
      8     -10.3133      2.00000
      9     -10.3133      2.00000
     10      -2.8109      2.00000
     11       4.3437      2.00000
[...]
  168                map_backward                          0.001225                    8   7
  169                  map_gather                            0.000192                  8   8
  170                  m_alltoallv_z                         0.000605                  8   8
  171                  map_scatter                           0.000151                  8   8
  172          M_sumb_d                              0.006508                          8   4
  173          depsum                                0.002250                          4   4
  174            M_sumb_d                              0.000975                        8   5
  175          fft3d_mpi                             0.004717                          4   4
  176            fftbas_plan_mpi                       0.004425                        4   5
  177              dfftw_execute                         0.001465                     12   6
  178              map_backward                          0.002134                      8   6
  179                map_gather                            0.000428                    4   7
  180                m_alltoallv_z                         0.000966                    4   7
  181                map_scatter                           0.000549                    4   7
  182        forloc                                0.009437                            4   3
  183          M_sumb_d                              0.000265                          4   4
  184        fornl                                 0.182482                            4   3
  185          phase                                 0.003909                         84   4
  186          M_sumb_d                              0.048222                       2024   4
  187        fordep                                0.106489                            4   3
  188          setdij_                               0.105880                         24   4
  189            M_sumb_d                              0.004472                       24   5
  190          M_sumb_d                              0.000114                          4   4
  191        setdij_                               0.345230                           80   3
  192          M_sumb_d                              0.013713                         80   4
  193        set_dd_magatom                        0.000013                            4   3
  194        set_dd_paw                            0.052807                            4   3
  195          set_rsgf_all                          0.000016                          4   4
  196          M_sumb_d                              0.051959                         32   4
  197        strkin                                0.002495                            4   3
  198          M_sumb_d                              0.000586                          4   4
  199        strelo                                0.007560                            4   3
  200          M_sumb_d                              0.000618                          8   4
  201        strenl                                2.977417                            4   3
  202          spher                                 2.204243                         76   4
  203          phase                                 0.037022                        756   4
  204          proj1                                 0.652793                       4536   4
  205            crexp_mul_wave                        0.096837                    13608   5
  206            M_sumb_d                              0.162024                     4536   5
  207          M_sumb_d                              0.015095                          4   4
  208        M_sumb_d                              0.001082                           24   3
  209        fft3d_mpi                             0.050581                           44   3
  210          fftbas_plan_mpi                       0.047088                         44   4
  211            dfftw_execute                         0.016128                      132   5
  212            map_forward                           0.009737                       40   5
  213              map_gather                            0.001742                     20   6
  214              m_alltoallv_z                         0.004539                     20   6
  215              map_scatter                           0.002552                     20   6
  216            map_backward                          0.011718                       48   5
  217              map_gather                            0.002451                     24   6
  218              m_alltoallv_z                         0.005189                     24   6
  219              map_scatter                           0.003028                     24   6
  220        ggaall_grid                           0.005156                            4   3
  221        forhar                                0.018238                            8   3
  222          M_sumb_d                              0.000847                          8   4
  223        strehar                               0.007871                            4   3
  224          M_sumb_d                              0.000465                          4   4
  225        chggra                                0.020584                            4   3
  226          fft3d_mpi                             0.013813                         12   4
  227            fftbas_plan_mpi                       0.012908                       12   5
  228              dfftw_execute                         0.004450                     36   6
  229              map_backward                          0.002014                      8   6
  230                map_gather                            0.000421                    4   7
  231                m_alltoallv_z                         0.000872                    4   7
  232                map_scatter                           0.000538                    4   7
  233              map_forward                           0.003594                     16   6
  234                map_gather                            0.000650                    8   7
  235                m_alltoallv_z                         0.001712                    8   7
  236                map_scatter                           0.000892                    8   7
  237          M_sumb_d                              0.000546                         12   4
  238        brmix                                 0.023799                            4   3
  239          M_sumb_d                              0.000863                         24   4
  240          brpre                                 0.000173                          4   4
  241          setg0                                 0.003258                          4   4
  242          broyd                                 0.006976                          4   4
  243            M_sumb_d                              0.001719                       63   5
  244            brget                                 0.000996                      211   5
  245            brsav                                 0.000293                       56   5
  246          M_bcast_z                             0.009187                          4   4
  247          M_bcast_d                             0.000214                          4   4
  248        M_bcast_d                             0.000236                            8   3
  249      potlok                                0.081140                              4   2
  250        fft3d_mpi                             0.056780                           52   3
  251          fftbas_plan_mpi                       0.052866                         52   4
  252            dfftw_execute                         0.018158                      156   5
  253            map_forward                           0.012301                       56   5
  254              map_gather                            0.002145                     32   6
  255              m_alltoallv_z                         0.005838                     32   6
  256              map_scatter                           0.003055                     32   6
  257            map_backward                          0.011434                       48   5
  258              map_gather                            0.002232                     24   6
  259              m_alltoallv_z                         0.005032                     24   6
  260              map_scatter                           0.003138                     24   6
  261        ggaall_grid                           0.004907                            4   3
  262        M_sumb_d                              0.001071                           24   3
  263        M_bcast_d                             0.000352                            4   3
  264      potlok_metagga                        0.000016                              4   2
  265      set_dd_magatom                        0.000013                              4   2
  266      set_dd_paw                            0.001859                              4   2
  267        set_rsgf_all                          0.000016                            4   3
  268        M_sumb_d                              0.001160                           32   3
  269      densta                                0.002415                              1   2
  270        M_sumb_d                              0.000871                           40   3
  271      lprj_proall                           0.000007                              1   2

 Flat profile
 ============

             routine name                   CPU           calls
 ---------------------------------------------------------------
 eddav                                  14.789412          43
 total_time                             10.921133           1
 dfftw_execute                          10.340902      141288
 fftbas_plan_mpi                         8.785642       47098
 M_sumb_d                                7.075970      129542
 m_alltoallv_z                           4.183227       47178
 pdssyex_zheevx                          3.988419         903
 elmin                                   3.372528           4
 M_alltoall_d                            3.002657      154952
 spher                                   2.379150          80
 orth1                                   2.306742       31587
 proj1                                   2.197361       20624
 gemm                                    1.791307       63006
 vhamil                                  1.553348       21002
 map_forward                             1.439942       51460
 fftwav_mpi                              1.427485       25397
 vnlac0                                  1.385945       21002
 redis_pw                                1.236844       59562
 set_charge                              1.177869          39
 redis_proj                              1.140645       75230
 map_gather                              1.104191       47178
 hamiltmu                                1.075270       10501
 map_scatter                             1.041665       47178
 M_bcast_z                               0.852377       13112
 w1_copy                                 0.778315       63006
 map_backward                            0.742390       42732
 work_mul_crexp                          0.632524       63006
 setdij_                                 0.616409         148
 fft3d_mpi                               0.614879       47096
 fftext_mpi                              0.602625       21002
 crexp_mul_wave                          0.495624       61872
 overl                                   0.414469       36670
 kinhamil                                0.396879       21002
 eccp                                    0.361115        5418
 M_bcast_d                               0.339164       10608
 overl1                                  0.249670       21002
 crpa_reader                             0.241409           1
 apply_precond                           0.203245       15584
 potlok                                  0.202761          43
 pw_charge                               0.186471        4395
 w1_projall                              0.164646        7792
 setup_precond                           0.155427        5418
 lincom                                  0.143599         987
 fornl                                   0.130351           4
 force_and_stress                        0.104727           4
 soft_charge                             0.098110          39
 phase                                   0.089973        1831
 truncate_high_frequency_w1              0.089876       26420
 densta                                  0.072610          44
 strenl                                  0.068263           4
 ggaall_grid                             0.058716          47
 brmix                                   0.037396          39
 setg0                                   0.032838          43
 broyd                                   0.027194          39
 forhar                                  0.017391           8
 depsum                                  0.012624          39
 set_dd_paw                              0.009250          47
 forloc                                  0.009172           4
 orthch                                  0.008072           4
 strehar                                 0.007407           4
 strelo                                  0.006942           4
 chggra                                  0.006226           4
 choleski                                0.006185          84
 brget                                   0.005835        1242
 proj                                    0.005370          84
 brsav                                   0.002362         383
 strkin                                  0.001909           4
 brpre                                   0.001787          39
 brgrid                                  0.001027           1
 fordep                                  0.000495           4
 set_rsgf_all                            0.000211          47
 vectorpot                               0.000175          40
 set_dd_magatom                          0.000158          47
 potlok_metagga                          0.000155          43
 set_kineden                             0.000130          35
 rotate_active_occupied_orbital          0.000029           4
 redis_pw_over_bands                     0.000013           4
 lprj_proall                             0.000007           1
 ---------------------------------------------------------------
  summed up times    97.0246369838715

 Accumulative profile
 ====================

             routine name                   CPU           calls
 ---------------------------------------------------------------
 total_time                             97.024637           1
 elmin                                  80.688817           4
 eddav                                  71.782327          43
 fft3d_mpi                              28.216557       47096
 fftbas_plan_mpi                        27.637959       47098
 hamiltmu                               21.459449       10501
 fftwav_mpi                             16.313931       25397
 kinhamil                               13.519446       21002
 fftext_mpi                             13.122567       21002
 dfftw_execute                          10.340902      141288
 M_sumb_d                                7.075970      129542
 vnlac0                                  5.061713       21002
 map_forward                             4.733285       51460
 force_and_stress                        4.359723           4
 set_charge                              4.266780          39
 m_alltoallv_z                           4.183227       47178
 pdssyex_zheevx                          3.988419         903
 map_backward                            3.778129       42732
 proj1                                   3.755293       20624
 w1_projall                              3.194270        7792
 M_alltoall_d                            3.002657      154952
 strenl                                  2.977417           4
 soft_charge                             2.948619          39
 redis_pw                                2.885517       59562
 redis_proj                              2.494628       75230
 spher                                   2.379150          80
 orth1                                   2.306742       31587
 gemm                                    1.791307       63006
 vhamil                                  1.553348       21002
 map_gather                              1.104191       47178
 map_scatter                             1.041665       47178
 potlok                                  0.901532          43
 M_bcast_z                               0.852377       13112
 w1_copy                                 0.778315       63006
 setdij_                                 0.645705         148
 eccp                                    0.641350        5418
 work_mul_crexp                          0.632524       63006
 set_dd_paw                              0.522276          47
 crexp_mul_wave                          0.495624       61872
 overl                                   0.414469       36670
 M_bcast_d                               0.339164       10608
 setup_precond                           0.282819        5418
 overl1                                  0.249670       21002
 crpa_reader                             0.241409           1
 apply_precond                           0.203245       15584
 pw_charge                               0.186471        4395
 fornl                                   0.182482           4
 brmix                                   0.155706          39
 lincom                                  0.143599         987
 densta                                  0.107601          44
 fordep                                  0.106489           4
 orthch                                  0.100597           4
 phase                                   0.089973        1831
 truncate_high_frequency_w1              0.089876       26420
 proj                                    0.078246          84
 ggaall_grid                             0.058716          47
 broyd                                   0.047245          39
 setg0                                   0.032838          43
 depsum                                  0.028548          39
 chggra                                  0.020584           4
 forhar                                  0.018238           8
 forloc                                  0.009437           4
 strehar                                 0.007871           4
 strelo                                  0.007560           4
 choleski                                0.006185          84
 brget                                   0.005835        1242
 strkin                                  0.002495           4
 brsav                                   0.002362         383
 brpre                                   0.001787          39
 brgrid                                  0.001027           1
 set_rsgf_all                            0.000211          47
 vectorpot                               0.000175          40
 set_dd_magatom                          0.000158          47
 potlok_metagga                          0.000155          43
 set_kineden                             0.000130          35
 rotate_active_occupied_orbital          0.000029           4
 redis_pw_over_bands                     0.000013           4
 lprj_proall                             0.000007           1
 ---------------------------------------------------------------

Profiling took   3.596314  4.443019  0.006407  0.005254 seconds
Profiling took   3.442413 seconds
