 ----------------------------------------------------
    OOO  PPPP  EEEEE N   N M   M PPPP
   O   O P   P E     NN  N MM MM P   P
   O   O PPPP  EEEEE N N N M M M PPPP   -- VERSION
   O   O P     E     N  NN M   M P
    OOO  P     EEEEE N   N M   M P
 ----------------------------------------------------
 running   64 mpi-ranks, with    1 threads/rank
 distrk:  each k-point on   16 cores,    4 groups
 distr:  one band on    4 cores,    4 groups
 using from now: INCAR
 vasp.6.0.8 29Jun18 (build Jun 13 2019 12:54:44) complex

 POSCAR found type information on POSCAR  Bi Pt U
 POSCAR found :  3 types and       3 ions
 scaLAPACK will be used

 -----------------------------------------------------------------------------
|                                                                             |
|  ADVICE TO THIS USER RUNNING 'VASP/VAMP'   (HEAR YOUR MASTER'S VOICE ...):  |
|                                                                             |
|      You enforced a specific xc-type in the INCAR file,                     |
|      a different type was found on the POTCAR file                          |
|          I HOPE YOU KNOW, WHAT YOU ARE  DOING                               |
|                                                                             |
 -----------------------------------------------------------------------------

 LDA part: xc-table for Pade appr. of Perdew
 POSCAR, INCAR and KPOINTS ok, starting setup
 FFT: planning ...
 WAVECAR not read
 entering main loop
       N       E                     dE             d eps       ncg     rms          rms(c)
 ELPA: falling back to scaLAPACK
 ELPA: falling back to scaLAPACK
 ELPA: falling back to scaLAPACK
 ELPA: falling back to scaLAPACK
DAV:   1     0.394422708317E+03    0.39442E+03   -0.18796E+04  4032   0.184E+03
DAV:   2     0.250450228006E+02   -0.36938E+03   -0.36274E+03  4472   0.447E+02
DAV:   3    -0.210703942888E+02   -0.46115E+02   -0.45050E+02  5168   0.164E+02
DAV:   4    -0.257083666798E+02   -0.46380E+01   -0.46186E+01  7504   0.423E+01
DAV:   5    -0.258790253612E+02   -0.17066E+00   -0.17046E+00  5784   0.674E+00    0.146E+01
DAV:   6    -0.348597673892E+02   -0.89807E+01   -0.22382E+02  6048   0.925E+01    0.220E+01
DAV:   7    -0.248539515431E+02    0.10006E+02   -0.27071E+01  5816   0.280E+01    0.110E+01
DAV:   8    -0.245898148350E+02    0.26414E+00   -0.39526E+01  5952   0.240E+01    0.930E+00
DAV:   9    -0.236061603677E+02    0.98365E+00   -0.10275E+01  6280   0.183E+01    0.161E+00
DAV:  10    -0.237058309250E+02   -0.99671E-01   -0.12305E+00  6440   0.456E+00    0.240E+00
DAV:  11    -0.236254225539E+02    0.80408E-01   -0.60703E-01  5968   0.357E+00    0.360E-01
DAV:  12    -0.236281193799E+02   -0.26968E-02   -0.40596E-02  7240   0.839E-01    0.418E-01
DAV:  13    -0.236287078989E+02   -0.58852E-03   -0.27557E-03  6384   0.221E-01    0.382E-01
DAV:  14    -0.236270817598E+02    0.16261E-02   -0.18728E-02  6040   0.625E-01    0.825E-02
DAV:  15    -0.236270450341E+02    0.36726E-04   -0.72683E-04  6984   0.150E-01    0.290E-02
DAV:  16    -0.236270490979E+02   -0.40638E-05   -0.16351E-04  4160   0.500E-02    0.169E-02
DAV:  17    -0.236270454029E+02    0.36950E-05   -0.31352E-05  3680   0.354E-02
   1 F= -.23627045E+02 E0= -.23626092E+02  d E =-.236270E+02
 curvature:   0.00 expect dE= 0.000E+00 dE for cont linesearch  0.000E+00
 trial: gam= 0.00000 g(F)=  0.000E+00 g(S)=  0.133E+00 ort = 0.000E+00 (trialstep = 0.100E+01)
 search vector abs. value=  0.133E+00
 bond charge predicted
       N       E                     dE             d eps       ncg     rms          rms(c)
DAV:   1    -0.246935257518E+02   -0.10665E+01   -0.19227E+01  5184   0.440E+01    0.727E+00
DAV:   2    -0.254217633628E+02   -0.72824E+00   -0.31067E+01  5784   0.276E+01    0.124E+01
DAV:   3    -0.237630124352E+02    0.16588E+01   -0.23087E+01  6424   0.276E+01    0.208E+00
DAV:   4    -0.237359397802E+02    0.27073E-01   -0.87149E-01  5456   0.609E+00    0.103E+00
DAV:   5    -0.237288264536E+02    0.71133E-02   -0.22319E-01  7752   0.274E+00    0.481E-01
DAV:   6    -0.237298751573E+02   -0.10487E-02   -0.87649E-03  6208   0.508E-01    0.379E-01
DAV:   7    -0.237308408360E+02   -0.96568E-03   -0.26517E-03  7504   0.284E-01    0.234E-01
DAV:   8    -0.237308054175E+02    0.35418E-04   -0.36218E-03  6944   0.305E-01    0.277E-02
DAV:   9    -0.237308236955E+02   -0.18278E-04   -0.13988E-04  4856   0.570E-02    0.192E-02
DAV:  10    -0.237308225934E+02    0.11021E-05   -0.19962E-05  3832   0.267E-02
   2 F= -.23730823E+02 E0= -.23729943E+02  d E =-.103777E+00
 trial-energy change:   -0.103777  1 .order   -0.102775   -0.132668   -0.072883
 step:   2.0138(harm=  2.2191)  dis= 0.00000  next Energy=   -23.768810 (dE=-0.142E+00)
 bond charge predicted
       N       E                     dE             d eps       ncg     rms          rms(c)
DAV:   1    -0.247397191774E+02   -0.10089E+01   -0.19817E+01  5120   0.453E+01    0.726E+00
DAV:   2    -0.251917872978E+02   -0.45207E+00   -0.27339E+01  5696   0.273E+01    0.108E+01
DAV:   3    -0.238112020785E+02    0.13806E+01   -0.18651E+01  6336   0.257E+01    0.206E+00
DAV:   4    -0.237733171364E+02    0.37885E-01   -0.75010E-01  5536   0.590E+00    0.905E-01
DAV:   5    -0.237692467998E+02    0.40703E-02   -0.19066E-01  7752   0.262E+00    0.494E-01
DAV:   6    -0.237699695758E+02   -0.72278E-03   -0.76352E-03  6048   0.496E-01    0.379E-01
DAV:   7    -0.237709126030E+02   -0.94303E-03   -0.30755E-03  7488   0.333E-01    0.209E-01
DAV:   8    -0.237708318066E+02    0.80796E-04   -0.33255E-03  6944   0.294E-01    0.301E-02
DAV:   9    -0.237708487315E+02   -0.16925E-04   -0.10313E-04  4768   0.571E-02    0.265E-02
DAV:  10    -0.237708446434E+02    0.40882E-05   -0.25306E-05  3792   0.338E-02
   3 F= -.23770845E+02 E0= -.23770015E+02  d E =-.143799E+00
 curvature:  -1.08 expect dE=-0.106E-03 dE for cont linesearch -0.106E-03
 ZBRENT: extrapolating
 opt :   2.0668  next Energy=   -23.770940 (dE=-0.144E+00)
 bond charge predicted
       N       E                     dE             d eps       ncg     rms          rms(c)
DAV:   1    -0.237737274735E+02   -0.28787E-02   -0.55655E-02  5072   0.246E+00    0.405E-01
DAV:   2    -0.237765574174E+02   -0.28299E-02   -0.10175E-01  5960   0.165E+00    0.646E-01
DAV:   3    -0.237709132516E+02    0.56442E-02   -0.56061E-02  5712   0.117E+00    0.786E-02
DAV:   4    -0.237709275197E+02   -0.14268E-04   -0.18469E-03  5336   0.287E-01    0.362E-02
DAV:   5    -0.237709284695E+02   -0.94974E-06   -0.27005E-04  7416   0.116E-01    0.137E-02
DAV:   6    -0.237709320657E+02   -0.35962E-05   -0.13160E-05  3512   0.210E-02
   4 F= -.23770932E+02 E0= -.23770105E+02  d E =-.143887E+00
 curvature:  -0.97 expect dE=-0.124E-05 dE for cont linesearch -0.124E-05
 trial: gam=-0.00310 g(F)=  0.000E+00 g(S)=  0.128E-05 ort = 0.412E-03 (trialstep = 0.121E+01)
 search vector abs. value=  0.112E-09
 reached required accuracy - stopping structural energy minimisation
