<?xml version="1.0" encoding="ISO-8859-1"?>
<modeling>
 <generator>
  <i name="program" type="string">vasp </i>
  <i name="version" type="string">6.0.8  </i>
  <i name="subversion" type="string">29Jun18 (build Jun 13 2019 12:54:44) complex                          parallel </i>
  <i name="platform" type="string">IFC18_CrayMPICH </i>
  <i name="date" type="string">2021 11 11 </i>
  <i name="time" type="string">15:47:52 </i>
 </generator>
 <incar>
  <i type="int" name="KPAR">     4</i>
  <i type="int" name="NPAR">     4</i>
  <i type="int" name="ISTART">     0</i>
  <i type="string" name="PREC"> ACC</i>
  <i type="string" name="ALGO"> Normal</i>
  <i type="int" name="ISPIN">     1</i>
  <i type="int" name="NELMIN">     5</i>
  <i type="int" name="IBRION">     2</i>
  <i name="EDIFF">      0.00001000</i>
  <i type="int" name="NSW">    60</i>
  <i type="int" name="ISIF">     7</i>
  <i name="ENCUT">    520.00000000</i>
  <i name="POTIM">      0.10000000</i>
  <i type="logical" name="LREAL"> F  </i>
  <i type="int" name="ISMEAR">     0</i>
  <i name="SIGMA">      0.01000000</i>
  <i type="logical" name="LWAVE"> F  </i>
  <i type="logical" name="LCHARG"> F  </i>
  <i type="logical" name="LVTOT"> F  </i>
  <i type="string" name="ALGO"> Normal</i>
  <i type="string" name="GGA"> PS</i>
  <i name="EDIFF">      0.00001000</i>
  <i type="int" name="ISPIN">     1</i>
 </incar>
 <structure name="primitive_cell" >
  <crystal>
   <varray name="basis" >
    <v>       0.00000000       3.40148000       3.40148000 </v>
    <v>       3.40148000       0.00000000       3.40148000 </v>
    <v>       3.40148000       3.40148000       0.00000000 </v>
   </varray>
   <i name="volume">     78.71069749 </i>
   <varray name="rec_basis" >
    <v>      -0.14699484       0.14699484       0.14699484 </v>
    <v>       0.14699484      -0.14699484       0.14699484 </v>
    <v>       0.14699484       0.14699484      -0.14699484 </v>
   </varray>
  </crystal>
  <varray name="positions" >
   <v>       0.25000000       0.25000000       0.25000000 </v>
   <v>       0.00000000       0.00000000       0.00000000 </v>
   <v>       0.75000000       0.75000000       0.75000000 </v>
  </varray>
 </structure>
 <varray name="primitive_index" >
  <v type="int" >        1 </v>
  <v type="int" >        2 </v>
  <v type="int" >        3 </v>
 </varray>
 <kpoints>
  <generation param="Gamma">
   <v type="int" name="divisions">      13       13       13 </v>
   <v name="usershift">      0.00000000       0.00000000       0.00000000 </v>
   <v name="genvec1">      0.07692308      -0.00000000       0.00000000 </v>
   <v name="genvec2">     -0.00000000       0.07692308      -0.00000000 </v>
   <v name="genvec3">      0.00000000       0.00000000       0.07692308 </v>
   <v name="shift">      0.00000000       0.00000000       0.00000000 </v>
  </generation>
  <varray name="kpointlist" >
   <v>       0.00000000       0.00000000       0.00000000 </v>
   <v>       0.07692308       0.00000000      -0.00000000 </v>
   <v>       0.15384615       0.00000000      -0.00000000 </v>
   <v>       0.23076923      -0.00000000       0.00000000 </v>
   <v>       0.30769231       0.00000000      -0.00000000 </v>
   <v>       0.38461538      -0.00000000       0.00000000 </v>
   <v>       0.46153846      -0.00000000       0.00000000 </v>
   <v>       0.07692308       0.07692308       0.00000000 </v>
   <v>       0.15384615       0.07692308      -0.00000000 </v>
   <v>       0.23076923       0.07692308      -0.00000000 </v>
   <v>       0.30769231       0.07692308      -0.00000000 </v>
   <v>       0.38461538       0.07692308      -0.00000000 </v>
   <v>       0.46153846       0.07692308      -0.00000000 </v>
   <v>      -0.46153846       0.07692308      -0.00000000 </v>
   <v>      -0.38461538       0.07692308       0.00000000 </v>
   <v>      -0.30769231       0.07692308      -0.00000000 </v>
   <v>      -0.23076923       0.07692308      -0.00000000 </v>
   <v>      -0.15384615       0.07692308      -0.00000000 </v>
   <v>      -0.07692308       0.07692308       0.00000000 </v>
   <v>       0.15384615       0.15384615       0.00000000 </v>
   <v>       0.23076923       0.15384615       0.00000000 </v>
   <v>       0.30769231       0.15384615      -0.00000000 </v>
   <v>       0.38461538       0.15384615       0.00000000 </v>
   <v>       0.46153846       0.15384615      -0.00000000 </v>
   <v>      -0.46153846       0.15384615       0.00000000 </v>
   <v>      -0.38461538       0.15384615      -0.00000000 </v>
   <v>      -0.30769231       0.15384615       0.00000000 </v>
   <v>      -0.23076923       0.15384615      -0.00000000 </v>
   <v>      -0.15384615       0.15384615       0.00000000 </v>
   <v>       0.23076923       0.23076923       0.00000000 </v>
   <v>       0.30769231       0.23076923       0.00000000 </v>
   <v>       0.38461538       0.23076923      -0.00000000 </v>
   <v>       0.46153846       0.23076923       0.00000000 </v>
   <v>      -0.46153846       0.23076923      -0.00000000 </v>
   <v>      -0.38461538       0.23076923       0.00000000 </v>
   <v>      -0.30769231       0.23076923       0.00000000 </v>
   <v>      -0.23076923       0.23076923      -0.00000000 </v>
   <v>       0.30769231       0.30769231       0.00000000 </v>
   <v>       0.38461538       0.30769231       0.00000000 </v>
   <v>       0.46153846       0.30769231      -0.00000000 </v>
   <v>      -0.46153846       0.30769231      -0.00000000 </v>
   <v>      -0.38461538       0.30769231      -0.00000000 </v>
   <v>      -0.30769231       0.30769231       0.00000000 </v>
   <v>       0.38461538       0.38461538       0.00000000 </v>
   <v>       0.46153846       0.38461538       0.00000000 </v>
   <v>      -0.46153846       0.38461538       0.00000000 </v>
   <v>      -0.38461538       0.38461538      -0.00000000 </v>
   <v>       0.46153846       0.46153846       0.00000000 </v>
   <v>      -0.46153846       0.46153846      -0.00000000 </v>
   <v>       0.23076923       0.15384615       0.07692308 </v>
   <v>       0.30769231       0.15384615       0.07692308 </v>
   <v>       0.38461538       0.15384615       0.07692308 </v>
   <v>       0.46153846       0.15384615       0.07692308 </v>
   <v>      -0.46153846       0.15384615       0.07692308 </v>
   <v>       0.30769231       0.23076923       0.07692308 </v>
   <v>       0.38461538       0.23076923       0.07692308 </v>
   <v>       0.46153846       0.23076923       0.07692308 </v>
   <v>      -0.46153846       0.23076923       0.07692308 </v>
   <v>      -0.38461538       0.23076923       0.07692308 </v>
   <v>      -0.30769231       0.23076923       0.07692308 </v>
   <v>      -0.23076923       0.23076923       0.07692308 </v>
   <v>      -0.15384615       0.23076923       0.07692308 </v>
   <v>       0.38461538       0.30769231       0.07692308 </v>
   <v>       0.46153846       0.30769231       0.07692308 </v>
   <v>      -0.46153846       0.30769231       0.07692308 </v>
   <v>      -0.38461538       0.30769231       0.07692308 </v>
   <v>      -0.30769231       0.30769231       0.07692308 </v>
   <v>      -0.23076923       0.30769231       0.07692308 </v>
   <v>       0.46153846       0.38461538       0.07692308 </v>
   <v>      -0.46153846       0.38461538       0.07692308 </v>
   <v>      -0.38461538       0.38461538       0.07692308 </v>
   <v>      -0.30769231       0.38461538       0.07692308 </v>
   <v>      -0.46153846       0.46153846       0.07692308 </v>
   <v>      -0.38461538       0.46153846       0.07692308 </v>
   <v>       0.46153846       0.30769231       0.15384615 </v>
   <v>      -0.46153846       0.30769231       0.15384615 </v>
   <v>      -0.38461538       0.30769231       0.15384615 </v>
   <v>      -0.46153846       0.38461538       0.15384615 </v>
   <v>      -0.38461538       0.38461538       0.15384615 </v>
   <v>      -0.30769231       0.38461538       0.15384615 </v>
   <v>      -0.23076923       0.38461538       0.15384615 </v>
   <v>      -0.38461538       0.46153846       0.15384615 </v>
   <v>      -0.30769231       0.46153846       0.15384615 </v>
   <v>      -0.30769231       0.46153846       0.23076923 </v>
  </varray>
  <varray name="weights" >
   <v>       0.00045517 </v>
   <v>       0.00364133 </v>
   <v>       0.00364133 </v>
   <v>       0.00364133 </v>
   <v>       0.00364133 </v>
   <v>       0.00364133 </v>
   <v>       0.00364133 </v>
   <v>       0.00273100 </v>
   <v>       0.01092399 </v>
   <v>       0.01092399 </v>
   <v>       0.01092399 </v>
   <v>       0.01092399 </v>
   <v>       0.01092399 </v>
   <v>       0.01092399 </v>
   <v>       0.01092399 </v>
   <v>       0.01092399 </v>
   <v>       0.01092399 </v>
   <v>       0.01092399 </v>
   <v>       0.00546199 </v>
   <v>       0.00273100 </v>
   <v>       0.01092399 </v>
   <v>       0.01092399 </v>
   <v>       0.01092399 </v>
   <v>       0.01092399 </v>
   <v>       0.01092399 </v>
   <v>       0.01092399 </v>
   <v>       0.01092399 </v>
   <v>       0.01092399 </v>
   <v>       0.00546199 </v>
   <v>       0.00273100 </v>
   <v>       0.01092399 </v>
   <v>       0.01092399 </v>
   <v>       0.01092399 </v>
   <v>       0.01092399 </v>
   <v>       0.01092399 </v>
   <v>       0.01092399 </v>
   <v>       0.00546199 </v>
   <v>       0.00273100 </v>
   <v>       0.01092399 </v>
   <v>       0.01092399 </v>
   <v>       0.01092399 </v>
   <v>       0.01092399 </v>
   <v>       0.00546199 </v>
   <v>       0.00273100 </v>
   <v>       0.01092399 </v>
   <v>       0.01092399 </v>
   <v>       0.00546199 </v>
   <v>       0.00273100 </v>
   <v>       0.00546199 </v>
   <v>       0.01092399 </v>
   <v>       0.02184797 </v>
   <v>       0.02184797 </v>
   <v>       0.02184797 </v>
   <v>       0.02184797 </v>
   <v>       0.01092399 </v>
   <v>       0.02184797 </v>
   <v>       0.02184797 </v>
   <v>       0.02184797 </v>
   <v>       0.02184797 </v>
   <v>       0.02184797 </v>
   <v>       0.02184797 </v>
   <v>       0.01092399 </v>
   <v>       0.01092399 </v>
   <v>       0.02184797 </v>
   <v>       0.02184797 </v>
   <v>       0.02184797 </v>
   <v>       0.02184797 </v>
   <v>       0.01092399 </v>
   <v>       0.01092399 </v>
   <v>       0.02184797 </v>
   <v>       0.02184797 </v>
   <v>       0.01092399 </v>
   <v>       0.01092399 </v>
   <v>       0.01092399 </v>
   <v>       0.01092399 </v>
   <v>       0.02184797 </v>
   <v>       0.02184797 </v>
   <v>       0.01092399 </v>
   <v>       0.02184797 </v>
   <v>       0.02184797 </v>
   <v>       0.01092399 </v>
   <v>       0.01092399 </v>
   <v>       0.01092399 </v>
   <v>       0.01092399 </v>
  </varray>
 </kpoints>
 <parameters>
  <separator name="general" >
   <i type="string" name="SYSTEM">unknown system</i>
   <i type="logical" name="LCOMPAT"> F  </i>
  </separator>
  <separator name="electronic" >
   <i type="string" name="PREC">acc</i>
   <i name="ENMAX">    520.00000000</i>
   <i name="ENAUG">    526.41000000</i>
   <i name="EDIFF">      0.00001000</i>
   <i type="int" name="IALGO">    38</i>
   <i type="int" name="IWAVPR">    11</i>
   <i type="int" name="NBANDS">    24</i>
   <i type="int" name="NBANDSLOW">    -1</i>
   <i type="int" name="NBANDSHIGH">    -1</i>
   <i name="NELECT">     39.00000000</i>
   <i type="int" name="TURBO">     0</i>
   <i type="int" name="IRESTART">     0</i>
   <i type="int" name="NREBOOT">     0</i>
   <i type="int" name="NMIN">     0</i>
   <i name="EREF">      0.00000000</i>
   <separator name="electronic smearing" >
    <i type="int" name="ISMEAR">     0</i>
    <i name="SIGMA">      0.01000000</i>
    <i name="KSPACING">      0.50000000</i>
    <i type="logical" name="KGAMMA"> T  </i>
    <i type="logical" name="KBLOWUP"> T  </i>
   </separator>
   <separator name="electronic projectors" >
    <i type="logical" name="LREAL"> F  </i>
    <v name="ROPT">      0.00000000      0.00000000      0.00000000</v>
    <i type="int" name="LMAXPAW">  -100</i>
    <i type="int" name="LMAXMIX">     2</i>
    <i type="logical" name="NLSPLINE"> F  </i>
   </separator>
   <separator name="electronic startup" >
    <i type="int" name="ISTART">     0</i>
    <i type="int" name="ICHARG">     2</i>
    <i type="int" name="INIWAV">     1</i>
   </separator>
   <separator name="electronic spin" >
    <i type="int" name="ISPIN">     1</i>
    <i type="logical" name="LNONCOLLINEAR"> F  </i>
    <v name="MAGMOM">      1.00000000      1.00000000      1.00000000</v>
    <i name="NUPDOWN">     -1.00000000</i>
    <i type="logical" name="LSORBIT"> F  </i>
    <v name="SAXIS">      0.00000000      0.00000000      1.00000000</v>
    <i type="logical" name="LSPIRAL"> F  </i>
    <v name="QSPIRAL">      0.00000000      0.00000000      0.00000000</v>
    <i type="logical" name="LZEROZ"> F  </i>
   </separator>
   <separator name="electronic exchange-correlation" >
    <i type="logical" name="LASPH"> F  </i>
    <i type="logical" name="LMETAGGA"> F  </i>
   </separator>
   <separator name="electronic convergence" >
    <i type="int" name="NELM">    60</i>
    <i type="int" name="NELMDL">    -5</i>
    <i type="int" name="NELMIN">     5</i>
    <i name="ENINI">    520.00000000</i>
    <separator name="electronic convergence detail" >
     <i type="logical" name="LDIAG"> T  </i>
     <i type="logical" name="LSUBROT"> F  </i>
     <i name="WEIMIN">      0.00100000</i>
     <i name="EBREAK">      0.00000010</i>
     <i name="DEPER">      0.30000000</i>
     <i type="int" name="NRMM">     4</i>
     <i name="TIME">      0.40000000</i>
    </separator>
   </separator>
   <separator name="electronic mixer" >
    <i name="AMIX">      0.40000000</i>
    <i name="BMIX">      1.00000000</i>
    <i name="AMIN">      0.10000000</i>
    <i name="AMIX_MAG">      1.60000000</i>
    <i name="BMIX_MAG">      1.00000000</i>
    <separator name="electronic mixer details" >
     <i type="int" name="IMIX">     4</i>
     <i type="logical" name="MIXFIRST"> F  </i>
     <i type="int" name="MAXMIX">   -45</i>
     <i name="WC">    100.00000000</i>
     <i type="int" name="INIMIX">     1</i>
     <i type="int" name="MIXPRE">     1</i>
     <i type="int" name="MREMOVE">     5</i>
    </separator>
   </separator>
   <separator name="electronic dipolcorrection" >
    <i type="logical" name="LDIPOL"> F  </i>
    <i type="logical" name="LMONO"> F  </i>
    <i type="int" name="IDIPOL">     0</i>
    <i name="EPSILON">      1.00000000</i>
    <v name="DIPOL">   -100.00000000   -100.00000000   -100.00000000</v>
    <i name="EFIELD">      0.00000000</i>
   </separator>
  </separator>
  <separator name="grids" >
   <i type="int" name="NGX">    36</i>
   <i type="int" name="NGY">    36</i>
   <i type="int" name="NGZ">    36</i>
   <i type="int" name="NGXF">    72</i>
   <i type="int" name="NGYF">    72</i>
   <i type="int" name="NGZF">    72</i>
   <i type="logical" name="ADDGRID"> F  </i>
  </separator>
  <separator name="ionic" >
   <i type="int" name="NSW">    60</i>
   <i type="int" name="IBRION">     2</i>
   <i type="int" name="MDALGO">     0</i>
   <i type="int" name="ISIF">     7</i>
   <i name="PSTRESS">      0.00000000</i>
   <i name="EDIFFG">      0.00010000</i>
   <i type="int" name="NFREE">     1</i>
   <i name="POTIM">      0.10000000</i>
   <i name="SMASS">     -3.00000000</i>
   <i name="SCALEE">      1.00000000</i>
  </separator>
  <separator name="ionic md" >
   <i name="TEBEG">      0.00010000</i>
   <i name="TEEND">      0.00010000</i>
   <i type="int" name="NBLOCK">     1</i>
   <i type="int" name="KBLOCK">    60</i>
   <i type="int" name="NPACO">   256</i>
   <i name="APACO">     16.00000000</i>
  </separator>
  <separator name="symmetry" >
   <i type="int" name="ISYM">     2</i>
   <i name="SYMPREC">      0.00001000</i>
  </separator>
  <separator name="dos" >
   <i type="int" name="LORBIT">     0</i>
   <v name="RWIGS">     -1.00000000     -1.00000000     -1.00000000</v>
   <i type="int" name="NEDOS">   301</i>
   <i name="EMIN">     10.00000000</i>
   <i name="EMAX">    -10.00000000</i>
   <i name="EFERMI">      0.00000000</i>
  </separator>
  <separator name="writing" >
   <i type="int" name="NWRITE">     2</i>
   <i type="logical" name="LWAVE"> F  </i>
   <i type="logical" name="LDOWNSAMPLE"> F  </i>
   <i type="logical" name="LCHARG"> F  </i>
   <i type="logical" name="LPARD"> F  </i>
   <i type="logical" name="LVTOT"> F  </i>
   <i type="logical" name="LVHAR"> F  </i>
   <i type="logical" name="LELF"> F  </i>
   <i type="logical" name="LOPTICS"> F  </i>
   <v name="STM">      0.00000000      0.00000000      0.00000000      0.00000000      0.00000000      0.00000000      0.00000000</v>
  </separator>
  <separator name="performance" >
   <i type="int" name="NPAR">     4</i>
   <i type="int" name="NSIM">     4</i>
   <i type="int" name="NBLK">    -1</i>
   <i type="logical" name="LPLANE"> T  </i>
   <i type="logical" name="LSCALAPACK"> T  </i>
   <i type="logical" name="LSCAAWARE"> F  </i>
   <i type="logical" name="LSCALU"> F  </i>
   <i type="logical" name="LASYNC"> F  </i>
   <i type="logical" name="LORBITALREAL"> F  </i>
  </separator>
  <separator name="miscellaneous" >
   <i type="int" name="IDIOT">     3</i>
   <i type="int" name="PHON_NSTRUCT">    -1</i>
   <i type="logical" name="LMUSIC"> F  </i>
   <v name="POMASS">    208.98000000    195.08000000    238.02900000</v>
   <v name="DARWINR">      0.00000000      0.00000000      0.00000000</v>
   <v name="DARWINV">      1.00000000      1.00000000      1.00000000</v>
   <i type="logical" name="LCORR"> T  </i>
  </separator>
  <i type="logical" name="GGA_COMPAT"> T  </i>
  <i type="logical" name="LBERRY"> F  </i>
  <i type="int" name="ICORELEVEL">     0</i>
  <i type="logical" name="LDAU"> F  </i>
  <i type="int" name="I_CONSTRAINED_M">     0</i>
  <separator name="electronic exchange-correlation" >
   <i type="string" name="GGA">PS</i>
   <i type="int" name="VOSKOWN">     0</i>
   <i type="logical" name="LHFCALC"> F  </i>
   <i type="string" name="PRECFOCK"></i>
   <i type="logical" name="LSYMGRAD"> F  </i>
   <i type="logical" name="LHFONE"> F  </i>
   <i type="logical" name="LRHFCALC"> F  </i>
   <i type="logical" name="LTHOMAS"> F  </i>
   <i type="logical" name="LMODELHF"> F  </i>
   <i type="logical" name="LFOCKACE"> F  </i>
   <i name="ENCUT4O">     -1.00000000</i>
   <i type="int" name="EXXOEP">     0</i>
   <i type="int" name="FOURORBIT">     0</i>
   <i name="AEXX">      0.00000000</i>
   <i name="HFALPHA">      0.00000000</i>
   <i name="MCALPHA">      0.00000000</i>
   <i name="ALDAX">      1.00000000</i>
   <i name="AGGAX">      1.00000000</i>
   <i name="ALDAC">      1.00000000</i>
   <i name="AGGAC">      1.00000000</i>
   <i type="int" name="NKREDX">     1</i>
   <i type="int" name="NKREDY">     1</i>
   <i type="int" name="NKREDZ">     1</i>
   <i type="logical" name="SHIFTRED"> F  </i>
   <i type="logical" name="ODDONLY"> F  </i>
   <i type="logical" name="EVENONLY"> F  </i>
   <i type="int" name="LMAXFOCK">     0</i>
   <i type="int" name="NMAXFOCKAE">     0</i>
   <i type="logical" name="LFOCKAEDFT"> F  </i>
   <i name="HFSCREEN">      0.00000000</i>
   <i name="HFSCREENC">      0.00000000</i>
   <i type="int" name="NBANDSGWLOW">     0</i>
  </separator>
  <separator name="vdW DFT" >
   <i type="logical" name="LUSE_VDW"> F  </i>
   <i name="Zab_VDW">     -0.84910000</i>
   <i name="PARAM1">      0.12340000</i>
   <i name="PARAM2">      1.00000000</i>
   <i name="PARAM3">      0.00000000</i>
  </separator>
  <separator name="model GW" >
   <i type="int" name="MODEL_GW">     0</i>
   <i name="MODEL_EPS0">     15.74213950</i>
   <i name="MODEL_ALPHA">      1.00000000</i>
  </separator>
  <separator name="linear response parameters" >
   <i type="logical" name="LEPSILON"> F  </i>
   <i type="logical" name="LRPA"> F  </i>
   <i type="logical" name="LNABLA"> F  </i>
   <i type="logical" name="LVEL"> F  </i>
   <i type="int" name="KINTER">     0</i>
   <i name="CSHIFT">      0.10000000</i>
   <i name="OMEGAMAX">     -1.00000000</i>
   <i name="DEG_THRESHOLD">      0.00200000</i>
   <i name="RTIME">     -0.10000000</i>
   <i name="WPLASMAI">      0.00000000</i>
   <v name="DFIELD">      0.00000000      0.00000000      0.00000000</v>
   <v name="WPLASMA">      0.00000000      0.00000000      0.00000000      0.00000000      0.00000000      0.00000000      0.00000000      0.00000000      0.00000000</v>
  </separator>
  <separator name="orbital magnetization" >
   <i type="logical" name="NUCIND"> F  </i>
   <v name="MAGPOS">      0.00000000      0.00000000      0.00000000</v>
   <i type="logical" name="LNICSALL"> T  </i>
   <i type="logical" name="ORBITALMAG"> F  </i>
   <i type="logical" name="LMAGBLOCH"> F  </i>
   <i type="logical" name="LCHIMAG"> F  </i>
   <i type="logical" name="LGAUGE"> T  </i>
   <i type="int" name="MAGATOM">     0</i>
   <v name="MAGDIPOL">      0.00000000      0.00000000      0.00000000</v>
   <v name="AVECCONST">      0.00000000      0.00000000      0.00000000</v>
  </separator>
  <separator name="response functions" >
   <i type="logical" name="LFINITE_TEMPERATURE"> F  </i>
   <i type="logical" name="LADDER"> F  </i>
   <i type="logical" name="LRPAFORCE"> F  </i>
   <i type="logical" name="LFXC"> F  </i>
   <i type="logical" name="LHARTREE"> T  </i>
   <i type="int" name="IBSE">     0</i>
   <v type="int" name="KPOINT">    -1     0     0     0</v>
   <i type="logical" name="LTCTC"> F  </i>
   <i type="logical" name="LTCTE"> F  </i>
   <i type="logical" name="LTETE"> F  </i>
   <i type="logical" name="LTRIPLET"> F  </i>
   <i type="logical" name="LFXCEPS"> F  </i>
   <i type="logical" name="LFXHEG"> F  </i>
   <i type="int" name="NATURALO">     2</i>
   <i type="logical" name="L2ORDER"> F  </i>
   <i type="logical" name="LDMP1"> F  </i>
   <i type="logical" name="LMP2LT"> F  </i>
   <i type="logical" name="LSMP2LT"> F  </i>
   <i type="logical" name="LUSEW"> F  </i>
   <i name="ENCUTGW">     -2.00000000</i>
   <i name="ENCUTGWSOFT">     -2.00000000</i>
   <i name="ENCUTLF">     -1.00000000</i>
   <i type="int" name="LMAXMP2">    -1</i>
   <i name="SCISSOR">      0.00000000</i>
   <i type="int" name="NOMEGA">     0</i>
   <i type="int" name="NOMEGAR">     0</i>
   <i type="int" name="NBANDSGW">    -1</i>
   <i type="int" name="NBANDSO">    -1</i>
   <i type="int" name="NBANDSV">    -1</i>
   <i type="int" name="NELM">     1</i>
   <i type="int" name="NELMHF">     1</i>
   <i type="int" name="DIM">     3</i>
   <i type="int" name="IESPILON">     4</i>
   <i type="int" name="ANTIRES">     0</i>
   <i name="OMEGAMAX">    -30.00000000</i>
   <i name="OMEGAMIN">    -30.00000000</i>
   <i name="OMEGATL">   -200.00000000</i>
   <i type="int" name="OMEGAGRID">   145</i>
   <i name="CSHIFT">     -0.10000000</i>
   <i type="logical" name="LSELFENERGY"> F  </i>
   <i type="logical" name="LSPECTRAL"> F  </i>
   <i type="logical" name="LSPECTRALGW"> F  </i>
   <i type="logical" name="LSINGLES"> F  </i>
   <i type="logical" name="LFERMIGW"> F  </i>
   <i type="logical" name="ODDONLYGW"> F  </i>
   <i type="logical" name="EVENONLYGW"> F  </i>
   <i type="int" name="NKREDLFX">     1</i>
   <i type="int" name="NKREDLFY">     1</i>
   <i type="int" name="NKREDLFZ">     1</i>
   <i type="int" name="MAXMEM">  2800</i>
   <i type="int" name="TELESCOPE">     0</i>
   <i type="int" name="NTAUPAR">     1</i>
   <i type="int" name="NOMEGAPAR">    -1</i>
   <i name="LAMBDA">      1.00000000</i>
  </separator>
  <separator name="External order field" >
   <i name="OFIELD_KAPPA">      0.00000000</i>
   <v name="OFIELD_K">      0.00000000      0.00000000      0.00000000</v>
   <i name="OFIELD_Q6_NEAR">      0.00000000</i>
   <i name="OFIELD_Q6_FAR">      0.00000000</i>
   <i name="OFIELD_A">      0.00000000</i>
  </separator>
 </parameters>
 <atominfo>
  <atoms>       3 </atoms>
  <types>       3 </types>
  <array name="atoms" >
   <dimension dim="1">ion</dimension>
   <field type="string">element</field>
   <field type="int">atomtype</field>
   <set>
    <rc><c>Bi</c><c>   1</c></rc>
    <rc><c>Pt</c><c>   2</c></rc>
    <rc><c>U </c><c>   3</c></rc>
   </set>
  </array>
  <array name="atomtypes" >
   <dimension dim="1">type</dimension>
   <field type="int">atomspertype</field>
   <field type="string">element</field>
   <field>mass</field>
   <field>valence</field>
   <field type="string">pseudopotential</field>
   <set>
    <rc><c>   1</c><c>Bi</c><c>    208.98000000</c><c>     15.00000000</c><c>  PAW_PBE Bi_d 06Sep2000                </c></rc>
    <rc><c>   1</c><c>Pt</c><c>    195.08000000</c><c>     10.00000000</c><c>  PAW_PBE Pt 04Feb2005                  </c></rc>
    <rc><c>   1</c><c>U </c><c>    238.02900000</c><c>     14.00000000</c><c>  PAW_PBE U 06Sep2000                   </c></rc>
   </set>
  </array>
 </atominfo>
 <structure name="initialpos" >
  <crystal>
   <varray name="basis" >
    <v>       0.00000000       3.40148000       3.40148000 </v>
    <v>       3.40148000       0.00000000       3.40148000 </v>
    <v>       3.40148000       3.40148000       0.00000000 </v>
   </varray>
   <i name="volume">     78.71069749 </i>
   <varray name="rec_basis" >
    <v>      -0.14699484       0.14699484       0.14699484 </v>
    <v>       0.14699484      -0.14699484       0.14699484 </v>
    <v>       0.14699484       0.14699484      -0.14699484 </v>
   </varray>
  </crystal>
  <varray name="positions" >
   <v>       0.25000000       0.25000000       0.25000000 </v>
   <v>       0.00000000       0.00000000       0.00000000 </v>
   <v>       0.75000000       0.75000000       0.75000000 </v>
  </varray>
 </structure>
 <calculation>
  <scstep>
   <time name="dav">    1.29    1.30</time>
   <time name="total">    1.36    1.42</time>
   <energy>
    <i name="alphaZ">    199.77951123 </i>
    <i name="ewald">  -3504.74197696 </i>
    <i name="hartreedc">   -822.23968080 </i>
    <i name="XCdc">     89.47366052 </i>
    <i name="pawpsdc">   3513.29252893 </i>
    <i name="pawaedc">  -3436.88002192 </i>
    <i name="eentropy">     -0.00019097 </i>
    <i name="bandstr">    260.39263933 </i>
    <i name="atom">   4095.34623897 </i>
    <i name="e_fr_energy">    394.42270832 </i>
    <i name="e_wo_entrp">    394.42289929 </i>
    <i name="e_0_energy">    394.42280380 </i>
   </energy>
  </scstep>
  <scstep>
   <time name="dav">    1.35    1.38</time>
   <time name="total">    1.35    1.38</time>
   <energy>
    <i name="e_fr_energy">     25.04502280 </i>
    <i name="e_wo_entrp">     25.04537532 </i>
    <i name="e_0_energy">     25.04519906 </i>
   </energy>
  </scstep>
  <scstep>
   <time name="dav">    1.51    1.54</time>
   <time name="total">    1.51    1.54</time>
   <energy>
    <i name="e_fr_energy">    -21.07039429 </i>
    <i name="e_wo_entrp">    -21.06947931 </i>
    <i name="e_0_energy">    -21.06993680 </i>
   </energy>
  </scstep>
  <scstep>
   <time name="dav">    2.07    2.10</time>
   <time name="total">    2.08    2.11</time>
   <energy>
    <i name="e_fr_energy">    -25.70836668 </i>
    <i name="e_wo_entrp">    -25.70732733 </i>
    <i name="e_0_energy">    -25.70784700 </i>
   </energy>
  </scstep>
  <scstep>
   <time name="dav">    1.64    1.67</time>
   <time name="total">    1.77    1.80</time>
   <energy>
    <i name="e_fr_energy">    -25.87902536 </i>
    <i name="e_wo_entrp">    -25.87785417 </i>
    <i name="e_0_energy">    -25.87843976 </i>
   </energy>
  </scstep>
  <scstep>
   <time name="dav">    1.70    1.70</time>
   <time name="total">    1.87    1.89</time>
   <energy>
    <i name="e_fr_energy">    -34.85976739 </i>
    <i name="e_wo_entrp">    -34.85972523 </i>
    <i name="e_0_energy">    -34.85974631 </i>
   </energy>
  </scstep>
  <scstep>
   <time name="dav">    1.67    1.67</time>
   <time name="total">    1.84    1.87</time>
   <energy>
    <i name="e_fr_energy">    -24.85395154 </i>
    <i name="e_wo_entrp">    -24.85333364 </i>
    <i name="e_0_energy">    -24.85364259 </i>
   </energy>
  </scstep>
  <scstep>
   <time name="dav">    1.70    1.70</time>
   <time name="total">    1.86    1.88</time>
   <energy>
    <i name="e_fr_energy">    -24.58981484 </i>
    <i name="e_wo_entrp">    -24.58848958 </i>
    <i name="e_0_energy">    -24.58915221 </i>
   </energy>
  </scstep>
  <scstep>
   <time name="dav">    1.76    1.76</time>
   <time name="total">    1.92    1.95</time>
   <energy>
    <i name="e_fr_energy">    -23.60616037 </i>
    <i name="e_wo_entrp">    -23.60479788 </i>
    <i name="e_0_energy">    -23.60547912 </i>
   </energy>
  </scstep>
  <scstep>
   <time name="dav">    1.80    1.80</time>
   <time name="total">    1.97    1.99</time>
   <energy>
    <i name="e_fr_energy">    -23.70583093 </i>
    <i name="e_wo_entrp">    -23.70451191 </i>
    <i name="e_0_energy">    -23.70517142 </i>
   </energy>
  </scstep>
  <scstep>
   <time name="dav">    1.68    1.68</time>
   <time name="total">    1.85    1.87</time>
   <energy>
    <i name="e_fr_energy">    -23.62542255 </i>
    <i name="e_wo_entrp">    -23.62362986 </i>
    <i name="e_0_energy">    -23.62452621 </i>
   </energy>
  </scstep>
  <scstep>
   <time name="dav">    1.99    1.99</time>
   <time name="total">    2.16    2.18</time>
   <energy>
    <i name="e_fr_energy">    -23.62811938 </i>
    <i name="e_wo_entrp">    -23.62622862 </i>
    <i name="e_0_energy">    -23.62717400 </i>
   </energy>
  </scstep>
  <scstep>
   <time name="dav">    1.80    1.80</time>
   <time name="total">    1.96    1.98</time>
   <energy>
    <i name="e_fr_energy">    -23.62870790 </i>
    <i name="e_wo_entrp">    -23.62678446 </i>
    <i name="e_0_energy">    -23.62774618 </i>
   </energy>
  </scstep>
  <scstep>
   <time name="dav">    1.69    1.69</time>
   <time name="total">    1.85    1.88</time>
   <energy>
    <i name="e_fr_energy">    -23.62708176 </i>
    <i name="e_wo_entrp">    -23.62520493 </i>
    <i name="e_0_energy">    -23.62614335 </i>
   </energy>
  </scstep>
  <scstep>
   <time name="dav">    1.92    1.92</time>
   <time name="total">    2.08    2.10</time>
   <energy>
    <i name="e_fr_energy">    -23.62704503 </i>
    <i name="e_wo_entrp">    -23.62514207 </i>
    <i name="e_0_energy">    -23.62609355 </i>
   </energy>
  </scstep>
  <scstep>
   <time name="dav">    1.36    1.36</time>
   <time name="total">    1.53    1.55</time>
   <energy>
    <i name="e_fr_energy">    -23.62704910 </i>
    <i name="e_wo_entrp">    -23.62513889 </i>
    <i name="e_0_energy">    -23.62609400 </i>
   </energy>
  </scstep>
  <scstep>
   <time name="dav">    1.22    1.22</time>
   <time name="total">    1.27    1.29</time>
   <energy>
    <i name="alphaZ">    199.77951123 </i>
    <i name="ewald">  -3504.74197696 </i>
    <i name="hartreedc">   -810.92355530 </i>
    <i name="XCdc">     89.14388071 </i>
    <i name="pawpsdc">   4048.60727429 </i>
    <i name="pawaedc">  -3980.53814569 </i>
    <i name="eentropy">     -0.00190649 </i>
    <i name="bandstr">   -160.29836616 </i>
    <i name="atom">   4095.34623897 </i>
    <i name="e_fr_energy">    -23.62704540 </i>
    <i name="e_wo_entrp">    -23.62513891 </i>
    <i name="e_0_energy">    -23.62609216 </i>
   </energy>
  </scstep>
  <structure>
   <crystal>
    <varray name="basis" >
     <v>       0.00000000       3.40148000       3.40148000 </v>
     <v>       3.40148000       0.00000000       3.40148000 </v>
     <v>       3.40148000       3.40148000       0.00000000 </v>
    </varray>
    <i name="volume">     78.71069749 </i>
    <varray name="rec_basis" >
     <v>      -0.14699484       0.14699484       0.14699484 </v>
     <v>       0.14699484      -0.14699484       0.14699484 </v>
     <v>       0.14699484       0.14699484      -0.14699484 </v>
    </varray>
   </crystal>
   <varray name="positions" >
    <v>       0.25000000       0.25000000       0.25000000 </v>
    <v>       0.00000000       0.00000000       0.00000000 </v>
    <v>       0.75000000       0.75000000       0.75000000 </v>
   </varray>
  </structure>
  <varray name="forces" >
   <v>       0.00000000       0.00000000       0.00000000 </v>
   <v>      -0.00000000      -0.00000000      -0.00000000 </v>
   <v>       0.00000000       0.00000000       0.00000000 </v>
  </varray>
  <varray name="stress" >
   <v>     -75.47949390      -0.00000000       0.00000000 </v>
   <v>      -0.00000000     -75.47949390       0.00000000 </v>
   <v>       0.00000000       0.00000000     -75.47949390 </v>
  </varray>
  <energy>
   <i name="e_fr_energy">    -23.62704540 </i>
   <i name="e_wo_entrp">    -23.62609216 </i>
   <i name="e_0_energy">     -0.00190649 </i>
  </energy>
  <time name="totalsc">   31.67   32.56</time>
 </calculation>
 <calculation>
  <scstep>
   <time name="dav">    1.54    1.54</time>
   <time name="total">    1.71    1.74</time>
   <energy>
    <i name="alphaZ">    207.10111331 </i>
    <i name="ewald">  -3547.04375653 </i>
    <i name="hartreedc">   -820.70476415 </i>
    <i name="XCdc">     90.65401215 </i>
    <i name="pawpsdc">   4048.78590560 </i>
    <i name="pawaedc">  -3980.71897802 </i>
    <i name="eentropy">     -0.00059085 </i>
    <i name="bandstr">   -118.11270624 </i>
    <i name="atom">   4095.34623897 </i>
    <i name="e_fr_energy">    -24.69352575 </i>
    <i name="e_wo_entrp">    -24.69293490 </i>
    <i name="e_0_energy">    -24.69323033 </i>
   </energy>
  </scstep>
  <scstep>
   <time name="dav">    1.65    1.65</time>
   <time name="total">    1.81    1.84</time>
   <energy>
    <i name="e_fr_energy">    -25.42176336 </i>
    <i name="e_wo_entrp">    -25.42059516 </i>
    <i name="e_0_energy">    -25.42117926 </i>
   </energy>
  </scstep>
  <scstep>
   <time name="dav">    1.79    1.79</time>
   <time name="total">    1.95    1.98</time>
   <energy>
    <i name="e_fr_energy">    -23.76301244 </i>
    <i name="e_wo_entrp">    -23.76174046 </i>
    <i name="e_0_energy">    -23.76237645 </i>
   </energy>
  </scstep>
  <scstep>
   <time name="dav">    1.57    1.57</time>
   <time name="total">    1.73    1.76</time>
   <energy>
    <i name="e_fr_energy">    -23.73593978 </i>
    <i name="e_wo_entrp">    -23.73430904 </i>
    <i name="e_0_energy">    -23.73512441 </i>
   </energy>
  </scstep>
  <scstep>
   <time name="dav">    2.12    2.12</time>
   <time name="total">    2.29    2.31</time>
   <energy>
    <i name="e_fr_energy">    -23.72882645 </i>
    <i name="e_wo_entrp">    -23.72700129 </i>
    <i name="e_0_energy">    -23.72791387 </i>
   </energy>
  </scstep>
  <scstep>
   <time name="dav">    1.76    1.76</time>
   <time name="total">    1.93    1.95</time>
   <energy>
    <i name="e_fr_energy">    -23.72987516 </i>
    <i name="e_wo_entrp">    -23.72806436 </i>
    <i name="e_0_energy">    -23.72896976 </i>
   </energy>
  </scstep>
  <scstep>
   <time name="dav">    2.05    2.05</time>
   <time name="total">    2.22    2.24</time>
   <energy>
    <i name="e_fr_energy">    -23.73084084 </i>
    <i name="e_wo_entrp">    -23.72903267 </i>
    <i name="e_0_energy">    -23.72993676 </i>
   </energy>
  </scstep>
  <scstep>
   <time name="dav">    1.92    1.92</time>
   <time name="total">    2.08    2.11</time>
   <energy>
    <i name="e_fr_energy">    -23.73080542 </i>
    <i name="e_wo_entrp">    -23.72904745 </i>
    <i name="e_0_energy">    -23.72992644 </i>
   </energy>
  </scstep>
  <scstep>
   <time name="dav">    1.45    1.50</time>
   <time name="total">    1.61    1.69</time>
   <energy>
    <i name="e_fr_energy">    -23.73082370 </i>
    <i name="e_wo_entrp">    -23.72906677 </i>
    <i name="e_0_energy">    -23.72994523 </i>
   </energy>
  </scstep>
  <scstep>
   <time name="dav">    1.26    1.26</time>
   <time name="total">    1.32    1.34</time>
   <energy>
    <i name="alphaZ">    207.10111331 </i>
    <i name="ewald">  -3547.04375653 </i>
    <i name="hartreedc">   -791.29701848 </i>
    <i name="XCdc">     89.51846322 </i>
    <i name="pawpsdc">   4122.30756705 </i>
    <i name="pawaedc">  -4054.74778496 </i>
    <i name="eentropy">     -0.00175881 </i>
    <i name="bandstr">   -144.91388636 </i>
    <i name="atom">   4095.34623897 </i>
    <i name="e_fr_energy">    -23.73082259 </i>
    <i name="e_wo_entrp">    -23.72906378 </i>
    <i name="e_0_energy">    -23.72994319 </i>
   </energy>
  </scstep>
  <structure>
   <crystal>
    <varray name="basis" >
     <v>       0.00000000       3.36091420       3.36091420 </v>
     <v>       3.36091420       0.00000000       3.36091420 </v>
     <v>       3.36091420       3.36091420       0.00000000 </v>
    </varray>
    <i name="volume">     75.92805476 </i>
    <varray name="rec_basis" >
     <v>      -0.14876905       0.14876905       0.14876905 </v>
     <v>       0.14876905      -0.14876905       0.14876905 </v>
     <v>       0.14876905       0.14876905      -0.14876905 </v>
    </varray>
   </crystal>
   <varray name="positions" >
    <v>       0.25000000       0.25000000       0.25000000 </v>
    <v>       0.00000000       0.00000000       0.00000000 </v>
    <v>       0.75000000       0.75000000       0.75000000 </v>
   </varray>
  </structure>
  <varray name="forces" >
   <v>       0.00000000       0.00000000       0.00000000 </v>
   <v>      -0.00000000      -0.00000000      -0.00000000 </v>
   <v>       0.00000000       0.00000000       0.00000000 </v>
  </varray>
  <varray name="stress" >
   <v>     -42.98523334      -0.00000000       0.00000000 </v>
   <v>      -0.00000000     -42.98523334       0.00000000 </v>
   <v>       0.00000000       0.00000000     -42.98523334 </v>
  </varray>
  <energy>
   <i name="e_fr_energy">    -23.73082259 </i>
   <i name="e_wo_entrp">    -23.72994319 </i>
   <i name="e_0_energy">     -0.00175881 </i>
  </energy>
  <time name="totalsc">   20.09   20.66</time>
 </calculation>
 <calculation>
  <scstep>
   <time name="dav">    1.51    1.51</time>
   <time name="total">    1.66    1.68</time>
   <energy>
    <i name="alphaZ">    214.89347526 </i>
    <i name="ewald">  -3590.98406484 </i>
    <i name="hartreedc">   -801.09197857 </i>
    <i name="XCdc">     91.07180773 </i>
    <i name="pawpsdc">   4122.35707347 </i>
    <i name="pawaedc">  -4054.80168037 </i>
    <i name="eentropy">     -0.00046793 </i>
    <i name="bandstr">   -101.53012289 </i>
    <i name="atom">   4095.34623897 </i>
    <i name="e_fr_energy">    -24.73971918 </i>
    <i name="e_wo_entrp">    -24.73925124 </i>
    <i name="e_0_energy">    -24.73948521 </i>
   </energy>
  </scstep>
  <scstep>
   <time name="dav">    1.62    1.62</time>
   <time name="total">    1.79    1.82</time>
   <energy>
    <i name="e_fr_energy">    -25.19178730 </i>
    <i name="e_wo_entrp">    -25.19050309 </i>
    <i name="e_0_energy">    -25.19114519 </i>
   </energy>
  </scstep>
  <scstep>
   <time name="dav">    1.77    1.77</time>
   <time name="total">    1.94    1.96</time>
   <energy>
    <i name="e_fr_energy">    -23.81120208 </i>
    <i name="e_wo_entrp">    -23.80991791 </i>
    <i name="e_0_energy">    -23.81055999 </i>
   </energy>
  </scstep>
  <scstep>
   <time name="dav">    1.61    1.61</time>
   <time name="total">    1.78    1.80</time>
   <energy>
    <i name="e_fr_energy">    -23.77331714 </i>
    <i name="e_wo_entrp">    -23.77179521 </i>
    <i name="e_0_energy">    -23.77255617 </i>
   </energy>
  </scstep>
  <scstep>
   <time name="dav">    2.10    2.10</time>
   <time name="total">    2.27    2.29</time>
   <energy>
    <i name="e_fr_energy">    -23.76924680 </i>
    <i name="e_wo_entrp">    -23.76752954 </i>
    <i name="e_0_energy">    -23.76838817 </i>
   </energy>
  </scstep>
  <scstep>
   <time name="dav">    1.70    1.70</time>
   <time name="total">    1.87    1.89</time>
   <energy>
    <i name="e_fr_energy">    -23.76996958 </i>
    <i name="e_wo_entrp">    -23.76827073 </i>
    <i name="e_0_energy">    -23.76912015 </i>
   </energy>
  </scstep>
  <scstep>
   <time name="dav">    2.04    2.04</time>
   <time name="total">    2.21    2.23</time>
   <energy>
    <i name="e_fr_energy">    -23.77091260 </i>
    <i name="e_wo_entrp">    -23.76922869 </i>
    <i name="e_0_energy">    -23.77007065 </i>
   </energy>
  </scstep>
  <scstep>
   <time name="dav">    1.90    1.90</time>
   <time name="total">    2.07    2.09</time>
   <energy>
    <i name="e_fr_energy">    -23.77083181 </i>
    <i name="e_wo_entrp">    -23.76917259 </i>
    <i name="e_0_energy">    -23.77000220 </i>
   </energy>
  </scstep>
  <scstep>
   <time name="dav">    1.44    1.44</time>
   <time name="total">    1.60    1.63</time>
   <energy>
    <i name="e_fr_energy">    -23.77084873 </i>
    <i name="e_wo_entrp">    -23.76919065 </i>
    <i name="e_0_energy">    -23.77001969 </i>
   </energy>
  </scstep>
  <scstep>
   <time name="dav">    1.24    1.24</time>
   <time name="total">    1.29    1.32</time>
   <energy>
    <i name="alphaZ">    214.89347526 </i>
    <i name="ewald">  -3590.98406484 </i>
    <i name="hartreedc">   -771.35928426 </i>
    <i name="XCdc">     89.92238489 </i>
    <i name="pawpsdc">   4206.34933446 </i>
    <i name="pawaedc">  -4139.34241889 </i>
    <i name="eentropy">     -0.00165984 </i>
    <i name="bandstr">   -128.59485038 </i>
    <i name="atom">   4095.34623897 </i>
    <i name="e_fr_energy">    -23.77084464 </i>
    <i name="e_wo_entrp">    -23.76918481 </i>
    <i name="e_0_energy">    -23.77001472 </i>
   </energy>
  </scstep>
  <structure>
   <crystal>
    <varray name="basis" >
     <v>       0.00000000       3.31978910       3.31978910 </v>
     <v>       3.31978910       0.00000000       3.31978910 </v>
     <v>       3.31978910       3.31978910       0.00000000 </v>
    </varray>
    <i name="volume">     73.17478883 </i>
    <varray name="rec_basis" >
     <v>      -0.15061198       0.15061198       0.15061198 </v>
     <v>       0.15061198      -0.15061198       0.15061198 </v>
     <v>       0.15061198       0.15061198      -0.15061198 </v>
    </varray>
   </crystal>
   <varray name="positions" >
    <v>       0.25000000       0.25000000       0.25000000 </v>
    <v>       0.00000000       0.00000000       0.00000000 </v>
    <v>       0.75000000       0.75000000       0.75000000 </v>
   </varray>
  </structure>
  <varray name="forces" >
   <v>       0.00000000       0.00000000       0.00000000 </v>
   <v>      -0.00000000      -0.00000000      -0.00000000 </v>
   <v>       0.00000000       0.00000000       0.00000000 </v>
  </varray>
  <varray name="stress" >
   <v>      -2.21448084      -0.00000000       0.00000000 </v>
   <v>       0.00000000      -2.21448084      -0.00000000 </v>
   <v>       0.00000000       0.00000000      -2.21448084 </v>
  </varray>
  <energy>
   <i name="e_fr_energy">    -23.77084464 </i>
   <i name="e_wo_entrp">    -23.77001472 </i>
   <i name="e_0_energy">     -0.00165984 </i>
  </energy>
  <time name="totalsc">   19.93   20.56</time>
 </calculation>
 <calculation>
  <scstep>
   <time name="dav">    1.49    1.49</time>
   <time name="total">    1.65    1.66</time>
   <energy>
    <i name="alphaZ">    215.31123953 </i>
    <i name="ewald">  -3593.30957942 </i>
    <i name="hartreedc">   -771.85763493 </i>
    <i name="XCdc">     90.00358658 </i>
    <i name="pawpsdc">   4206.38396466 </i>
    <i name="pawaedc">  -4139.37851802 </i>
    <i name="eentropy">     -0.00156513 </i>
    <i name="bandstr">   -126.27145972 </i>
    <i name="atom">   4095.34623897 </i>
    <i name="e_fr_energy">    -23.77372747 </i>
    <i name="e_wo_entrp">    -23.77216235 </i>
    <i name="e_0_energy">    -23.77294491 </i>
   </energy>
  </scstep>
  <scstep>
   <time name="dav">    1.69    1.69</time>
   <time name="total">    1.86    1.89</time>
   <energy>
    <i name="e_fr_energy">    -23.77655742 </i>
    <i name="e_wo_entrp">    -23.77476102 </i>
    <i name="e_0_energy">    -23.77565922 </i>
   </energy>
  </scstep>
  <scstep>
   <time name="dav">    1.63    1.63</time>
   <time name="total">    1.80    1.82</time>
   <energy>
    <i name="e_fr_energy">    -23.77091325 </i>
    <i name="e_wo_entrp">    -23.76927325 </i>
    <i name="e_0_energy">    -23.77009325 </i>
   </energy>
  </scstep>
  <scstep>
   <time name="dav">    1.54    1.54</time>
   <time name="total">    1.70    1.73</time>
   <energy>
    <i name="e_fr_energy">    -23.77092752 </i>
    <i name="e_wo_entrp">    -23.76927532 </i>
    <i name="e_0_energy">    -23.77010142 </i>
   </energy>
  </scstep>
  <scstep>
   <time name="dav">    2.03    2.03</time>
   <time name="total">    2.19    2.22</time>
   <energy>
    <i name="e_fr_energy">    -23.77092847 </i>
    <i name="e_wo_entrp">    -23.76927368 </i>
    <i name="e_0_energy">    -23.77010108 </i>
   </energy>
  </scstep>
  <scstep>
   <time name="dav">    1.19    1.19</time>
   <time name="total">    1.24    1.26</time>
   <energy>
    <i name="alphaZ">    215.31123953 </i>
    <i name="ewald">  -3593.30957942 </i>
    <i name="hartreedc">   -770.29649969 </i>
    <i name="XCdc">     89.94377166 </i>
    <i name="pawpsdc">   4210.76381276 </i>
    <i name="pawaedc">  -4143.81620492 </i>
    <i name="eentropy">     -0.00165427 </i>
    <i name="bandstr">   -127.71205668 </i>
    <i name="atom">   4095.34623897 </i>
    <i name="e_fr_energy">    -23.77093207 </i>
    <i name="e_wo_entrp">    -23.76927780 </i>
    <i name="e_0_energy">    -23.77010493 </i>
   </energy>
  </scstep>
  <structure>
   <crystal>
    <varray name="basis" >
     <v>       0.00000000       3.31764060       3.31764060 </v>
     <v>       3.31764060       0.00000000       3.31764060 </v>
     <v>       3.31764060       3.31764060       0.00000000 </v>
    </varray>
    <i name="volume">     73.03280919 </i>
    <varray name="rec_basis" >
     <v>      -0.15070951       0.15070951       0.15070951 </v>
     <v>       0.15070951      -0.15070951       0.15070951 </v>
     <v>       0.15070951       0.15070951      -0.15070951 </v>
    </varray>
   </crystal>
   <varray name="positions" >
    <v>       0.25000000       0.25000000       0.25000000 </v>
    <v>       0.00000000       0.00000000       0.00000000 </v>
    <v>       0.75000000       0.75000000       0.75000000 </v>
   </varray>
  </structure>
  <varray name="forces" >
   <v>       0.00000000       0.00000000       0.00000000 </v>
   <v>      -0.00000000      -0.00000000      -0.00000000 </v>
   <v>       0.00000000      -0.00000000       0.00000000 </v>
  </varray>
  <varray name="stress" >
   <v>      -0.25281785       0.00000000       0.00000000 </v>
   <v>       0.00000000      -0.25281785       0.00000000 </v>
   <v>       0.00000000       0.00000000      -0.25281785 </v>
  </varray>
  <energy>
   <i name="e_fr_energy">    -23.77093207 </i>
   <i name="e_wo_entrp">    -23.77010493 </i>
   <i name="e_0_energy">     -0.00165427 </i>
  </energy>
  <time name="totalsc">   11.72   12.12</time>
  <eigenvalues>
   <array>
    <dimension dim="1">band</dimension>
    <dimension dim="2">kpoint</dimension>
    <dimension dim="3">spin</dimension>
    <field>eigene</field>
    <field>occ</field>
    <set>
     <set comment="spin 1">
      <set comment="kpoint 1">
       <r>  -34.0296    1.0000 </r>
       <r>  -12.8274    1.0000 </r>
       <r>  -12.8274    1.0000 </r>
       <r>  -12.7987    1.0000 </r>
       <r>  -12.7987    1.0000 </r>
       <r>  -12.7987    1.0000 </r>
       <r>   -9.3218    1.0000 </r>
       <r>   -9.3218    1.0000 </r>
       <r>   -9.3218    1.0000 </r>
       <r>   -2.4454    1.0000 </r>
       <r>    5.4628    1.0000 </r>
       <r>    5.4628    1.0000 </r>
       <r>    5.4628    1.0000 </r>
       <r>    5.7129    1.0000 </r>
       <r>    5.7129    1.0000 </r>
       <r>    8.4860    1.0000 </r>
       <r>    8.9099    1.0000 </r>
       <r>    8.9099    1.0000 </r>
       <r>    8.9099    1.0000 </r>
       <r>   10.0464    1.0000 </r>
       <r>   10.0464    1.0000 </r>
       <r>   10.0464    1.0000 </r>
       <r>   10.2231    0.0000 </r>
       <r>   10.3323    0.0000 </r>
      </set>
      <set comment="kpoint 2">
       <r>  -34.0294    1.0000 </r>
       <r>  -12.8291    1.0000 </r>
       <r>  -12.8291    1.0000 </r>
       <r>  -12.7990    1.0000 </r>
       <r>  -12.7985    1.0000 </r>
       <r>  -12.7985    1.0000 </r>
       <r>   -9.3367    1.0000 </r>
       <r>   -9.3182    1.0000 </r>
       <r>   -9.3182    1.0000 </r>
       <r>   -2.3768    1.0000 </r>
       <r>    5.3367    1.0000 </r>
       <r>    5.3409    1.0000 </r>
       <r>    5.3409    1.0000 </r>
       <r>    5.8272    1.0000 </r>
       <r>    5.8272    1.0000 </r>
       <r>    8.0643    1.0000 </r>
       <r>    8.8506    1.0000 </r>
       <r>    8.8506    1.0000 </r>
       <r>    9.1725    1.0000 </r>
       <r>   10.0255    1.0000 </r>
       <r>   10.0381    1.0000 </r>
       <r>   10.0381    1.0000 </r>
       <r>   10.3335    0.0000 </r>
       <r>   10.3555    0.0000 </r>
      </set>
      <set comment="kpoint 3">
       <r>  -34.0286    1.0000 </r>
       <r>  -12.8337    1.0000 </r>
       <r>  -12.8337    1.0000 </r>
       <r>  -12.7999    1.0000 </r>
       <r>  -12.7980    1.0000 </r>
       <r>  -12.7980    1.0000 </r>
       <r>   -9.3764    1.0000 </r>
       <r>   -9.3084    1.0000 </r>
       <r>   -9.3084    1.0000 </r>
       <r>   -2.1853    1.0000 </r>
       <r>    5.0151    1.0000 </r>
       <r>    5.1716    1.0000 </r>
       <r>    5.1716    1.0000 </r>
       <r>    5.9638    1.0000 </r>
       <r>    5.9638    1.0000 </r>
       <r>    7.4674    1.0000 </r>
       <r>    8.7229    1.0000 </r>
       <r>    8.7229    1.0000 </r>
       <r>    9.2546    1.0000 </r>
       <r>   10.0358    1.0000 </r>
       <r>   10.0358    1.0000 </r>
       <r>   10.2420    0.0000 </r>
       <r>   10.3367    0.0000 </r>
       <r>   10.5425    0.0000 </r>
      </set>
      <set comment="kpoint 4">
       <r>  -34.0276    1.0000 </r>
       <r>  -12.8401    1.0000 </r>
       <r>  -12.8401    1.0000 </r>
       <r>  -12.8014    1.0000 </r>
       <r>  -12.7971    1.0000 </r>
       <r>  -12.7971    1.0000 </r>
       <r>   -9.4289    1.0000 </r>
       <r>   -9.2946    1.0000 </r>
       <r>   -9.2946    1.0000 </r>
       <r>   -1.9115    1.0000 </r>
       <r>    4.6134    1.0000 </r>
       <r>    5.0433    1.0000 </r>
       <r>    5.0433    1.0000 </r>
       <r>    6.0152    1.0000 </r>
       <r>    6.0152    1.0000 </r>
       <r>    6.9176    1.0000 </r>
       <r>    8.6125    1.0000 </r>
       <r>    8.6125    1.0000 </r>
       <r>    9.2475    1.0000 </r>
       <r>   10.0511    1.0000 </r>
       <r>   10.0511    1.0000 </r>
       <r>   10.3412    0.0000 </r>
       <r>   10.3887    0.0000 </r>
       <r>   10.6194    0.0000 </r>
      </set>
      <set comment="kpoint 5">
       <r>  -34.0265    1.0000 </r>
       <r>  -12.8470    1.0000 </r>
       <r>  -12.8470    1.0000 </r>
       <r>  -12.8033    1.0000 </r>
       <r>  -12.7961    1.0000 </r>
       <r>  -12.7961    1.0000 </r>
       <r>   -9.4805    1.0000 </r>
       <r>   -9.2801    1.0000 </r>
       <r>   -9.2801    1.0000 </r>
       <r>   -1.6150    1.0000 </r>
       <r>    4.2344    1.0000 </r>
       <r>    4.9725    1.0000 </r>
       <r>    4.9725    1.0000 </r>
       <r>    5.9673    1.0000 </r>
       <r>    5.9673    1.0000 </r>
       <r>    6.4816    1.0000 </r>
       <r>    8.5624    1.0000 </r>
       <r>    8.5624    1.0000 </r>
       <r>    9.2834    1.0000 </r>
       <r>   10.0827    0.8604 </r>
       <r>   10.0827    0.8604 </r>
       <r>   10.3460    0.0000 </r>
       <r>   10.4597    0.0000 </r>
       <r>   10.5902    0.0000 </r>
      </set>
      <set comment="kpoint 6">
       <r>  -34.0256    1.0000 </r>
       <r>  -12.8526    1.0000 </r>
       <r>  -12.8526    1.0000 </r>
       <r>  -12.8051    1.0000 </r>
       <r>  -12.7952    1.0000 </r>
       <r>  -12.7952    1.0000 </r>
       <r>   -9.5203    1.0000 </r>
       <r>   -9.2682    1.0000 </r>
       <r>   -9.2682    1.0000 </r>
       <r>   -1.3641    1.0000 </r>
       <r>    3.9489    1.0000 </r>
       <r>    4.9536    1.0000 </r>
       <r>    4.9536    1.0000 </r>
       <r>    5.8639    1.0000 </r>
       <r>    5.8639    1.0000 </r>
       <r>    6.1871    1.0000 </r>
       <r>    8.5600    1.0000 </r>
       <r>    8.5600    1.0000 </r>
       <r>    9.3576    1.0000 </r>
       <r>   10.1267    0.0000 </r>
       <r>   10.1267    0.0000 </r>
       <r>   10.3500    0.0000 </r>
       <r>   10.5099    0.0000 </r>
       <r>   10.5133    0.0000 </r>
      </set>
      <set comment="kpoint 7">
       <r>  -34.0250    1.0000 </r>
       <r>  -12.8557    1.0000 </r>
       <r>  -12.8557    1.0000 </r>
       <r>  -12.8062    1.0000 </r>
       <r>  -12.7947    1.0000 </r>
       <r>  -12.7947    1.0000 </r>
       <r>   -9.5417    1.0000 </r>
       <r>   -9.2614    1.0000 </r>
       <r>   -9.2614    1.0000 </r>
       <r>   -1.2202    1.0000 </r>
       <r>    3.7976    1.0000 </r>
       <r>    4.9608    1.0000 </r>
       <r>    4.9608    1.0000 </r>
       <r>    5.7802    1.0000 </r>
       <r>    5.7802    1.0000 </r>
       <r>    6.0402    1.0000 </r>
       <r>    8.5705    1.0000 </r>
       <r>    8.5705    1.0000 </r>
       <r>    9.4220    1.0000 </r>
       <r>   10.1677    0.0000 </r>
       <r>   10.1677    0.0000 </r>
       <r>   10.3523    0.0000 </r>
       <r>   10.4418    0.0000 </r>
       <r>   10.4418    0.0000 </r>
      </set>
      <set comment="kpoint 8">
       <r>  -34.0293    1.0000 </r>
       <r>  -12.8319    1.0000 </r>
       <r>  -12.8270    1.0000 </r>
       <r>  -12.7992    1.0000 </r>
       <r>  -12.7984    1.0000 </r>
       <r>  -12.7984    1.0000 </r>
       <r>   -9.3295    1.0000 </r>
       <r>   -9.3233    1.0000 </r>
       <r>   -9.3233    1.0000 </r>
       <r>   -2.3554    1.0000 </r>
       <r>    5.0766    1.0000 </r>
       <r>    5.4764    1.0000 </r>
       <r>    5.4764    1.0000 </r>
       <r>    5.7270    1.0000 </r>
       <r>    5.8747    1.0000 </r>
       <r>    8.0448    1.0000 </r>
       <r>    8.7546    1.0000 </r>
       <r>    8.7546    1.0000 </r>
       <r>    9.3341    1.0000 </r>
       <r>    9.9426    1.0000 </r>
       <r>   10.0592    1.0000 </r>
       <r>   10.0592    1.0000 </r>
       <r>   10.3433    0.0000 </r>
       <r>   10.3844    0.0000 </r>
      </set>
      <set comment="kpoint 9">
       <r>  -34.0287    1.0000 </r>
       <r>  -12.8370    1.0000 </r>
       <r>  -12.8283    1.0000 </r>
       <r>  -12.8000    1.0000 </r>
       <r>  -12.7980    1.0000 </r>
       <r>  -12.7979    1.0000 </r>
       <r>   -9.3598    1.0000 </r>
       <r>   -9.3211    1.0000 </r>
       <r>   -9.3120    1.0000 </r>
       <r>   -2.2097    1.0000 </r>
       <r>    4.7939    1.0000 </r>
       <r>    5.3605    1.0000 </r>
       <r>    5.3853    1.0000 </r>
       <r>    5.8261    1.0000 </r>
       <r>    5.9776    1.0000 </r>
       <r>    7.6436    1.0000 </r>
       <r>    8.6141    1.0000 </r>
       <r>    8.6160    1.0000 </r>
       <r>    9.4352    1.0000 </r>
       <r>   10.0002    1.0000 </r>
       <r>   10.0612    1.0000 </r>
       <r>   10.1595    0.0000 </r>
       <r>   10.3492    0.0000 </r>
       <r>   10.5101    0.0000 </r>
      </set>
      <set comment="kpoint 10">
       <r>  -34.0278    1.0000 </r>
       <r>  -12.8431    1.0000 </r>
       <r>  -12.8328    1.0000 </r>
       <r>  -12.8011    1.0000 </r>
       <r>  -12.7974    1.0000 </r>
       <r>  -12.7970    1.0000 </r>
       <r>   -9.4085    1.0000 </r>
       <r>   -9.3122    1.0000 </r>
       <r>   -9.2968    1.0000 </r>
       <r>   -1.9716    1.0000 </r>
       <r>    4.5115    1.0000 </r>
       <r>    5.1355    1.0000 </r>
       <r>    5.2583    1.0000 </r>
       <r>    5.9053    1.0000 </r>
       <r>    6.0673    1.0000 </r>
       <r>    7.1343    1.0000 </r>
       <r>    8.4721    1.0000 </r>
       <r>    8.5145    1.0000 </r>
       <r>    9.4119    1.0000 </r>
       <r>   10.0324    1.0000 </r>
       <r>   10.0650    0.9998 </r>
       <r>   10.3436    0.0000 </r>
       <r>   10.3522    0.0000 </r>
       <r>   10.5886    0.0000 </r>
      </set>
      <set comment="kpoint 11">
       <r>  -34.0267    1.0000 </r>
       <r>  -12.8489    1.0000 </r>
       <r>  -12.8393    1.0000 </r>
       <r>  -12.8026    1.0000 </r>
       <r>  -12.7966    1.0000 </r>
       <r>  -12.7959    1.0000 </r>
       <r>   -9.4603    1.0000 </r>
       <r>   -9.2987    1.0000 </r>
       <r>   -9.2828    1.0000 </r>
       <r>   -1.6945    1.0000 </r>
       <r>    4.2406    1.0000 </r>
       <r>    4.9611    1.0000 </r>
       <r>    5.1637    1.0000 </r>
       <r>    5.8891    1.0000 </r>
       <r>    6.0729    1.0000 </r>
       <r>    6.6675    1.0000 </r>
       <r>    8.3930    1.0000 </r>
       <r>    8.4834    1.0000 </r>
       <r>    9.3983    1.0000 </r>
       <r>   10.0731    0.9925 </r>
       <r>   10.0819    0.8821 </r>
       <r>   10.3547    0.0000 </r>
       <r>   10.4209    0.0000 </r>
       <r>   10.5834    0.0000 </r>
      </set>
      <set comment="kpoint 12">
       <r>  -34.0257    1.0000 </r>
       <r>  -12.8530    1.0000 </r>
       <r>  -12.8462    1.0000 </r>
       <r>  -12.8043    1.0000 </r>
       <r>  -12.7959    1.0000 </r>
       <r>  -12.7951    1.0000 </r>
       <r>   -9.5036    1.0000 </r>
       <r>   -9.2837    1.0000 </r>
       <r>   -9.2732    1.0000 </r>
       <r>   -1.4418    1.0000 </r>
       <r>    4.0168    1.0000 </r>
       <r>    4.8877    1.0000 </r>
       <r>    5.0969    1.0000 </r>
       <r>    5.8185    1.0000 </r>
       <r>    5.9970    1.0000 </r>
       <r>    6.3132    1.0000 </r>
       <r>    8.3771    1.0000 </r>
       <r>    8.5005    1.0000 </r>
       <r>    9.4276    1.0000 </r>
       <r>   10.1154    0.0002 </r>
       <r>   10.1218    0.0000 </r>
       <r>   10.3553    0.0000 </r>
       <r>   10.4536    0.0000 </r>
       <r>   10.5406    0.0000 </r>
      </set>
      <set comment="kpoint 13">
       <r>  -34.0250    1.0000 </r>
       <r>  -12.8546    1.0000 </r>
       <r>  -12.8521    1.0000 </r>
       <r>  -12.8055    1.0000 </r>
       <r>  -12.7953    1.0000 </r>
       <r>  -12.7946    1.0000 </r>
       <r>   -9.5306    1.0000 </r>
       <r>   -9.2707    1.0000 </r>
       <r>   -9.2701    1.0000 </r>
       <r>   -1.2726    1.0000 </r>
       <r>    3.8783    1.0000 </r>
       <r>    4.9039    1.0000 </r>
       <r>    5.0281    1.0000 </r>
       <r>    5.7777    1.0000 </r>
       <r>    5.8869    1.0000 </r>
       <r>    6.1018    1.0000 </r>
       <r>    8.3885    1.0000 </r>
       <r>    8.5243    1.0000 </r>
       <r>    9.4786    1.0000 </r>
       <r>   10.1606    0.0000 </r>
       <r>   10.1638    0.0000 </r>
       <r>   10.3505    0.0000 </r>
       <r>   10.4330    0.0000 </r>
       <r>   10.4932    0.0000 </r>
      </set>
      <set comment="kpoint 14">
       <r>  -34.0249    1.0000 </r>
       <r>  -12.8555    1.0000 </r>
       <r>  -12.8533    1.0000 </r>
       <r>  -12.8058    1.0000 </r>
       <r>  -12.7950    1.0000 </r>
       <r>  -12.7945    1.0000 </r>
       <r>   -9.5374    1.0000 </r>
       <r>   -9.2740    1.0000 </r>
       <r>   -9.2625    1.0000 </r>
       <r>   -1.2263    1.0000 </r>
       <r>    3.8423    1.0000 </r>
       <r>    4.9410    1.0000 </r>
       <r>    4.9756    1.0000 </r>
       <r>    5.7990    1.0000 </r>
       <r>    5.8221    1.0000 </r>
       <r>    6.0499    1.0000 </r>
       <r>    8.3873    1.0000 </r>
       <r>    8.5331    1.0000 </r>
       <r>    9.5001    1.0000 </r>
       <r>   10.1671    0.0000 </r>
       <r>   10.1915    0.0000 </r>
       <r>   10.3410    0.0000 </r>
       <r>   10.4389    0.0000 </r>
       <r>   10.4478    0.0000 </r>
      </set>
      <set comment="kpoint 15">
       <r>  -34.0252    1.0000 </r>
       <r>  -12.8557    1.0000 </r>
       <r>  -12.8494    1.0000 </r>
       <r>  -12.8051    1.0000 </r>
       <r>  -12.7952    1.0000 </r>
       <r>  -12.7950    1.0000 </r>
       <r>   -9.5233    1.0000 </r>
       <r>   -9.2839    1.0000 </r>
       <r>   -9.2609    1.0000 </r>
       <r>   -1.3136    1.0000 </r>
       <r>    3.9152    1.0000 </r>
       <r>    4.8624    1.0000 </r>
       <r>    5.0642    1.0000 </r>
       <r>    5.7802    1.0000 </r>
       <r>    5.9335    1.0000 </r>
       <r>    6.1583    1.0000 </r>
       <r>    8.3520    1.0000 </r>
       <r>    8.5332    1.0000 </r>
       <r>    9.4687    1.0000 </r>
       <r>   10.1319    0.0000 </r>
       <r>   10.1674    0.0000 </r>
       <r>   10.3469    0.0000 </r>
       <r>   10.4669    0.0000 </r>
       <r>   10.4845    0.0000 </r>
      </set>
      <set comment="kpoint 16">
       <r>  -34.0260    1.0000 </r>
       <r>  -12.8528    1.0000 </r>
       <r>  -12.8437    1.0000 </r>
       <r>  -12.8036    1.0000 </r>
       <r>  -12.7958    1.0000 </r>
       <r>  -12.7957    1.0000 </r>
       <r>   -9.4902    1.0000 </r>
       <r>   -9.2975    1.0000 </r>
       <r>   -9.2665    1.0000 </r>
       <r>   -1.5149    1.0000 </r>
       <r>    4.0998    1.0000 </r>
       <r>    4.8293    1.0000 </r>
       <r>    5.1540    1.0000 </r>
       <r>    5.8284    1.0000 </r>
       <r>    6.0537    1.0000 </r>
       <r>    6.4173    1.0000 </r>
       <r>    8.2922    1.0000 </r>
       <r>    8.5512    1.0000 </r>
       <r>    9.4204    1.0000 </r>
       <r>   10.0939    0.3080 </r>
       <r>   10.1156    0.0002 </r>
       <r>   10.3517    0.0000 </r>
       <r>   10.4639    0.0000 </r>
       <r>   10.5315    0.0000 </r>
      </set>
      <set comment="kpoint 17">
       <r>  -34.0270    1.0000 </r>
       <r>  -12.8473    1.0000 </r>
       <r>  -12.8375    1.0000 </r>
       <r>  -12.8019    1.0000 </r>
       <r>  -12.7968    1.0000 </r>
       <r>  -12.7966    1.0000 </r>
       <r>   -9.4435    1.0000 </r>
       <r>   -9.3115    1.0000 </r>
       <r>   -9.2778    1.0000 </r>
       <r>   -1.7831    1.0000 </r>
       <r>    4.3828    1.0000 </r>
       <r>    4.8633    1.0000 </r>
       <r>    5.2633    1.0000 </r>
       <r>    5.8755    1.0000 </r>
       <r>    6.1207    1.0000 </r>
       <r>    6.8111    1.0000 </r>
       <r>    8.2554    1.0000 </r>
       <r>    8.6168    1.0000 </r>
       <r>    9.3982    1.0000 </r>
       <r>   10.0667    0.9996 </r>
       <r>   10.0682    0.9991 </r>
       <r>   10.3500    0.0000 </r>
       <r>   10.4095    0.0000 </r>
       <r>   10.5907    0.0000 </r>
      </set>
      <set comment="kpoint 18">
       <r>  -34.0281    1.0000 </r>
       <r>  -12.8405    1.0000 </r>
       <r>  -12.8322    1.0000 </r>
       <r>  -12.8005    1.0000 </r>
       <r>  -12.7977    1.0000 </r>
       <r>  -12.7974    1.0000 </r>
       <r>   -9.3930    1.0000 </r>
       <r>   -9.3223    1.0000 </r>
       <r>   -9.2925    1.0000 </r>
       <r>   -2.0551    1.0000 </r>
       <r>    4.7227    1.0000 </r>
       <r>    4.9696    1.0000 </r>
       <r>    5.4017    1.0000 </r>
       <r>    5.8506    1.0000 </r>
       <r>    6.0961    1.0000 </r>
       <r>    7.2937    1.0000 </r>
       <r>    8.3192    1.0000 </r>
       <r>    8.7304    1.0000 </r>
       <r>    9.4078    1.0000 </r>
       <r>   10.0308    1.0000 </r>
       <r>   10.0539    1.0000 </r>
       <r>   10.3150    0.0000 </r>
       <r>   10.3457    0.0000 </r>
       <r>   10.5841    0.0000 </r>
      </set>
      <set comment="kpoint 19">
       <r>  -34.0289    1.0000 </r>
       <r>  -12.8340    1.0000 </r>
       <r>  -12.8292    1.0000 </r>
       <r>  -12.7996    1.0000 </r>
       <r>  -12.7983    1.0000 </r>
       <r>  -12.7982    1.0000 </r>
       <r>   -9.3531    1.0000 </r>
       <r>   -9.3251    1.0000 </r>
       <r>   -9.3071    1.0000 </r>
       <r>   -2.2688    1.0000 </r>
       <r>    5.0591    1.0000 </r>
       <r>    5.1385    1.0000 </r>
       <r>    5.4884    1.0000 </r>
       <r>    5.7869    1.0000 </r>
       <r>    5.9847    1.0000 </r>
       <r>    7.7536    1.0000 </r>
       <r>    8.5559    1.0000 </r>
       <r>    8.8359    1.0000 </r>
       <r>    9.3662    1.0000 </r>
       <r>   10.0184    1.0000 </r>
       <r>   10.0334    1.0000 </r>
       <r>   10.1357    0.0000 </r>
       <r>   10.3398    0.0000 </r>
       <r>   10.4707    0.0000 </r>
      </set>
      <set comment="kpoint 20">
       <r>  -34.0283    1.0000 </r>
       <r>  -12.8413    1.0000 </r>
       <r>  -12.8259    1.0000 </r>
       <r>  -12.8007    1.0000 </r>
       <r>  -12.7975    1.0000 </r>
       <r>  -12.7975    1.0000 </r>
       <r>   -9.3522    1.0000 </r>
       <r>   -9.3275    1.0000 </r>
       <r>   -9.3275    1.0000 </r>
       <r>   -2.1236    1.0000 </r>
       <r>    4.4957    1.0000 </r>
       <r>    5.5026    1.0000 </r>
       <r>    5.5026    1.0000 </r>
       <r>    5.7667    1.0000 </r>
       <r>    5.9207    1.0000 </r>
       <r>    7.6097    1.0000 </r>
       <r>    8.4794    1.0000 </r>
       <r>    8.4794    1.0000 </r>
       <r>    9.4807    1.0000 </r>
       <r>   10.0763    0.9765 </r>
       <r>   10.0763    0.9765 </r>
       <r>   10.0995    0.0970 </r>
       <r>   10.3764    0.0000 </r>
       <r>   10.5701    0.0000 </r>
      </set>
      <set comment="kpoint 21">
       <r>  -34.0275    1.0000 </r>
       <r>  -12.8456    1.0000 </r>
       <r>  -12.8270    1.0000 </r>
       <r>  -12.8017    1.0000 </r>
       <r>  -12.7969    1.0000 </r>
       <r>  -12.7966    1.0000 </r>
       <r>   -9.3883    1.0000 </r>
       <r>   -9.3263    1.0000 </r>
       <r>   -9.3166    1.0000 </r>
       <r>   -1.9495    1.0000 </r>
       <r>    4.2543    1.0000 </r>
       <r>    5.3755    1.0000 </r>
       <r>    5.4442    1.0000 </r>
       <r>    5.8259    1.0000 </r>
       <r>    5.9719    1.0000 </r>
       <r>    7.3329    1.0000 </r>
       <r>    8.3059    1.0000 </r>
       <r>    8.3878    1.0000 </r>
       <r>    9.5048    1.0000 </r>
       <r>   10.0461    1.0000 </r>
       <r>   10.0831    0.8471 </r>
       <r>   10.2717    0.0000 </r>
       <r>   10.3894    0.0000 </r>
       <r>   10.6074    0.0000 </r>
      </set>
      <set comment="kpoint 22">
       <r>  -34.0266    1.0000 </r>
       <r>  -12.8489    1.0000 </r>
       <r>  -12.8315    1.0000 </r>
       <r>  -12.8028    1.0000 </r>
       <r>  -12.7964    1.0000 </r>
       <r>  -12.7956    1.0000 </r>
       <r>   -9.4364    1.0000 </r>
       <r>   -9.3178    1.0000 </r>
       <r>   -9.3031    1.0000 </r>
       <r>   -1.7311    1.0000 </r>
       <r>    4.0974    1.0000 </r>
       <r>    5.1482    1.0000 </r>
       <r>    5.3511    1.0000 </r>
       <r>    5.8420    1.0000 </r>
       <r>    6.0430    1.0000 </r>
       <r>    6.9442    1.0000 </r>
       <r>    8.1342    1.0000 </r>
       <r>    8.3713    1.0000 </r>
       <r>    9.5370    1.0000 </r>
       <r>   10.0645    0.9999 </r>
       <r>   10.0950    0.2552 </r>
       <r>   10.3558    0.0000 </r>
       <r>   10.3907    0.0000 </r>
       <r>   10.6042    0.0000 </r>
      </set>
      <set comment="kpoint 23">
       <r>  -34.0256    1.0000 </r>
       <r>  -12.8505    1.0000 </r>
       <r>  -12.8381    1.0000 </r>
       <r>  -12.8038    1.0000 </r>
       <r>  -12.7961    1.0000 </r>
       <r>  -12.7946    1.0000 </r>
       <r>   -9.4793    1.0000 </r>
       <r>   -9.3040    1.0000 </r>
       <r>   -9.2959    1.0000 </r>
       <r>   -1.5208    1.0000 </r>
       <r>    4.0299    1.0000 </r>
       <r>    4.9724    1.0000 </r>
       <r>    5.2514    1.0000 </r>
       <r>    5.8136    1.0000 </r>
       <r>    6.0469    1.0000 </r>
       <r>    6.5602    1.0000 </r>
       <r>    8.0484    1.0000 </r>
       <r>    8.4019    1.0000 </r>
       <r>    9.5528    1.0000 </r>
       <r>   10.1115    0.0014 </r>
       <r>   10.1207    0.0000 </r>
       <r>   10.3853    0.0000 </r>
       <r>   10.3874    0.0000 </r>
       <r>   10.5737    0.0000 </r>
      </set>
      <set comment="kpoint 24">
       <r>  -34.0249    1.0000 </r>
       <r>  -12.8501    1.0000 </r>
       <r>  -12.8452    1.0000 </r>
       <r>  -12.8045    1.0000 </r>
       <r>  -12.7960    1.0000 </r>
       <r>  -12.7941    1.0000 </r>
       <r>   -9.5083    1.0000 </r>
       <r>   -9.2965    1.0000 </r>
       <r>   -9.2881    1.0000 </r>
       <r>   -1.3643    1.0000 </r>
       <r>    4.0240    1.0000 </r>
       <r>    4.8998    1.0000 </r>
       <r>    5.1229    1.0000 </r>
       <r>    5.8173    1.0000 </r>
       <r>    5.9831    1.0000 </r>
       <r>    6.2771    1.0000 </r>
       <r>    8.0213    1.0000 </r>
       <r>    8.4317    1.0000 </r>
       <r>    9.5825    1.0000 </r>
       <r>   10.1515    0.0000 </r>
       <r>   10.1630    0.0000 </r>
       <r>   10.3707    0.0000 </r>
       <r>   10.4036    0.0000 </r>
       <r>   10.5508    0.0000 </r>
      </set>
      <set comment="kpoint 25">
       <r>  -34.0246    1.0000 </r>
       <r>  -12.8513    1.0000 </r>
       <r>  -12.8478    1.0000 </r>
       <r>  -12.8047    1.0000 </r>
       <r>  -12.7959    1.0000 </r>
       <r>  -12.7940    1.0000 </r>
       <r>   -9.5191    1.0000 </r>
       <r>   -9.3045    1.0000 </r>
       <r>   -9.2735    1.0000 </r>
       <r>   -1.2905    1.0000 </r>
       <r>    4.0280    1.0000 </r>
       <r>    4.9383    1.0000 </r>
       <r>    4.9728    1.0000 </r>
       <r>    5.8862    1.0000 </r>
       <r>    5.8899    1.0000 </r>
       <r>    6.1625    1.0000 </r>
       <r>    8.0009    1.0000 </r>
       <r>    8.4392    1.0000 </r>
       <r>    9.6124    1.0000 </r>
       <r>   10.1539    0.0000 </r>
       <r>   10.2132    0.0000 </r>
       <r>   10.3404    0.0000 </r>
       <r>   10.4326    0.0000 </r>
       <r>   10.4956    0.0000 </r>
      </set>
      <set comment="kpoint 26">
       <r>  -34.0248    1.0000 </r>
       <r>  -12.8549    1.0000 </r>
       <r>  -12.8442    1.0000 </r>
       <r>  -12.8041    1.0000 </r>
       <r>  -12.7960    1.0000 </r>
       <r>  -12.7945    1.0000 </r>
       <r>   -9.5111    1.0000 </r>
       <r>   -9.3172    1.0000 </r>
       <r>   -9.2637    1.0000 </r>
       <r>   -1.3123    1.0000 </r>
       <r>    4.0228    1.0000 </r>
       <r>    4.8399    1.0000 </r>
       <r>    5.0597    1.0000 </r>
       <r>    5.8099    1.0000 </r>
       <r>    6.0089    1.0000 </r>
       <r>    6.2351    1.0000 </r>
       <r>    7.9449    1.0000 </r>
       <r>    8.4372    1.0000 </r>
       <r>    9.6121    1.0000 </r>
       <r>   10.1243    0.0000 </r>
       <r>   10.2273    0.0000 </r>
       <r>   10.3247    0.0000 </r>
       <r>   10.4651    0.0000 </r>
       <r>   10.4737    0.0000 </r>
      </set>
      <set comment="kpoint 27">
       <r>  -34.0254    1.0000 </r>
       <r>  -12.8555    1.0000 </r>
       <r>  -12.8399    1.0000 </r>
       <r>  -12.8031    1.0000 </r>
       <r>  -12.7962    1.0000 </r>
       <r>  -12.7953    1.0000 </r>
       <r>   -9.4865    1.0000 </r>
       <r>   -9.3307    1.0000 </r>
       <r>   -9.2609    1.0000 </r>
       <r>   -1.4297    1.0000 </r>
       <r>    4.0533    1.0000 </r>
       <r>    4.7590    1.0000 </r>
       <r>    5.2208    1.0000 </r>
       <r>    5.7788    1.0000 </r>
       <r>    6.1271    1.0000 </r>
       <r>    6.4697    1.0000 </r>
       <r>    7.8483    1.0000 </r>
       <r>    8.4581    1.0000 </r>
       <r>    9.5850    1.0000 </r>
       <r>   10.0945    0.2786 </r>
       <r>   10.1767    0.0000 </r>
       <r>   10.3500    0.0000 </r>
       <r>   10.4547    0.0000 </r>
       <r>   10.4927    0.0000 </r>
      </set>
      <set comment="kpoint 28">
       <r>  -34.0263    1.0000 </r>
       <r>  -12.8528    1.0000 </r>
       <r>  -12.8359    1.0000 </r>
       <r>  -12.8020    1.0000 </r>
       <r>  -12.7965    1.0000 </r>
       <r>  -12.7962    1.0000 </r>
       <r>   -9.4513    1.0000 </r>
       <r>   -9.3398    1.0000 </r>
       <r>   -9.2657    1.0000 </r>
       <r>   -1.6235    1.0000 </r>
       <r>    4.1777    1.0000 </r>
       <r>    4.7507    1.0000 </r>
       <r>    5.3855    1.0000 </r>
       <r>    5.7717    1.0000 </r>
       <r>    6.1947    1.0000 </r>
       <r>    6.8089    1.0000 </r>
       <r>    7.7722    1.0000 </r>
       <r>    8.5295    1.0000 </r>
       <r>    9.5534    1.0000 </r>
       <r>   10.0768    0.9722 </r>
       <r>   10.1161    0.0001 </r>
       <r>   10.3610    0.0000 </r>
       <r>   10.4223    0.0000 </r>
       <r>   10.5427    0.0000 </r>
      </set>
      <set comment="kpoint 29">
       <r>  -34.0273    1.0000 </r>
       <r>  -12.8474    1.0000 </r>
       <r>  -12.8330    1.0000 </r>
       <r>  -12.8012    1.0000 </r>
       <r>  -12.7971    1.0000 </r>
       <r>  -12.7969    1.0000 </r>
       <r>   -9.4165    1.0000 </r>
       <r>   -9.3377    1.0000 </r>
       <r>   -9.2771    1.0000 </r>
       <r>   -1.8507    1.0000 </r>
       <r>    4.4121    1.0000 </r>
       <r>    4.8227    1.0000 </r>
       <r>    5.4989    1.0000 </r>
       <r>    5.7636    1.0000 </r>
       <r>    6.1826    1.0000 </r>
       <r>    7.1191    1.0000 </r>
       <r>    7.8912    1.0000 </r>
       <r>    8.6413    1.0000 </r>
       <r>    9.5144    1.0000 </r>
       <r>   10.0626    1.0000 </r>
       <r>   10.0664    0.9996 </r>
       <r>   10.3571    0.0000 </r>
       <r>   10.3777    0.0000 </r>
       <r>   10.5854    0.0000 </r>
      </set>
      <set comment="kpoint 30">
       <r>  -34.0270    1.0000 </r>
       <r>  -12.8470    1.0000 </r>
       <r>  -12.8243    1.0000 </r>
       <r>  -12.8029    1.0000 </r>
       <r>  -12.7959    1.0000 </r>
       <r>  -12.7959    1.0000 </r>
       <r>   -9.3879    1.0000 </r>
       <r>   -9.3339    1.0000 </r>
       <r>   -9.3339    1.0000 </r>
       <r>   -1.8566    1.0000 </r>
       <r>    4.0669    1.0000 </r>
       <r>    5.5068    1.0000 </r>
       <r>    5.5068    1.0000 </r>
       <r>    5.8186    1.0000 </r>
       <r>    5.8240    1.0000 </r>
       <r>    7.2992    1.0000 </r>
       <r>    8.3053    1.0000 </r>
       <r>    8.3053    1.0000 </r>
       <r>    9.4596    1.0000 </r>
       <r>   10.0953    0.2425 </r>
       <r>   10.0953    0.2425 </r>
       <r>   10.2337    0.0000 </r>
       <r>   10.4309    0.0000 </r>
       <r>   10.6785    0.0000 </r>
      </set>
      <set comment="kpoint 31">
       <r>  -34.0262    1.0000 </r>
       <r>  -12.8469    1.0000 </r>
       <r>  -12.8254    1.0000 </r>
       <r>  -12.8039    1.0000 </r>
       <r>  -12.7952    1.0000 </r>
       <r>  -12.7949    1.0000 </r>
       <r>   -9.4213    1.0000 </r>
       <r>   -9.3331    1.0000 </r>
       <r>   -9.3291    1.0000 </r>
       <r>   -1.7228    1.0000 </r>
       <r>    3.9977    1.0000 </r>
       <r>    5.3482    1.0000 </r>
       <r>    5.4597    1.0000 </r>
       <r>    5.8502    1.0000 </r>
       <r>    5.8616    1.0000 </r>
       <r>    7.0933    1.0000 </r>
       <r>    8.1491    1.0000 </r>
       <r>    8.2984    1.0000 </r>
       <r>    9.5478    1.0000 </r>
       <r>   10.0814    0.8963 </r>
       <r>   10.1078    0.0066 </r>
       <r>   10.2811    0.0000 </r>
       <r>   10.4497    0.0000 </r>
       <r>   10.6640    0.0000 </r>
      </set>
      <set comment="kpoint 32">
       <r>  -34.0253    1.0000 </r>
       <r>  -12.8454    1.0000 </r>
       <r>  -12.8300    1.0000 </r>
       <r>  -12.8046    1.0000 </r>
       <r>  -12.7951    1.0000 </r>
       <r>  -12.7939    1.0000 </r>
       <r>   -9.4585    1.0000 </r>
       <r>   -9.3251    1.0000 </r>
       <r>   -9.3243    1.0000 </r>
       <r>   -1.5842    1.0000 </r>
       <r>    4.0531    1.0000 </r>
       <r>    5.1260    1.0000 </r>
       <r>    5.3629    1.0000 </r>
       <r>    5.8551    1.0000 </r>
       <r>    5.9489    1.0000 </r>
       <r>    6.8034    1.0000 </r>
       <r>    7.9154    1.0000 </r>
       <r>    8.3364    1.0000 </r>
       <r>    9.6420    1.0000 </r>
       <r>   10.0941    0.2963 </r>
       <r>   10.1294    0.0000 </r>
       <r>   10.3191    0.0000 </r>
       <r>   10.4463    0.0000 </r>
       <r>   10.6193    0.0000 </r>
      </set>
      <set comment="kpoint 33">
       <r>  -34.0247    1.0000 </r>
       <r>  -12.8430    1.0000 </r>
       <r>  -12.8367    1.0000 </r>
       <r>  -12.8046    1.0000 </r>
       <r>  -12.7956    1.0000 </r>
       <r>  -12.7933    1.0000 </r>
       <r>   -9.4843    1.0000 </r>
       <r>   -9.3299    1.0000 </r>
       <r>   -9.3095    1.0000 </r>
       <r>   -1.4690    1.0000 </r>
       <r>    4.1930    1.0000 </r>
       <r>    4.9734    1.0000 </r>
       <r>    5.2187    1.0000 </r>
       <r>    5.8835    1.0000 </r>
       <r>    5.9742    1.0000 </r>
       <r>    6.5152    1.0000 </r>
       <r>    7.7399    1.0000 </r>
       <r>    8.3635    1.0000 </r>
       <r>    9.6825    1.0000 </r>
       <r>   10.1269    0.0000 </r>
       <r>   10.1652    0.0000 </r>
       <r>   10.3583    0.0000 </r>
       <r>   10.4253    0.0000 </r>
       <r>   10.5733    0.0000 </r>
      </set>
      <set comment="kpoint 34">
       <r>  -34.0243    1.0000 </r>
       <r>  -12.8441    1.0000 </r>
       <r>  -12.8402    1.0000 </r>
       <r>  -12.8040    1.0000 </r>
       <r>  -12.7964    1.0000 </r>
       <r>  -12.7933    1.0000 </r>
       <r>   -9.4936    1.0000 </r>
       <r>   -9.3429    1.0000 </r>
       <r>   -9.2920    1.0000 </r>
       <r>   -1.3921    1.0000 </r>
       <r>    4.3125    1.0000 </r>
       <r>    4.9207    1.0000 </r>
       <r>    5.0462    1.0000 </r>
       <r>    5.9181    1.0000 </r>
       <r>    5.9603    1.0000 </r>
       <r>    6.3598    1.0000 </r>
       <r>    7.6233    1.0000 </r>
       <r>    8.3570    1.0000 </r>
       <r>    9.7102    1.0000 </r>
       <r>   10.1291    0.0000 </r>
       <r>   10.2133    0.0000 </r>
       <r>   10.3836    0.0000 </r>
       <r>   10.4167    0.0000 </r>
       <r>   10.5389    0.0000 </r>
      </set>
      <set comment="kpoint 35">
       <r>  -34.0243    1.0000 </r>
       <r>  -12.8505    1.0000 </r>
       <r>  -12.8379    1.0000 </r>
       <r>  -12.8027    1.0000 </r>
       <r>  -12.7973    1.0000 </r>
       <r>  -12.7937    1.0000 </r>
       <r>   -9.4872    1.0000 </r>
       <r>   -9.3595    1.0000 </r>
       <r>   -9.2758    1.0000 </r>
       <r>   -1.3621    1.0000 </r>
       <r>    4.2902    1.0000 </r>
       <r>    4.8844    1.0000 </r>
       <r>    4.9825    1.0000 </r>
       <r>    5.8457    1.0000 </r>
       <r>    6.0667    1.0000 </r>
       <r>    6.4036    1.0000 </r>
       <r>    7.5258    1.0000 </r>
       <r>    8.3386    1.0000 </r>
       <r>    9.7234    1.0000 </r>
       <r>   10.1012    0.0625 </r>
       <r>   10.2631    0.0000 </r>
       <r>   10.3267    0.0000 </r>
       <r>   10.4544    0.0000 </r>
       <r>   10.5089    0.0000 </r>
      </set>
      <set comment="kpoint 36">
       <r>  -34.0247    1.0000 </r>
       <r>  -12.8546    1.0000 </r>
       <r>  -12.8362    1.0000 </r>
       <r>  -12.8017    1.0000 </r>
       <r>  -12.7976    1.0000 </r>
       <r>  -12.7945    1.0000 </r>
       <r>   -9.4711    1.0000 </r>
       <r>   -9.3708    1.0000 </r>
       <r>   -9.2646    1.0000 </r>
       <r>   -1.3889    1.0000 </r>
       <r>    4.1719    1.0000 </r>
       <r>    4.7676    1.0000 </r>
       <r>    5.1243    1.0000 </r>
       <r>    5.8052    1.0000 </r>
       <r>    6.1640    1.0000 </r>
       <r>    6.6020    1.0000 </r>
       <r>    7.4304    1.0000 </r>
       <r>    8.3495    1.0000 </r>
       <r>    9.7030    1.0000 </r>
       <r>   10.0779    0.9607 </r>
       <r>   10.2457    0.0000 </r>
       <r>   10.3266    0.0000 </r>
       <r>   10.4490    0.0000 </r>
       <r>   10.4921    0.0000 </r>
      </set>
      <set comment="kpoint 37">
       <r>  -34.0254    1.0000 </r>
       <r>  -12.8554    1.0000 </r>
       <r>  -12.8355    1.0000 </r>
       <r>  -12.8017    1.0000 </r>
       <r>  -12.7971    1.0000 </r>
       <r>  -12.7954    1.0000 </r>
[...]
       <r>    9.8319    1.0000 </r>
       <r>   10.1129    0.0007 </r>
       <r>   10.3009    0.0000 </r>
       <r>   10.3566    0.0000 </r>
       <r>   10.4482    0.0000 </r>
       <r>   10.5220    0.0000 </r>
      </set>
      <set comment="kpoint 81">
       <r>  -34.0240    1.0000 </r>
       <r>  -12.8463    1.0000 </r>
       <r>  -12.8292    1.0000 </r>
       <r>  -12.8021    1.0000 </r>
       <r>  -12.7986    1.0000 </r>
       <r>  -12.7923    1.0000 </r>
       <r>   -9.4548    1.0000 </r>
       <r>   -9.3951    1.0000 </r>
       <r>   -9.2992    1.0000 </r>
       <r>   -1.4480    1.0000 </r>
       <r>    4.5604    1.0000 </r>
       <r>    4.7944    1.0000 </r>
       <r>    5.2265    1.0000 </r>
       <r>    5.8630    1.0000 </r>
       <r>    6.0905    1.0000 </r>
       <r>    6.5986    1.0000 </r>
       <r>    6.9962    1.0000 </r>
       <r>    8.4472    1.0000 </r>
       <r>    9.8095    1.0000 </r>
       <r>   10.0966    0.1881 </r>
       <r>   10.2901    0.0000 </r>
       <r>   10.3462    0.0000 </r>
       <r>   10.4241    0.0000 </r>
       <r>   10.5341    0.0000 </r>
      </set>
      <set comment="kpoint 82">
       <r>  -34.0237    1.0000 </r>
       <r>  -12.8360    1.0000 </r>
       <r>  -12.8227    1.0000 </r>
       <r>  -12.8055    1.0000 </r>
       <r>  -12.7956    1.0000 </r>
       <r>  -12.7912    1.0000 </r>
       <r>   -9.4698    1.0000 </r>
       <r>   -9.3775    1.0000 </r>
       <r>   -9.3334    1.0000 </r>
       <r>   -1.5510    1.0000 </r>
       <r>    4.7842    1.0000 </r>
       <r>    5.0268    1.0000 </r>
       <r>    5.3516    1.0000 </r>
       <r>    5.8093    1.0000 </r>
       <r>    6.0679    1.0000 </r>
       <r>    6.2235    1.0000 </r>
       <r>    7.2748    1.0000 </r>
       <r>    8.5676    1.0000 </r>
       <r>    9.8892    1.0000 </r>
       <r>   10.1122    0.0010 </r>
       <r>   10.2392    0.0000 </r>
       <r>   10.4057    0.0000 </r>
       <r>   10.4812    0.0000 </r>
       <r>   10.5164    0.0000 </r>
      </set>
      <set comment="kpoint 83">
       <r>  -34.0237    1.0000 </r>
       <r>  -12.8402    1.0000 </r>
       <r>  -12.8228    1.0000 </r>
       <r>  -12.8039    1.0000 </r>
       <r>  -12.7976    1.0000 </r>
       <r>  -12.7912    1.0000 </r>
       <r>   -9.4561    1.0000 </r>
       <r>   -9.3938    1.0000 </r>
       <r>   -9.3263    1.0000 </r>
       <r>   -1.5162    1.0000 </r>
       <r>    4.7503    1.0000 </r>
       <r>    5.0409    1.0000 </r>
       <r>    5.3173    1.0000 </r>
       <r>    5.8322    1.0000 </r>
       <r>    6.1055    1.0000 </r>
       <r>    6.3114    1.0000 </r>
       <r>    6.9390    1.0000 </r>
       <r>    8.5590    1.0000 </r>
       <r>    9.8711    1.0000 </r>
       <r>   10.1233    0.0000 </r>
       <r>   10.2737    0.0000 </r>
       <r>   10.4188    0.0000 </r>
       <r>   10.4648    0.0000 </r>
       <r>   10.4867    0.0000 </r>
      </set>
      <set comment="kpoint 84">
       <r>  -34.0237    1.0000 </r>
       <r>  -12.8427    1.0000 </r>
       <r>  -12.8229    1.0000 </r>
       <r>  -12.8026    1.0000 </r>
       <r>  -12.7993    1.0000 </r>
       <r>  -12.7911    1.0000 </r>
       <r>   -9.4480    1.0000 </r>
       <r>   -9.3996    1.0000 </r>
       <r>   -9.3248    1.0000 </r>
       <r>   -1.4986    1.0000 </r>
       <r>    4.7146    1.0000 </r>
       <r>    5.0036    1.0000 </r>
       <r>    5.3355    1.0000 </r>
       <r>    5.8524    1.0000 </r>
       <r>    6.1391    1.0000 </r>
       <r>    6.4465    1.0000 </r>
       <r>    6.6813    1.0000 </r>
       <r>    8.5772    1.0000 </r>
       <r>    9.8595    1.0000 </r>
       <r>   10.1329    0.0000 </r>
       <r>   10.3104    0.0000 </r>
       <r>   10.3721    0.0000 </r>
       <r>   10.4525    0.0000 </r>
       <r>   10.5128    0.0000 </r>
      </set>
     </set>
    </set>
   </array>
  </eigenvalues>
  <separator name="orbital magnetization" >
   <v name="MAGDIPOLOUT">      0.00000000      0.00000000      0.00000000</v>
  </separator>
  <dos>
   <i name="efermi">     10.09032544 </i>
   <total>
    <array>
     <dimension dim="1">gridpoints</dimension>
     <dimension dim="2">spin</dimension>
     <field>energy</field>
     <field>total</field>
     <field>integrated</field>
     <set>
      <set comment="spin 1">
       <r>   -36.2689     0.0000     0.0000 </r>
       <r>   -36.1047     0.0000     0.0000 </r>
       <r>   -35.9405     0.0000     0.0000 </r>
       <r>   -35.7763     0.0000     0.0000 </r>
       <r>   -35.6121     0.0000     0.0000 </r>
       <r>   -35.4478     0.0000     0.0000 </r>
       <r>   -35.2836     0.0000     0.0000 </r>
       <r>   -35.1194     0.0000     0.0000 </r>
       <r>   -34.9552     0.0000     0.0000 </r>
       <r>   -34.7910     0.0000     0.0000 </r>
       <r>   -34.6268     0.0000     0.0000 </r>
       <r>   -34.4626     0.0000     0.0000 </r>
       <r>   -34.2984     0.0000     0.0000 </r>
       <r>   -34.1341     0.0000     0.0000 </r>
       <r>   -33.9699    12.1793     2.0000 </r>
       <r>   -33.8057     0.0000     2.0000 </r>
       <r>   -33.6415     0.0000     2.0000 </r>
       <r>   -33.4773     0.0000     2.0000 </r>
       <r>   -33.3131     0.0000     2.0000 </r>
       <r>   -33.1489     0.0000     2.0000 </r>
       <r>   -32.9847     0.0000     2.0000 </r>
       <r>   -32.8204     0.0000     2.0000 </r>
       <r>   -32.6562     0.0000     2.0000 </r>
       <r>   -32.4920     0.0000     2.0000 </r>
       <r>   -32.3278     0.0000     2.0000 </r>
       <r>   -32.1636     0.0000     2.0000 </r>
       <r>   -31.9994     0.0000     2.0000 </r>
       <r>   -31.8352     0.0000     2.0000 </r>
       <r>   -31.6710     0.0000     2.0000 </r>
       <r>   -31.5067     0.0000     2.0000 </r>
       <r>   -31.3425     0.0000     2.0000 </r>
       <r>   -31.1783     0.0000     2.0000 </r>
       <r>   -31.0141     0.0000     2.0000 </r>
       <r>   -30.8499     0.0000     2.0000 </r>
       <r>   -30.6857     0.0000     2.0000 </r>
       <r>   -30.5215     0.0000     2.0000 </r>
       <r>   -30.3573     0.0000     2.0000 </r>
       <r>   -30.1930     0.0000     2.0000 </r>
       <r>   -30.0288     0.0000     2.0000 </r>
       <r>   -29.8646     0.0000     2.0000 </r>
       <r>   -29.7004     0.0000     2.0000 </r>
       <r>   -29.5362     0.0000     2.0000 </r>
       <r>   -29.3720     0.0000     2.0000 </r>
       <r>   -29.2078     0.0000     2.0000 </r>
       <r>   -29.0436     0.0000     2.0000 </r>
       <r>   -28.8793     0.0000     2.0000 </r>
       <r>   -28.7151     0.0000     2.0000 </r>
       <r>   -28.5509     0.0000     2.0000 </r>
       <r>   -28.3867     0.0000     2.0000 </r>
       <r>   -28.2225     0.0000     2.0000 </r>
       <r>   -28.0583     0.0000     2.0000 </r>
       <r>   -27.8941     0.0000     2.0000 </r>
       <r>   -27.7299     0.0000     2.0000 </r>
       <r>   -27.5656     0.0000     2.0000 </r>
       <r>   -27.4014     0.0000     2.0000 </r>
       <r>   -27.2372     0.0000     2.0000 </r>
       <r>   -27.0730     0.0000     2.0000 </r>
       <r>   -26.9088     0.0000     2.0000 </r>
       <r>   -26.7446     0.0000     2.0000 </r>
       <r>   -26.5804     0.0000     2.0000 </r>
       <r>   -26.4162     0.0000     2.0000 </r>
       <r>   -26.2519     0.0000     2.0000 </r>
       <r>   -26.0877     0.0000     2.0000 </r>
       <r>   -25.9235     0.0000     2.0000 </r>
       <r>   -25.7593     0.0000     2.0000 </r>
       <r>   -25.5951     0.0000     2.0000 </r>
       <r>   -25.4309     0.0000     2.0000 </r>
       <r>   -25.2667     0.0000     2.0000 </r>
       <r>   -25.1025     0.0000     2.0000 </r>
       <r>   -24.9382     0.0000     2.0000 </r>
       <r>   -24.7740     0.0000     2.0000 </r>
       <r>   -24.6098     0.0000     2.0000 </r>
       <r>   -24.4456     0.0000     2.0000 </r>
       <r>   -24.2814     0.0000     2.0000 </r>
       <r>   -24.1172     0.0000     2.0000 </r>
       <r>   -23.9530     0.0000     2.0000 </r>
       <r>   -23.7888     0.0000     2.0000 </r>
       <r>   -23.6245     0.0000     2.0000 </r>
       <r>   -23.4603     0.0000     2.0000 </r>
       <r>   -23.2961     0.0000     2.0000 </r>
       <r>   -23.1319     0.0000     2.0000 </r>
       <r>   -22.9677     0.0000     2.0000 </r>
       <r>   -22.8035     0.0000     2.0000 </r>
       <r>   -22.6393     0.0000     2.0000 </r>
       <r>   -22.4751     0.0000     2.0000 </r>
       <r>   -22.3108     0.0000     2.0000 </r>
       <r>   -22.1466     0.0000     2.0000 </r>
       <r>   -21.9824     0.0000     2.0000 </r>
       <r>   -21.8182     0.0000     2.0000 </r>
       <r>   -21.6540     0.0000     2.0000 </r>
       <r>   -21.4898     0.0000     2.0000 </r>
       <r>   -21.3256     0.0000     2.0000 </r>
       <r>   -21.1614     0.0000     2.0000 </r>
       <r>   -20.9971     0.0000     2.0000 </r>
       <r>   -20.8329     0.0000     2.0000 </r>
       <r>   -20.6687     0.0000     2.0000 </r>
       <r>   -20.5045     0.0000     2.0000 </r>
       <r>   -20.3403     0.0000     2.0000 </r>
       <r>   -20.1761     0.0000     2.0000 </r>
       <r>   -20.0119     0.0000     2.0000 </r>
       <r>   -19.8477     0.0000     2.0000 </r>
       <r>   -19.6834     0.0000     2.0000 </r>
       <r>   -19.5192     0.0000     2.0000 </r>
       <r>   -19.3550     0.0000     2.0000 </r>
       <r>   -19.1908     0.0000     2.0000 </r>
       <r>   -19.0266     0.0000     2.0000 </r>
       <r>   -18.8624     0.0000     2.0000 </r>
       <r>   -18.6982     0.0000     2.0000 </r>
       <r>   -18.5340     0.0000     2.0000 </r>
       <r>   -18.3697     0.0000     2.0000 </r>
       <r>   -18.2055     0.0000     2.0000 </r>
       <r>   -18.0413     0.0000     2.0000 </r>
       <r>   -17.8771     0.0000     2.0000 </r>
       <r>   -17.7129     0.0000     2.0000 </r>
       <r>   -17.5487     0.0000     2.0000 </r>
       <r>   -17.3845     0.0000     2.0000 </r>
       <r>   -17.2203     0.0000     2.0000 </r>
       <r>   -17.0560     0.0000     2.0000 </r>
       <r>   -16.8918     0.0000     2.0000 </r>
       <r>   -16.7276     0.0000     2.0000 </r>
       <r>   -16.5634     0.0000     2.0000 </r>
       <r>   -16.3992     0.0000     2.0000 </r>
       <r>   -16.2350     0.0000     2.0000 </r>
       <r>   -16.0708     0.0000     2.0000 </r>
       <r>   -15.9066     0.0000     2.0000 </r>
       <r>   -15.7423     0.0000     2.0000 </r>
       <r>   -15.5781     0.0000     2.0000 </r>
       <r>   -15.4139     0.0000     2.0000 </r>
       <r>   -15.2497     0.0000     2.0000 </r>
       <r>   -15.0855     0.0000     2.0000 </r>
       <r>   -14.9213     0.0000     2.0000 </r>
       <r>   -14.7571     0.0000     2.0000 </r>
       <r>   -14.5929     0.0000     2.0000 </r>
       <r>   -14.4286     0.0000     2.0000 </r>
       <r>   -14.2644     0.0000     2.0000 </r>
       <r>   -14.1002     0.0000     2.0000 </r>
       <r>   -13.9360     0.0000     2.0000 </r>
       <r>   -13.7718     0.0000     2.0000 </r>
       <r>   -13.6076     0.0000     2.0000 </r>
       <r>   -13.4434     0.0000     2.0000 </r>
       <r>   -13.2792     0.0000     2.0000 </r>
       <r>   -13.1149     0.0000     2.0000 </r>
       <r>   -12.9507     0.0000     2.0000 </r>
       <r>   -12.7865    57.8154    11.4940 </r>
       <r>   -12.6223     0.0000    12.0000 </r>
       <r>   -12.4581     0.0000    12.0000 </r>
       <r>   -12.2939     0.0000    12.0000 </r>
       <r>   -12.1297     0.0000    12.0000 </r>
       <r>   -11.9655     0.0000    12.0000 </r>
       <r>   -11.8012     0.0000    12.0000 </r>
       <r>   -11.6370     0.0000    12.0000 </r>
       <r>   -11.4728     0.0000    12.0000 </r>
       <r>   -11.3086     0.0000    12.0000 </r>
       <r>   -11.1444     0.0000    12.0000 </r>
       <r>   -10.9802     0.0000    12.0000 </r>
       <r>   -10.8160     0.0000    12.0000 </r>
       <r>   -10.6518     0.0000    12.0000 </r>
       <r>   -10.4875     0.0000    12.0000 </r>
       <r>   -10.3233     0.0000    12.0000 </r>
       <r>   -10.1591     0.0000    12.0000 </r>
       <r>    -9.9949     0.0000    12.0000 </r>
       <r>    -9.8307     0.0000    12.0000 </r>
       <r>    -9.6665     0.0000    12.0000 </r>
       <r>    -9.5023     1.6014    12.2630 </r>
       <r>    -9.3381     8.7904    15.2587 </r>
       <r>    -9.1738     0.0000    18.0000 </r>
       <r>    -9.0096     0.0000    18.0000 </r>
       <r>    -8.8454     0.0000    18.0000 </r>
       <r>    -8.6812     0.0000    18.0000 </r>
       <r>    -8.5170     0.0000    18.0000 </r>
       <r>    -8.3528     0.0000    18.0000 </r>
       <r>    -8.1886     0.0000    18.0000 </r>
       <r>    -8.0244     0.0000    18.0000 </r>
       <r>    -7.8601     0.0000    18.0000 </r>
       <r>    -7.6959     0.0000    18.0000 </r>
       <r>    -7.5317     0.0000    18.0000 </r>
       <r>    -7.3675     0.0000    18.0000 </r>
       <r>    -7.2033     0.0000    18.0000 </r>
       <r>    -7.0391     0.0000    18.0000 </r>
       <r>    -6.8749     0.0000    18.0000 </r>
       <r>    -6.7107     0.0000    18.0000 </r>
       <r>    -6.5464     0.0000    18.0000 </r>
       <r>    -6.3822     0.0000    18.0000 </r>
       <r>    -6.2180     0.0000    18.0000 </r>
       <r>    -6.0538     0.0000    18.0000 </r>
       <r>    -5.8896     0.0000    18.0000 </r>
       <r>    -5.7254     0.0000    18.0000 </r>
       <r>    -5.5612     0.0000    18.0000 </r>
       <r>    -5.3970     0.0000    18.0000 </r>
       <r>    -5.2327     0.0000    18.0000 </r>
       <r>    -5.0685     0.0000    18.0000 </r>
       <r>    -4.9043     0.0000    18.0000 </r>
       <r>    -4.7401     0.0000    18.0000 </r>
       <r>    -4.5759     0.0000    18.0000 </r>
       <r>    -4.4117     0.0000    18.0000 </r>
       <r>    -4.2475     0.0000    18.0000 </r>
       <r>    -4.0833     0.0000    18.0000 </r>
       <r>    -3.9190     0.0000    18.0000 </r>
       <r>    -3.7548     0.0000    18.0000 </r>
       <r>    -3.5906     0.0000    18.0000 </r>
       <r>    -3.4264     0.0000    18.0000 </r>
       <r>    -3.2622     0.0000    18.0000 </r>
       <r>    -3.0980     0.0000    18.0000 </r>
       <r>    -2.9338     0.0000    18.0000 </r>
       <r>    -2.7696     0.0000    18.0000 </r>
       <r>    -2.6053     0.0000    18.0000 </r>
       <r>    -2.4411     0.0040    18.0007 </r>
       <r>    -2.2769     0.0416    18.0150 </r>
       <r>    -2.1127     0.0755    18.0588 </r>
       <r>    -1.9485     0.2074    18.1369 </r>
       <r>    -1.7843     0.5422    18.2429 </r>
       <r>    -1.6201     1.1178    18.4849 </r>
       <r>    -1.4559     2.8821    19.2680 </r>
       <r>    -1.2916     0.9192    19.8960 </r>
       <r>    -1.1274     0.0000    20.0000 </r>
       <r>    -0.9632     0.0000    20.0000 </r>
       <r>    -0.7990     0.0000    20.0000 </r>
       <r>    -0.6348     0.0000    20.0000 </r>
       <r>    -0.4706     0.0000    20.0000 </r>
       <r>    -0.3064     0.0000    20.0000 </r>
       <r>    -0.1422     0.0000    20.0000 </r>
       <r>     0.0221     0.0000    20.0000 </r>
       <r>     0.1863     0.0000    20.0000 </r>
       <r>     0.3505     0.0000    20.0000 </r>
       <r>     0.5147     0.0000    20.0000 </r>
       <r>     0.6789     0.0000    20.0000 </r>
       <r>     0.8431     0.0000    20.0000 </r>
       <r>     1.0073     0.0000    20.0000 </r>
       <r>     1.1715     0.0000    20.0000 </r>
       <r>     1.3358     0.0000    20.0000 </r>
       <r>     1.5000     0.0000    20.0000 </r>
       <r>     1.6642     0.0000    20.0000 </r>
       <r>     1.8284     0.0000    20.0000 </r>
       <r>     1.9926     0.0000    20.0000 </r>
       <r>     2.1568     0.0000    20.0000 </r>
       <r>     2.3210     0.0000    20.0000 </r>
       <r>     2.4852     0.0000    20.0000 </r>
       <r>     2.6495     0.0000    20.0000 </r>
       <r>     2.8137     0.0000    20.0000 </r>
       <r>     2.9779     0.0000    20.0000 </r>
       <r>     3.1421     0.0000    20.0000 </r>
       <r>     3.3063     0.0000    20.0000 </r>
       <r>     3.4705     0.0000    20.0000 </r>
       <r>     3.6347     0.0000    20.0000 </r>
       <r>     3.7989     0.0254    20.0042 </r>
       <r>     3.9632     0.2307    20.0889 </r>
       <r>     4.1274     1.8235    20.6690 </r>
       <r>     4.2916     1.0254    21.1006 </r>
       <r>     4.4558     1.3320    21.3548 </r>
       <r>     4.6200     0.2469    21.5153 </r>
       <r>     4.7842     1.4940    21.9021 </r>
       <r>     4.9484     3.0147    23.1459 </r>
       <r>     5.1126     2.5752    24.0478 </r>
       <r>     5.2769     2.7111    24.9896 </r>
       <r>     5.4411     1.8061    25.8350 </r>
       <r>     5.6053     0.0728    26.0229 </r>
       <r>     5.7695     0.8192    26.2055 </r>
       <r>     5.9337     5.1183    28.2424 </r>
       <r>     6.0979     4.7289    29.6514 </r>
       <r>     6.2621     0.7119    30.2717 </r>
       <r>     6.4263     1.2006    30.7197 </r>
       <r>     6.5906     1.2291    31.2342 </r>
       <r>     6.7548     0.7983    31.5294 </r>
       <r>     6.9190     0.5376    31.7378 </r>
       <r>     7.0832     0.5377    31.9472 </r>
       <r>     7.2474     0.3228    32.0976 </r>
       <r>     7.4116     0.6504    32.4300 </r>
       <r>     7.5758     0.5048    32.6100 </r>
       <r>     7.7400     1.0543    32.9679 </r>
       <r>     7.9043     0.7372    33.1670 </r>
       <r>     8.0685     1.6136    33.4967 </r>
       <r>     8.2327     0.1668    33.6214 </r>
       <r>     8.3969     3.8474    34.4333 </r>
       <r>     8.5611     2.9090    35.7321 </r>
       <r>     8.7253     0.0878    35.9398 </r>
       <r>     8.8895     0.1553    35.9982 </r>
       <r>     9.0537     0.0000    36.0009 </r>
       <r>     9.2180     0.0443    36.0082 </r>
       <r>     9.3822     0.1464    36.0541 </r>
       <r>     9.5464     1.6434    36.4893 </r>
       <r>     9.7106     2.2511    37.1571 </r>
       <r>     9.8748     2.1370    37.8867 </r>
       <r>    10.0390     0.8673    38.1370 </r>
       <r>    10.2032     6.3112    41.2130 </r>
       <r>    10.3674     9.3431    43.6162 </r>
       <r>    10.5317     8.2532    46.7991 </r>
       <r>    10.6959     0.9518    47.9852 </r>
       <r>    10.8601     0.0000    48.0000 </r>
       <r>    11.0243     0.0000    48.0000 </r>
       <r>    11.1885     0.0000    48.0000 </r>
       <r>    11.3527     0.0000    48.0000 </r>
       <r>    11.5169     0.0000    48.0000 </r>
       <r>    11.6811     0.0000    48.0000 </r>
       <r>    11.8453     0.0000    48.0000 </r>
       <r>    12.0096     0.0000    48.0000 </r>
       <r>    12.1738     0.0000    48.0000 </r>
       <r>    12.3380     0.0000    48.0000 </r>
       <r>    12.5022     0.0000    48.0000 </r>
       <r>    12.6664     0.0000    48.0000 </r>
       <r>    12.8306     0.0000    48.0000 </r>
       <r>    12.9948     0.0000    48.0000 </r>
      </set>
     </set>
    </array>
   </total>
  </dos>
 </calculation>
 <structure name="finalpos" >
  <crystal>
   <varray name="basis" >
    <v>       0.00000000       3.31764060       3.31764060 </v>
    <v>       3.31764060       0.00000000       3.31764060 </v>
    <v>       3.31764060       3.31764060       0.00000000 </v>
   </varray>
   <i name="volume">     73.03280919 </i>
   <varray name="rec_basis" >
    <v>      -0.15070951       0.15070951       0.15070951 </v>
    <v>       0.15070951      -0.15070951       0.15070951 </v>
    <v>       0.15070951       0.15070951      -0.15070951 </v>
   </varray>
  </crystal>
  <varray name="positions" >
   <v>       0.25000000       0.25000000       0.25000000 </v>
   <v>       0.00000000       0.00000000       0.00000000 </v>
   <v>       0.75000000       0.75000000       0.75000000 </v>
  </varray>
 </structure>
</modeling>
