Automatically generated mesh
     328
Reciprocal lattice
    0.00000000000000    0.00000000000000    0.00000000000000             1
    0.04545454545455    0.00000000000000    0.00000000000000            12
    0.09090909090909    0.00000000000000    0.00000000000000            12
    0.13636363636363    0.00000000000000    0.00000000000000            12
    0.18181818181818    0.00000000000000    0.00000000000000            12
    0.22727272727273    0.00000000000000    0.00000000000000            12
    0.27272727272727    0.00000000000000    0.00000000000000            12
    0.31818181818182    0.00000000000000    0.00000000000000            12
    0.36363636363637    0.00000000000000    0.00000000000000            12
    0.40909090909091    0.00000000000000    0.00000000000000            12
    0.45454545454545    0.00000000000000    0.00000000000000            12
    0.50000000000000    0.00000000000000    0.00000000000000             6
    0.04545454545455    0.04545454545455    0.00000000000000            24
    0.09090909090909    0.04545454545455    0.00000000000000            48
    0.13636363636363    0.04545454545455    0.00000000000000            48
    0.18181818181818    0.04545454545455    0.00000000000000            48
    0.22727272727273    0.04545454545455    0.00000000000000            48
    0.27272727272727    0.04545454545455    0.00000000000000            48
    0.31818181818182    0.04545454545455    0.00000000000000            48
    0.36363636363637    0.04545454545455    0.00000000000000            48
    0.40909090909091    0.04545454545455    0.00000000000000            48
    0.45454545454545    0.04545454545455    0.00000000000000            48
    0.09090909090909    0.09090909090909    0.00000000000000            24
    0.13636363636363    0.09090909090909    0.00000000000000            48
    0.18181818181818    0.09090909090909    0.00000000000000            48
    0.22727272727273    0.09090909090909    0.00000000000000            48
    0.27272727272727    0.09090909090909    0.00000000000000            48
    0.31818181818182    0.09090909090909    0.00000000000000            48
    0.36363636363637    0.09090909090909    0.00000000000000            48
    0.40909090909091    0.09090909090909    0.00000000000000            48
    0.45454545454545    0.09090909090909    0.00000000000000            24
    0.13636363636363    0.13636363636363    0.00000000000000            24
    0.18181818181818    0.13636363636363    0.00000000000000            48
    0.22727272727273    0.13636363636363    0.00000000000000            48
    0.27272727272727    0.13636363636363    0.00000000000000            48
    0.31818181818182    0.13636363636363    0.00000000000000            48
    0.36363636363637    0.13636363636363    0.00000000000000            48
    0.40909090909091    0.13636363636363    0.00000000000000            48
    0.18181818181818    0.18181818181818    0.00000000000000            24
    0.22727272727273    0.18181818181818    0.00000000000000            48
    0.27272727272727    0.18181818181818    0.00000000000000            48
    0.31818181818182    0.18181818181818    0.00000000000000            48
    0.36363636363637    0.18181818181818    0.00000000000000            48
    0.40909090909091    0.18181818181818    0.00000000000000            24
    0.22727272727273    0.22727272727273    0.00000000000000            24
    0.27272727272727    0.22727272727273    0.00000000000000            48
    0.31818181818182    0.22727272727273    0.00000000000000            48
    0.36363636363637    0.22727272727273    0.00000000000000            48
    0.27272727272727    0.27272727272727    0.00000000000000            24
    0.31818181818182    0.27272727272727    0.00000000000000            48
    0.36363636363637    0.27272727272727    0.00000000000000            24
    0.31818181818182    0.31818181818182    0.00000000000000            24
    0.04545454545455    0.04545454545455    0.04545454545455             8
    0.09090909090909    0.04545454545455    0.04545454545455            24
    0.13636363636363    0.04545454545455    0.04545454545455            24
    0.18181818181818    0.04545454545455    0.04545454545455            24
    0.22727272727273    0.04545454545455    0.04545454545455            24
    0.27272727272727    0.04545454545455    0.04545454545455            24
    0.31818181818182    0.04545454545455    0.04545454545455            24
    0.36363636363637    0.04545454545455    0.04545454545455            24
    0.40909090909091    0.04545454545455    0.04545454545455            24
    0.45454545454545    0.04545454545455    0.04545454545455            12
   -0.04545454545455    0.04545454545455    0.04545454545455             6
    0.09090909090909    0.09090909090909    0.04545454545455            24
    0.13636363636363    0.09090909090909    0.04545454545455            48
    0.18181818181818    0.09090909090909    0.04545454545455            48
    0.22727272727273    0.09090909090909    0.04545454545455            48
    0.27272727272727    0.09090909090909    0.04545454545455            48
    0.31818181818182    0.09090909090909    0.04545454545455            48
    0.36363636363637    0.09090909090909    0.04545454545455            48
    0.40909090909091    0.09090909090909    0.04545454545455            48
   -0.09090909090909    0.09090909090909    0.04545454545455            24
    0.13636363636363    0.13636363636363    0.04545454545455            24
    0.18181818181818    0.13636363636363    0.04545454545455            48
    0.22727272727273    0.13636363636363    0.04545454545455            48
    0.27272727272727    0.13636363636363    0.04545454545455            48
    0.31818181818182    0.13636363636363    0.04545454545455            48
    0.36363636363637    0.13636363636363    0.04545454545455            48
    0.40909090909091    0.13636363636363    0.04545454545455            24
   -0.13636363636363    0.13636363636363    0.04545454545455            24
   -0.09090909090909    0.13636363636363    0.04545454545455            24
    0.18181818181818    0.18181818181818    0.04545454545455            24
    0.22727272727273    0.18181818181818    0.04545454545455            48
    0.27272727272727    0.18181818181818    0.04545454545455            48
    0.31818181818182    0.18181818181818    0.04545454545455            48
    0.36363636363637    0.18181818181818    0.04545454545455            48
   -0.18181818181818    0.18181818181818    0.04545454545455            24
   -0.13636363636363    0.18181818181818    0.04545454545455            48
    0.22727272727273    0.22727272727273    0.04545454545455            24
    0.27272727272727    0.22727272727273    0.04545454545455            48
    0.31818181818182    0.22727272727273    0.04545454545455            48
    0.36363636363637    0.22727272727273    0.04545454545455            24
   -0.22727272727273    0.22727272727273    0.04545454545455            24
   -0.18181818181818    0.22727272727273    0.04545454545455            48
   -0.13636363636363    0.22727272727273    0.04545454545455            24
    0.27272727272727    0.27272727272727    0.04545454545455            24
    0.31818181818182    0.27272727272727    0.04545454545455            48
   -0.27272727272727    0.27272727272727    0.04545454545455            24
   -0.22727272727273    0.27272727272727    0.04545454545455            48
   -0.18181818181818    0.27272727272727    0.04545454545455            48
    0.31818181818182    0.31818181818182    0.04545454545455             8
   -0.31818181818182    0.31818181818182    0.04545454545455            24
   -0.27272727272727    0.31818181818182    0.04545454545455            48
   -0.22727272727273    0.31818181818182    0.04545454545455            48
   -0.18181818181818    0.31818181818182    0.04545454545455            24
   -0.36363636363637    0.36363636363637    0.04545454545455            24
   -0.31818181818182    0.36363636363637    0.04545454545455            48
   -0.27272727272727    0.36363636363637    0.04545454545455            48
   -0.22727272727273    0.36363636363637    0.04545454545455            48
   -0.40909090909091    0.40909090909091    0.04545454545455            24
   -0.36363636363637    0.40909090909091    0.04545454545455            48
   -0.31818181818182    0.40909090909091    0.04545454545455            48
   -0.27272727272727    0.40909090909091    0.04545454545455            48
   -0.22727272727273    0.40909090909091    0.04545454545455            24
   -0.45454545454545    0.45454545454545    0.04545454545455            24
   -0.40909090909091    0.45454545454545    0.04545454545455            48
   -0.36363636363637    0.45454545454545    0.04545454545455            48
   -0.31818181818182    0.45454545454545    0.04545454545455            48
   -0.27272727272727    0.45454545454545    0.04545454545455            48
    0.50000000000000    0.50000000000000    0.04545454545455            12
   -0.45454545454545    0.50000000000000    0.04545454545455            48
   -0.40909090909091    0.50000000000000    0.04545454545455            48
   -0.36363636363637    0.50000000000000    0.04545454545455            48
   -0.31818181818182    0.50000000000000    0.04545454545455            48
   -0.27272727272727    0.50000000000000    0.04545454545455            24
   -0.45454545454545   -0.45454545454545    0.04545454545455            24
   -0.40909090909091   -0.45454545454545    0.04545454545455            48
   -0.36363636363637   -0.45454545454545    0.04545454545455            48
   -0.31818181818182   -0.45454545454545    0.04545454545455            48
   -0.40909090909091   -0.40909090909091    0.04545454545455            24
   -0.36363636363637   -0.40909090909091    0.04545454545455            48
   -0.31818181818182   -0.40909090909091    0.04545454545455            24
   -0.36363636363637   -0.36363636363637    0.04545454545455            24
    0.09090909090909    0.09090909090909    0.09090909090909             8
    0.13636363636363    0.09090909090909    0.09090909090909            24
    0.18181818181818    0.09090909090909    0.09090909090909            24
    0.22727272727273    0.09090909090909    0.09090909090909            24
    0.27272727272727    0.09090909090909    0.09090909090909            24
    0.31818181818182    0.09090909090909    0.09090909090909            24
    0.36363636363637    0.09090909090909    0.09090909090909            24
    0.40909090909091    0.09090909090909    0.09090909090909            12
   -0.09090909090909    0.09090909090909    0.09090909090909             6
    0.13636363636363    0.13636363636363    0.09090909090909            24
    0.18181818181818    0.13636363636363    0.09090909090909            48
    0.22727272727273    0.13636363636363    0.09090909090909            48
    0.27272727272727    0.13636363636363    0.09090909090909            48
    0.31818181818182    0.13636363636363    0.09090909090909            48
    0.36363636363637    0.13636363636363    0.09090909090909            48
   -0.13636363636363    0.13636363636363    0.09090909090909            24
    0.18181818181818    0.18181818181818    0.09090909090909            24
    0.22727272727273    0.18181818181818    0.09090909090909            48
    0.27272727272727    0.18181818181818    0.09090909090909            48
    0.31818181818182    0.18181818181818    0.09090909090909            48
    0.36363636363637    0.18181818181818    0.09090909090909            24
   -0.18181818181818    0.18181818181818    0.09090909090909            24
   -0.13636363636363    0.18181818181818    0.09090909090909            24
    0.22727272727273    0.22727272727273    0.09090909090909            24
    0.27272727272727    0.22727272727273    0.09090909090909            48
    0.31818181818182    0.22727272727273    0.09090909090909            48
   -0.22727272727273    0.22727272727273    0.09090909090909            24
   -0.18181818181818    0.22727272727273    0.09090909090909            48
    0.27272727272727    0.27272727272727    0.09090909090909            24
    0.31818181818182    0.27272727272727    0.09090909090909            24
   -0.27272727272727    0.27272727272727    0.09090909090909            24
   -0.22727272727273    0.27272727272727    0.09090909090909            48
   -0.18181818181818    0.27272727272727    0.09090909090909            24
   -0.31818181818182    0.31818181818182    0.09090909090909            24
   -0.27272727272727    0.31818181818182    0.09090909090909            48
   -0.22727272727273    0.31818181818182    0.09090909090909            48
   -0.36363636363637    0.36363636363637    0.09090909090909            24
   -0.31818181818182    0.36363636363637    0.09090909090909            48
   -0.27272727272727    0.36363636363637    0.09090909090909            48
   -0.22727272727273    0.36363636363637    0.09090909090909            24
   -0.40909090909091    0.40909090909091    0.09090909090909            24
   -0.36363636363637    0.40909090909091    0.09090909090909            48
   -0.31818181818182    0.40909090909091    0.09090909090909            48
   -0.27272727272727    0.40909090909091    0.09090909090909            48
   -0.45454545454545    0.45454545454545    0.09090909090909            24
   -0.40909090909091    0.45454545454545    0.09090909090909            48
   -0.36363636363637    0.45454545454545    0.09090909090909            48
   -0.31818181818182    0.45454545454545    0.09090909090909            48
   -0.27272727272727    0.45454545454545    0.09090909090909            24
    0.50000000000000    0.50000000000000    0.09090909090909            12
   -0.45454545454545    0.50000000000000    0.09090909090909            48
   -0.40909090909091    0.50000000000000    0.09090909090909            48
   -0.36363636363637    0.50000000000000    0.09090909090909            48
   -0.31818181818182    0.50000000000000    0.09090909090909            48
   -0.45454545454545   -0.45454545454545    0.09090909090909            24
   -0.40909090909091   -0.45454545454545    0.09090909090909            48
   -0.36363636363637   -0.45454545454545    0.09090909090909            48
   -0.31818181818182   -0.45454545454545    0.09090909090909            24
   -0.40909090909091   -0.40909090909091    0.09090909090909            24
   -0.36363636363637   -0.40909090909091    0.09090909090909            48
   -0.36363636363637   -0.36363636363637    0.09090909090909             8
    0.13636363636363    0.13636363636363    0.13636363636363             8
    0.18181818181818    0.13636363636363    0.13636363636363            24
    0.22727272727273    0.13636363636363    0.13636363636363            24
    0.27272727272727    0.13636363636363    0.13636363636363            24
    0.31818181818182    0.13636363636363    0.13636363636363            24
    0.36363636363637    0.13636363636363    0.13636363636363            12
   -0.13636363636363    0.13636363636363    0.13636363636363             6
    0.18181818181818    0.18181818181818    0.13636363636363            24
    0.22727272727273    0.18181818181818    0.13636363636363            48
    0.27272727272727    0.18181818181818    0.13636363636363            48
    0.31818181818182    0.18181818181818    0.13636363636363            48
   -0.18181818181818    0.18181818181818    0.13636363636363            24
    0.22727272727273    0.22727272727273    0.13636363636363            24
    0.27272727272727    0.22727272727273    0.13636363636363            48
    0.31818181818182    0.22727272727273    0.13636363636363            24
   -0.22727272727273    0.22727272727273    0.13636363636363            24
   -0.18181818181818    0.22727272727273    0.13636363636363            24
    0.27272727272727    0.27272727272727    0.13636363636363            24
   -0.27272727272727    0.27272727272727    0.13636363636363            24
   -0.22727272727273    0.27272727272727    0.13636363636363            48
   -0.31818181818182    0.31818181818182    0.13636363636363            24
   -0.27272727272727    0.31818181818182    0.13636363636363            48
   -0.22727272727273    0.31818181818182    0.13636363636363            24
   -0.36363636363637    0.36363636363637    0.13636363636363            24
   -0.31818181818182    0.36363636363637    0.13636363636363            48
   -0.27272727272727    0.36363636363637    0.13636363636363            48
   -0.40909090909091    0.40909090909091    0.13636363636363            24
   -0.36363636363637    0.40909090909091    0.13636363636363            48
   -0.31818181818182    0.40909090909091    0.13636363636363            48
   -0.27272727272727    0.40909090909091    0.13636363636363            24
   -0.45454545454545    0.45454545454545    0.13636363636363            24
   -0.40909090909091    0.45454545454545    0.13636363636363            48
   -0.36363636363637    0.45454545454545    0.13636363636363            48
   -0.31818181818182    0.45454545454545    0.13636363636363            48
    0.50000000000000    0.50000000000000    0.13636363636363            12
   -0.45454545454545    0.50000000000000    0.13636363636363            48
   -0.40909090909091    0.50000000000000    0.13636363636363            48
   -0.36363636363637    0.50000000000000    0.13636363636363            48
   -0.31818181818182    0.50000000000000    0.13636363636363            24
   -0.45454545454545   -0.45454545454545    0.13636363636363            24
   -0.40909090909091   -0.45454545454545    0.13636363636363            48
   -0.36363636363637   -0.45454545454545    0.13636363636363            48
   -0.40909090909091   -0.40909090909091    0.13636363636363            24
   -0.36363636363637   -0.40909090909091    0.13636363636363            24
    0.18181818181818    0.18181818181818    0.18181818181818             8
    0.22727272727273    0.18181818181818    0.18181818181818            24
    0.27272727272727    0.18181818181818    0.18181818181818            24
    0.31818181818182    0.18181818181818    0.18181818181818            12
   -0.18181818181818    0.18181818181818    0.18181818181818             6
    0.22727272727273    0.22727272727273    0.18181818181818            24
    0.27272727272727    0.22727272727273    0.18181818181818            48
   -0.22727272727273    0.22727272727273    0.18181818181818            24
    0.27272727272727    0.27272727272727    0.18181818181818             8
   -0.27272727272727    0.27272727272727    0.18181818181818            24
   -0.22727272727273    0.27272727272727    0.18181818181818            24
   -0.31818181818182    0.31818181818182    0.18181818181818            24
   -0.27272727272727    0.31818181818182    0.18181818181818            48
   -0.36363636363637    0.36363636363637    0.18181818181818            24
   -0.31818181818182    0.36363636363637    0.18181818181818            48
   -0.27272727272727    0.36363636363637    0.18181818181818            24
   -0.40909090909091    0.40909090909091    0.18181818181818            24
   -0.36363636363637    0.40909090909091    0.18181818181818            48
   -0.31818181818182    0.40909090909091    0.18181818181818            48
   -0.45454545454545    0.45454545454545    0.18181818181818            24
   -0.40909090909091    0.45454545454545    0.18181818181818            48
   -0.36363636363637    0.45454545454545    0.18181818181818            48
   -0.31818181818182    0.45454545454545    0.18181818181818            24
    0.50000000000000    0.50000000000000    0.18181818181818            12
   -0.45454545454545    0.50000000000000    0.18181818181818            48
   -0.40909090909091    0.50000000000000    0.18181818181818            48
   -0.36363636363637    0.50000000000000    0.18181818181818            48
   -0.45454545454545   -0.45454545454545    0.18181818181818            24
   -0.40909090909091   -0.45454545454545    0.18181818181818            48
   -0.36363636363637   -0.45454545454545    0.18181818181818            24
   -0.40909090909091   -0.40909090909091    0.18181818181818            24
    0.22727272727273    0.22727272727273    0.22727272727273             8
    0.27272727272727    0.22727272727273    0.22727272727273            12
   -0.22727272727273    0.22727272727273    0.22727272727273             6
   -0.27272727272727    0.27272727272727    0.22727272727273            24
   -0.31818181818182    0.31818181818182    0.22727272727273            24
   -0.27272727272727    0.31818181818182    0.22727272727273            24
   -0.36363636363637    0.36363636363637    0.22727272727273            24
   -0.31818181818182    0.36363636363637    0.22727272727273            48
   -0.40909090909091    0.40909090909091    0.22727272727273            24
   -0.36363636363637    0.40909090909091    0.22727272727273            48
   -0.31818181818182    0.40909090909091    0.22727272727273            24
   -0.45454545454545    0.45454545454545    0.22727272727273            24
   -0.40909090909091    0.45454545454545    0.22727272727273            48
   -0.36363636363637    0.45454545454545    0.22727272727273            48
    0.50000000000000    0.50000000000000    0.22727272727273            12
   -0.45454545454545    0.50000000000000    0.22727272727273            48
   -0.40909090909091    0.50000000000000    0.22727272727273            48
   -0.36363636363637    0.50000000000000    0.22727272727273            24
   -0.45454545454545   -0.45454545454545    0.22727272727273            24
   -0.40909090909091   -0.45454545454545    0.22727272727273            48
   -0.40909090909091   -0.40909090909091    0.22727272727273             8
   -0.27272727272727    0.27272727272727    0.27272727272727             6
   -0.31818181818182    0.31818181818182    0.27272727272727            24
   -0.36363636363636    0.36363636363637    0.27272727272727            24
   -0.31818181818182    0.36363636363637    0.27272727272727            24
   -0.40909090909091    0.40909090909091    0.27272727272727            24
   -0.36363636363637    0.40909090909091    0.27272727272727            48
   -0.45454545454545    0.45454545454545    0.27272727272727            24
   -0.40909090909091    0.45454545454545    0.27272727272727            48
   -0.36363636363637    0.45454545454545    0.27272727272727            24
    0.50000000000000    0.50000000000000    0.27272727272727            12
   -0.45454545454545    0.50000000000000    0.27272727272727            48
   -0.40909090909091    0.50000000000000    0.27272727272727            48
   -0.45454545454545   -0.45454545454545    0.27272727272727            24
   -0.40909090909091   -0.45454545454545    0.27272727272727            24
   -0.31818181818182    0.31818181818182    0.31818181818182             6
   -0.36363636363637    0.36363636363637    0.31818181818182            24
   -0.40909090909091    0.40909090909091    0.31818181818182            24
   -0.36363636363637    0.40909090909091    0.31818181818182            24
   -0.45454545454545    0.45454545454545    0.31818181818182            24
   -0.40909090909091    0.45454545454545    0.31818181818182            48
    0.50000000000000    0.50000000000000    0.31818181818182            12
   -0.45454545454545    0.50000000000000    0.31818181818182            48
   -0.40909090909091    0.50000000000000    0.31818181818182            24
   -0.45454545454545   -0.45454545454545    0.31818181818182            24
   -0.36363636363637    0.36363636363637    0.36363636363637             6
   -0.40909090909091    0.40909090909091    0.36363636363637            24
   -0.45454545454545    0.45454545454545    0.36363636363637            24
   -0.40909090909091    0.45454545454545    0.36363636363637            24
    0.50000000000000    0.50000000000000    0.36363636363637            12
   -0.45454545454545    0.50000000000000    0.36363636363637            48
   -0.45454545454545   -0.45454545454545    0.36363636363637             8
   -0.40909090909091    0.40909090909091    0.40909090909091             6
   -0.45454545454545    0.45454545454545    0.40909090909091            24
    0.50000000000000    0.50000000000000    0.40909090909091            12
   -0.45454545454545    0.50000000000000    0.40909090909091            24
   -0.45454545454545    0.45454545454545    0.45454545454545             6
    0.50000000000000    0.50000000000000    0.45454545454545            12
    0.50000000000000    0.50000000000000    0.50000000000000             1
Tetrahedra
     12611    0.00001565239169
         4        53        54        54        64
         8        54        54        64        64
         4        54        64        64       134
         4        54        55        64        65
         4        54        64        64        65
        12        64        64        65       134
         8        55        64        65        65
         8        64        65        65       135
         8        64        65       134       135
         4        55        56        65        66
         4        55        65        65        66
        12        65        65        66       135
         8        56        65        66        66
         4        65        66        66       136
         4        65        66       135       136
         4        56        57        66        67
         4        56        66        66        67
         8        66        66        67       136
         8        57        66        67        67
         4        66        67        67       137
         4        66        67       136       137
         4        57        58        67        68
         4        57        67        67        68
         8        67        67        68       137
         8        58        67        68        68
         4        67        68        68       138
         4        67        68       137       138
         4        58        59        68        69
         4        58        68        68        69
         8        68        68        69       138
         8        59        68        69        69
         4        68        69        69       139
         4        68        69       138       139
         4        59        60        69        70
         4        59        69        69        70
         8        69        69        70       139
         8        60        69        70        70
         4        69        70        70       140
         4        69        70       139       140
         4        60        61        70        71
         4        60        70        70        71
         8        70        70        71       140
         8        61        70        71        71
         4        70        71        71       141
         4        70        71       140       141
         4        61        62        71        71
         4        61        71        71        71
         8        71        71        71       141
         8        62        71        71        71
         4        71        71        71       140
         4        71        71       140       141
         4        61        62        70        71
         4        62        70        71        71
         8        70        71        71       140
         8        61        70        70        71
         4        70        70        71       139
         4        70        71       139       140
         4        60        61        69        70
         4        61        69        70        70
         8        69        70        70       139
         8        60        69        69        70
         4        69        69        70       138
         4        69        70       138       139
         4        59        60        68        69
         4        60        68        69        69
         8        68        69        69       138
         8        59        68        68        69
         4        68        68        69       137
         4        68        69       137       138
         4        58        59        67        68
         4        59        67        68        68
         8        67        68        68       137
         8        58        67        67        68
         4        67        67        68       136
         4        67        68       136       137
         4        57        58        66        67
         4        58        66        67        67
         8        66        67        67       136
         8        57        66        66        67
         4        66        66        67       135
         4        66        67       135       136
         4        56        57        65        66
         4        57        65        66        66
         8        65        66        66       135
         8        56        65        65        66
         4        65        65        66       134
         4        65        66       134       135
         4        55        56        64        65
         4        56        64        65        65
        16        64        65        65       134
         8        55        64        64        65
         4        64        64        64        65
         4        54        54        55        64
         8        54        55        64        64
         4        54        64        64        64
         4        54        54        54        64
         8        23        54        54        64
         4        23        54        64        64
        12        14        53        54        54
         4        14        54        54        54
         8        14        23        54        54
        16        14        14        53        54
         4        14        14        54        81