 running  128 mpi-ranks, with    1 threads/rank, on    1 nodes
 distrk:  each k-point on   32 cores,    4 groups
 distr:  one band on   16 cores,    2 groups
 vasp.6.4.3 19Mar24 (build Jun  3 2025 16:21:13) complex                         
 POSCAR found type information on POSCAR Fe
 POSCAR found :  1 types and       1 ions
 Reading from existing POTCAR
 scaLAPACK will be used
 Reading from existing POTCAR
 LDA part: xc-table for (Slater+PW92), standard interpolation
 -----------------------------------------------------------------------------
|                                                                             |
|           W    W    AA    RRRRR   N    N  II  N    N   GGGG   !!!           |
|           W    W   A  A   R    R  NN   N  II  NN   N  G    G  !!!           |
|           W    W  A    A  R    R  N N  N  II  N N  N  G       !!!           |
|           W WW W  AAAAAA  RRRRR   N  N N  II  N  N N  G  GGG   !            |
|           WW  WW  A    A  R   R   N   NN  II  N   NN  G    G                |
|           W    W  A    A  R    R  N    N  II  N    N   GGGG   !!!           |
|                                                                             |
|     The requested file  could not be found or opened for reading            |
|     k-point information. Automatic k-point generation is used as a          |
|     fallback, which may lead to unwanted results.                           |
|                                                                             |
 -----------------------------------------------------------------------------

 INCAR ok, starting setup
 POSCAR ok, starting setup
 FFT: planning ... GRIDC
 FFT: planning ... GRID_SOFT
 FFT: planning ... GRID
 WAVECAR not read
 entering main loop
       N       E                     dE             d eps       ncg     rms          rms(c)
DAV:   1     0.414080082849E+02    0.41408E+02   -0.26673E+03 49760   0.324E+02
DAV:   2    -0.528149626675E+01   -0.46690E+02   -0.41248E+02 44432   0.897E+01
DAV:   3    -0.792695988549E+01   -0.26455E+01   -0.26049E+01 51584   0.194E+01
DAV:   4    -0.793370220779E+01   -0.67423E-02   -0.67366E-02 45280   0.960E-01
DAV:   5    -0.793370313722E+01   -0.92943E-06   -0.92959E-06 50120   0.115E-02    0.148E+01
DAV:   6    -0.825519782660E+01   -0.32149E+00   -0.61372E+00 47888   0.137E+01    0.389E+00
DAV:   7    -0.825625177632E+01   -0.10539E-02   -0.16732E-01 46088   0.198E+00    0.253E+00
DAV:   8    -0.824577161074E+01    0.10480E-01   -0.50230E-03 49736   0.246E-01    0.106E+00
DAV:   9    -0.824067184568E+01    0.50998E-02   -0.58173E-03 49936   0.203E-01    0.169E-01
DAV:  10    -0.824053781702E+01    0.13403E-03   -0.91239E-04 48408   0.176E-01    0.626E-02
DAV:  11    -0.824053721953E+01    0.59749E-06   -0.23829E-05 46872   0.170E-02    0.403E-02
DAV:  12    -0.824053822732E+01   -0.10078E-05   -0.60045E-06 49992   0.912E-03    0.161E-02
DAV:  13    -0.824053962799E+01   -0.14007E-05   -0.25046E-06 56968   0.810E-03    0.672E-03
DAV:  14    -0.824053954714E+01    0.80851E-07   -0.18424E-07 37856   0.144E-03
   1 F= -.82405395E+01 E0= -.82405395E+01  d E =0.000000E+00  mag=     2.1562
 -----------------------------------------------------------------------------
|                                                                             |
|           W    W    AA    RRRRR   N    N  II  N    N   GGGG   !!!           |
|           W    W   A  A   R    R  NN   N  II  NN   N  G    G  !!!           |
|           W    W  A    A  R    R  N N  N  II  N N  N  G       !!!           |
|           W WW W  AAAAAA  RRRRR   N  N N  II  N  N N  G  GGG   !            |
|           WW  WW  A    A  R   R   N   NN  II  N   NN  G    G                |
|           W    W  A    A  R    R  N    N  II  N    N   GGGG   !!!           |
|                                                                             |
|     Tetrahedron method does not include variations of the Fermi             |
|     occupations, so forces and stress will be inaccurate. We suggest        |
|     using a different smearing scheme ISMEAR = 1 or 2 for metals in         |
|     relaxations.                                                            |
|                                                                             |
 -----------------------------------------------------------------------------

 PROFILE, used timers:     425
