unknown system                          
            1
    -1.407021    1.407021    1.407021
     1.407021   -1.407021    1.407021
     1.407021    1.407021   -1.407021
   Fe
     1
Direct configuration=     1
   0.00000000  0.00000000  0.00000000
