   3   3   0   0
  0.2568432E+02  0.4776408E-09  0.4776408E-09  0.4776408E-09  0.5000000E-15
  1.000000000000000E-004
  CAR
 unknown system
     10.58790776    -27.58456348  301      6.70895987      1.00000000
    -27.585  0.0000E+00  0.0000E+00
    -27.457  0.0000E+00  0.0000E+00
    -27.330  0.0000E+00  0.0000E+00
    -27.203  0.0000E+00  0.0000E+00
    -27.076  0.0000E+00  0.0000E+00
    -26.948  0.0000E+00  0.0000E+00
    -26.821  0.0000E+00  0.0000E+00
    -26.694  0.0000E+00  0.0000E+00
    -26.567  0.0000E+00  0.0000E+00
    -26.439  0.0000E+00  0.0000E+00
    -26.312  0.0000E+00  0.0000E+00
    -26.185  0.0000E+00  0.0000E+00
    -26.058  0.0000E+00  0.0000E+00
    -25.930  0.0000E+00  0.0000E+00
    -25.803  0.4715E+02  0.6000E+01
    -25.676  0.0000E+00  0.6000E+01
    -25.549  0.0000E+00  0.6000E+01
    -25.421  0.0000E+00  0.6000E+01
    -25.294  0.0000E+00  0.6000E+01
    -25.167  0.0000E+00  0.6000E+01
    -25.040  0.0000E+00  0.6000E+01
    -24.912  0.0000E+00  0.6000E+01
    -24.785  0.0000E+00  0.6000E+01
    -24.658  0.0000E+00  0.6000E+01
    -24.531  0.0000E+00  0.6000E+01
    -24.404  0.0000E+00  0.6000E+01
    -24.276  0.0000E+00  0.6000E+01
    -24.149  0.0000E+00  0.6000E+01
    -24.022  0.0000E+00  0.6000E+01
    -23.895  0.0000E+00  0.6000E+01
    -23.767  0.0000E+00  0.6000E+01
    -23.640  0.0000E+00  0.6000E+01
    -23.513  0.0000E+00  0.6000E+01
    -23.386  0.0000E+00  0.6000E+01
    -23.258  0.0000E+00  0.6000E+01
    -23.131  0.0000E+00  0.6000E+01
    -23.004  0.0000E+00  0.6000E+01
    -22.877  0.0000E+00  0.6000E+01
    -22.749  0.0000E+00  0.6000E+01
    -22.622  0.0000E+00  0.6000E+01
    -22.495  0.0000E+00  0.6000E+01
    -22.368  0.0000E+00  0.6000E+01
    -22.240  0.0000E+00  0.6000E+01
    -22.113  0.0000E+00  0.6000E+01
    -21.986  0.0000E+00  0.6000E+01
    -21.859  0.0000E+00  0.6000E+01
    -21.731  0.0000E+00  0.6000E+01
    -21.604  0.0000E+00  0.6000E+01
    -21.477  0.0000E+00  0.6000E+01
    -21.350  0.0000E+00  0.6000E+01
    -21.222  0.0000E+00  0.6000E+01
    -21.095  0.0000E+00  0.6000E+01
    -20.968  0.0000E+00  0.6000E+01
    -20.841  0.0000E+00  0.6000E+01
    -20.714  0.0000E+00  0.6000E+01
    -20.586  0.0000E+00  0.6000E+01
    -20.459  0.0000E+00  0.6000E+01
    -20.332  0.0000E+00  0.6000E+01
    -20.205  0.0000E+00  0.6000E+01
    -20.077  0.0000E+00  0.6000E+01
    -19.950  0.0000E+00  0.6000E+01
    -19.823  0.0000E+00  0.6000E+01
    -19.696  0.0000E+00  0.6000E+01
    -19.568  0.0000E+00  0.6000E+01
    -19.441  0.0000E+00  0.6000E+01
    -19.314  0.0000E+00  0.6000E+01
    -19.187  0.0000E+00  0.6000E+01
    -19.059  0.0000E+00  0.6000E+01
    -18.932  0.0000E+00  0.6000E+01
    -18.805  0.0000E+00  0.6000E+01
    -18.678  0.0000E+00  0.6000E+01
    -18.550  0.0000E+00  0.6000E+01
    -18.423  0.0000E+00  0.6000E+01
    -18.296  0.0000E+00  0.6000E+01
    -18.169  0.0000E+00  0.6000E+01
    -18.041  0.0000E+00  0.6000E+01
    -17.914  0.0000E+00  0.6000E+01
    -17.787  0.0000E+00  0.6000E+01
    -17.660  0.0000E+00  0.6000E+01
    -17.532  0.0000E+00  0.6000E+01
    -17.405  0.0000E+00  0.6000E+01
    -17.278  0.0000E+00  0.6000E+01
    -17.151  0.0000E+00  0.6000E+01
    -17.024  0.0000E+00  0.6000E+01
    -16.896  0.0000E+00  0.6000E+01
    -16.769  0.0000E+00  0.6000E+01
    -16.642  0.0000E+00  0.6000E+01
    -16.515  0.0000E+00  0.6000E+01
    -16.387  0.0000E+00  0.6000E+01
    -16.260  0.0000E+00  0.6000E+01
    -16.133  0.0000E+00  0.6000E+01
    -16.006  0.0000E+00  0.6000E+01
    -15.878  0.0000E+00  0.6000E+01
    -15.751  0.0000E+00  0.6000E+01
    -15.624  0.0000E+00  0.6000E+01
    -15.497  0.0000E+00  0.6000E+01
    -15.369  0.0000E+00  0.6000E+01
    -15.242  0.0000E+00  0.6000E+01
    -15.115  0.0000E+00  0.6000E+01
    -14.988  0.0000E+00  0.6000E+01
    -14.860  0.0000E+00  0.6000E+01
    -14.733  0.0000E+00  0.6000E+01
    -14.606  0.0000E+00  0.6000E+01
    -14.479  0.0000E+00  0.6000E+01
    -14.351  0.0000E+00  0.6000E+01
    -14.224  0.0000E+00  0.6000E+01
    -14.097  0.0000E+00  0.6000E+01
    -13.970  0.0000E+00  0.6000E+01
    -13.842  0.0000E+00  0.6000E+01
    -13.715  0.0000E+00  0.6000E+01
    -13.588  0.0000E+00  0.6000E+01
    -13.461  0.0000E+00  0.6000E+01
    -13.334  0.0000E+00  0.6000E+01
    -13.206  0.0000E+00  0.6000E+01
    -13.079  0.0000E+00  0.6000E+01
    -12.952  0.0000E+00  0.6000E+01
    -12.825  0.0000E+00  0.6000E+01
    -12.697  0.0000E+00  0.6000E+01
    -12.570  0.0000E+00  0.6000E+01
    -12.443  0.0000E+00  0.6000E+01
    -12.316  0.0000E+00  0.6000E+01
    -12.188  0.0000E+00  0.6000E+01
    -12.061  0.0000E+00  0.6000E+01
    -11.934  0.0000E+00  0.6000E+01
    -11.807  0.0000E+00  0.6000E+01
    -11.679  0.0000E+00  0.6000E+01
    -11.552  0.0000E+00  0.6000E+01
    -11.425  0.0000E+00  0.6000E+01
    -11.298  0.0000E+00  0.6000E+01
    -11.170  0.0000E+00  0.6000E+01
    -11.043  0.0000E+00  0.6000E+01
    -10.916  0.0000E+00  0.6000E+01
    -10.789  0.0000E+00  0.6000E+01
    -10.661  0.0000E+00  0.6000E+01
    -10.534  0.0000E+00  0.6000E+01
    -10.407  0.0000E+00  0.6000E+01
    -10.280  0.0000E+00  0.6000E+01
    -10.152  0.0000E+00  0.6000E+01
    -10.025  0.0000E+00  0.6000E+01
     -9.898  0.0000E+00  0.6000E+01
     -9.771  0.0000E+00  0.6000E+01
     -9.644  0.0000E+00  0.6000E+01
     -9.516  0.0000E+00  0.6000E+01
     -9.389  0.0000E+00  0.6000E+01
     -9.262  0.0000E+00  0.6000E+01
     -9.135  0.0000E+00  0.6000E+01
     -9.007  0.0000E+00  0.6000E+01
     -8.880  0.0000E+00  0.6000E+01
     -8.753  0.0000E+00  0.6000E+01
     -8.626  0.0000E+00  0.6000E+01
     -8.498  0.0000E+00  0.6000E+01
     -8.371  0.0000E+00  0.6000E+01
     -8.244  0.0000E+00  0.6000E+01
     -8.117  0.0000E+00  0.6000E+01
     -7.989  0.0000E+00  0.6000E+01
     -7.862  0.0000E+00  0.6000E+01
     -7.735  0.0000E+00  0.6000E+01
     -7.608  0.0000E+00  0.6000E+01
     -7.480  0.0000E+00  0.6000E+01
     -7.353  0.0000E+00  0.6000E+01
     -7.226  0.0000E+00  0.6000E+01
     -7.099  0.0000E+00  0.6000E+01
     -6.971  0.0000E+00  0.6000E+01
     -6.844  0.0000E+00  0.6000E+01
     -6.717  0.0000E+00  0.6000E+01
     -6.590  0.0000E+00  0.6000E+01
     -6.462  0.0000E+00  0.6000E+01
     -6.335  0.0000E+00  0.6000E+01
     -6.208  0.0000E+00  0.6000E+01
     -6.081  0.0000E+00  0.6000E+01
     -5.953  0.0000E+00  0.6000E+01
     -5.826  0.0000E+00  0.6000E+01
     -5.699  0.0000E+00  0.6000E+01
     -5.572  0.0000E+00  0.6000E+01
     -5.445  0.0000E+00  0.6000E+01
     -5.317  0.0000E+00  0.6000E+01
     -5.190  0.0000E+00  0.6000E+01
     -5.063  0.0000E+00  0.6000E+01
     -4.936  0.0000E+00  0.6000E+01
     -4.808  0.0000E+00  0.6000E+01
     -4.681  0.6907E-02  0.6001E+01
     -4.554  0.1242E+00  0.6024E+01
     -4.427  0.9992E-01  0.6059E+01
     -4.299  0.1875E+00  0.6127E+01
     -4.172  0.4965E+00  0.6217E+01
     -4.045  0.3438E+00  0.6301E+01
     -3.918  0.9720E+00  0.6454E+01
     -3.790  0.7872E+00  0.6589E+01
     -3.663  0.1383E+01  0.6858E+01
     -3.536  0.2884E+01  0.7367E+01
     -3.409  0.2146E+01  0.8000E+01
     -3.281  0.0000E+00  0.8000E+01
     -3.154  0.0000E+00  0.8000E+01
     -3.027  0.0000E+00  0.8000E+01
     -2.900  0.0000E+00  0.8000E+01
     -2.772  0.0000E+00  0.8000E+01
     -2.645  0.0000E+00  0.8000E+01
     -2.518  0.0000E+00  0.8000E+01
     -2.391  0.0000E+00  0.8000E+01
     -2.263  0.0000E+00  0.8000E+01
     -2.136  0.0000E+00  0.8000E+01
     -2.009  0.0000E+00  0.8000E+01
     -1.882  0.0000E+00  0.8000E+01
     -1.755  0.0000E+00  0.8000E+01
     -1.627  0.0000E+00  0.8000E+01
     -1.500  0.0000E+00  0.8000E+01
     -1.373  0.0000E+00  0.8000E+01
     -1.246  0.0000E+00  0.8000E+01
     -1.118  0.0000E+00  0.8000E+01
     -0.991  0.0000E+00  0.8000E+01
     -0.864  0.0000E+00  0.8000E+01
     -0.737  0.0000E+00  0.8000E+01
     -0.609  0.0000E+00  0.8000E+01
     -0.482  0.0000E+00  0.8000E+01
     -0.355  0.0000E+00  0.8000E+01
     -0.228  0.0000E+00  0.8000E+01
     -0.100  0.0000E+00  0.8000E+01
      0.027  0.0000E+00  0.8000E+01
      0.154  0.1616E-02  0.8000E+01
      0.281  0.5082E+00  0.8094E+01
      0.409  0.1149E+01  0.8285E+01
      0.536  0.3674E+01  0.8897E+01
      0.663  0.1822E+01  0.9393E+01
      0.790  0.1380E+01  0.9725E+01
      0.918  0.5187E+00  0.9836E+01
      1.045  0.9893E-09  0.9868E+01
      1.172  0.2144E+00  0.9924E+01
      1.299  0.1717E+00  0.9946E+01
      1.427  0.2099E+00  0.9973E+01
      1.554  0.7964E+00  0.1008E+02
      1.681  0.6083E+01  0.1112E+02
      1.808  0.4303E+01  0.1207E+02
      1.935  0.3927E+01  0.1292E+02
      2.063  0.1686E+01  0.1345E+02
      2.190  0.2472E+01  0.1403E+02
      2.317  0.1643E+01  0.1437E+02
      2.444  0.1213E+01  0.1475E+02
      2.572  0.2865E+01  0.1533E+02
      2.699  0.5277E+01  0.1640E+02
      2.826  0.8831E+01  0.1805E+02
      2.953  0.6085E+01  0.1909E+02
      3.081  0.1704E+01  0.1958E+02
      3.208  0.1043E+01  0.1976E+02
      3.335  0.1356E+01  0.1994E+02
      3.462  0.4302E+00  0.2002E+02
      3.590  0.1150E+01  0.2031E+02
      3.717  0.8841E+00  0.2055E+02
      3.844  0.9868E+00  0.2072E+02
      3.971  0.1454E+01  0.2103E+02
      4.099  0.4467E+00  0.2113E+02
      4.226  0.1116E+01  0.2148E+02
      4.353  0.2527E+01  0.2191E+02
      4.480  0.2350E+01  0.2251E+02
      4.608  0.2539E+01  0.2294E+02
      4.735  0.1759E+01  0.2333E+02
      4.862  0.1571E+01  0.2362E+02
      4.989  0.5702E+00  0.2372E+02
      5.117  0.3081E+00  0.2384E+02
      5.244  0.4293E+00  0.2393E+02
      5.371  0.3714E+00  0.2397E+02
      5.498  0.2003E+00  0.2400E+02
      5.625  0.4659E-01  0.2401E+02
      5.753  0.8531E-02  0.2401E+02
      5.880  0.1427E+00  0.2403E+02
      6.007  0.1717E+00  0.2405E+02
      6.134  0.1185E-02  0.2407E+02
      6.262  0.5062E+00  0.2415E+02
      6.389  0.6868E+00  0.2430E+02
      6.516  0.9341E+00  0.2449E+02
      6.643  0.1950E+01  0.2483E+02
      6.771  0.1935E+01  0.2522E+02
      6.898  0.1893E+01  0.2565E+02
      7.025  0.2138E+01  0.2613E+02
      7.152  0.1879E+01  0.2655E+02
      7.280  0.1108E+01  0.2686E+02
      7.407  0.3651E+01  0.2757E+02
      7.534  0.3685E+01  0.2845E+02
      7.661  0.2258E+01  0.2903E+02
      7.789  0.3866E+01  0.2989E+02
      7.916  0.1376E+01  0.3024E+02
      8.043  0.2656E+01  0.3063E+02
      8.170  0.3240E+01  0.3117E+02
      8.298  0.1689E+01  0.3161E+02
      8.425  0.1372E+01  0.3182E+02
      8.552  0.7571E+00  0.3196E+02
      8.679  0.2289E+00  0.3199E+02
      8.807  0.1720E-11  0.3199E+02
      8.934  0.0000E+00  0.3200E+02
      9.061  0.0000E+00  0.3200E+02
      9.188  0.0000E+00  0.3200E+02
      9.315  0.0000E+00  0.3200E+02
      9.443  0.0000E+00  0.3200E+02
      9.570  0.0000E+00  0.3200E+02
      9.697  0.0000E+00  0.3200E+02
      9.824  0.0000E+00  0.3200E+02
      9.952  0.0000E+00  0.3200E+02
     10.079  0.0000E+00  0.3200E+02
     10.206  0.0000E+00  0.3200E+02
     10.333  0.0000E+00  0.3200E+02
     10.461  0.0000E+00  0.3200E+02
     10.588  0.0000E+00  0.3200E+02
