    3    3    1    1
  0.2568432E+02  0.4776408E-09  0.4776408E-09  0.4776408E-09  0.5000000E-15
  1.000000000000000E-004
  CAR
 unknown system
     25     84     16

  0.0000000E+00  0.0000000E+00  0.0000000E+00  0.4551661E-03
    1      -25.842529   1.000000
    2      -25.842529   1.000000
    3      -25.842529   1.000000
    4       -4.693930   1.000000
    5        1.761318   1.000000
    6        1.761318   1.000000
    7        1.761318   1.000000
    8        2.536108   1.000000
    9        2.536108   1.000000
   10        4.877016   1.000000
   11        5.532435   1.000000
   12        5.532435   1.000000
   13        5.532435   1.000000
   14        7.471562   0.000000
   15        7.471562   0.000000
   16        7.471562   0.000000

  0.7692308E-01  0.3001426E-17 -0.4365779E-17  0.3641329E-02
    1      -25.842919   1.000000
    2      -25.842534   1.000000
    3      -25.842534   1.000000
    4       -4.644893   1.000000
    5        1.669333   1.000000
    6        1.748542   1.000000
    7        1.748542   1.000000
    8        2.559290   1.000000
    9        2.559290   1.000000
   10        4.603223   1.000000
   11        5.466091   1.000000
   12        5.466091   1.000000
   13        5.619174   1.000000
   14        7.329974   0.000000
   15        7.329974   0.000000
   16        7.738674   0.000000

  0.1538462E+00 -0.1339787E-17 -0.1388918E-17  0.3641329E-02
    1      -25.844013   1.000000
    2      -25.842554   1.000000
    3      -25.842554   1.000000
    4       -4.503181   1.000000
    5        1.423440   1.000000
    6        1.720373   1.000000
    7        1.720374   1.000000
    8        2.614009   1.000000
    9        2.614009   1.000000
   10        4.040918   1.000000
   11        5.299841   1.000000
   12        5.299841   1.000000
   13        5.810807   1.000000
   14        7.260846   0.000000
   15        7.260846   0.000000
   16        8.326818   0.000000

  0.2307692E+00 -0.4983320E-18 -0.3594726E-17  0.3641329E-02
    1      -25.845523   1.000000
    2      -25.842569   1.000000
    3      -25.842569   1.000000
    4       -4.286191   1.000000
    5        1.083809   1.000000
    6        1.695043   1.000000
    7        1.695043   1.000000
    8        2.669953   1.000000
    9        2.669953   1.000000
   10        3.468400   1.000000
   11        5.102940   1.000000
   12        5.102940   1.000000
   13        6.034060   1.000000
   14        7.305934   0.000000
   15        7.305934   0.000000
   16        8.852795   0.000000

  0.3076923E+00 -0.2679575E-17 -0.2777836E-17  0.3641329E-02
    1      -25.847137   1.000000
    2      -25.842595   1.000000
    3      -25.842595   1.000000
    4       -4.027101   1.000000
    5        0.710503   1.000000
    6        1.683228   1.000000
    7        1.683228   1.000000
    8        2.703258   1.000000
    9        2.703258   1.000000
   10        3.007555   1.000000
   11        4.933812   1.000000
   12        4.933812   1.000000
   13        6.252762   1.000000
   14        7.430131   0.000000
   15        7.430131   0.000000
   16        8.600642   0.000000

  0.3846154E+00  0.3218516E-18 -0.7143615E-17  0.3641329E-02
    1      -25.848476   1.000000
    2      -25.842622   1.000000
    3      -25.842622   1.000000
    4       -3.780811   1.000000
    5        0.374510   1.000000
    6        1.684266   1.000000
    7        1.684266   1.000000
    8        2.701059   1.000000
    9        2.709490   1.000000
   10        2.709490   1.000000
   11        4.820840   1.000000
   12        4.820840   1.000000
   13        6.459174   1.000000
   14        7.587192   0.000000
   15        7.587192   0.000000
   16        8.028315   0.000000

  0.4615385E+00 -0.1049928E-16  0.2313159E-17  0.3641329E-02
    1      -25.849215   1.000000
    2      -25.842633   1.000000
    3      -25.842633   1.000000
    4       -3.623936   1.000000
    5        0.167617   1.000000
    6        1.689291   1.000000
    7        1.689291   1.000000
    8        2.551621   1.000000
    9        2.703771   1.000000
   10        2.703771   1.000000
   11        4.767182   1.000000
   12        4.767182   1.000000
   13        6.625788   1.000000
   14        7.636045   0.000000
   15        7.705145   0.000000
   16        7.705145   0.000000

  0.7692308E-01  0.7692308E-01 -0.5276785E-17  0.2730997E-02
    1      -25.842918   1.000000
    2      -25.842607   1.000000
    3      -25.842607   1.000000
    4       -4.628836   1.000000
    5        1.569301   1.000000
    6        1.786487   1.000000
    7        1.786487   1.000000
    8        2.562005   1.000000
    9        2.562014   1.000000
   10        4.588893   1.000000
   11        5.353764   1.000000
   12        5.353764   1.000000
   13        5.758711   1.000000
   14        7.171286   0.000000
   15        7.659661   0.000000
   16        7.707262   0.000000

  0.1538462E+00  0.7692308E-01 -0.6690738E-17  0.1092399E-01
    1      -25.843719   1.000000
    2      -25.842670   1.000000
    3      -25.842605   1.000000
    4       -4.518904   1.000000
    5        1.361123   1.000000
    6        1.771788   1.000000
    7        1.798161   1.000000
    8        2.592226   1.000000
    9        2.605618   1.000000
   10        4.202748   1.000000
   11        5.175060   1.000000
   12        5.181927   1.000000
   13        5.965798   1.000000
   14        7.061735   0.000000
   15        7.469863   0.000000
   16        8.068542   0.000000

  0.2307692E+00  0.7692308E-01 -0.1957652E-17  0.1092399E-01
    1      -25.845073   1.000000
    2      -25.842733   1.000000
    3      -25.842623   1.000000
    4       -4.328388   1.000000
    5        1.090486   1.000000
    6        1.715787   1.000000
    7        1.791250   1.000000
    8        2.641469   1.000000
    9        2.663801   1.000000
   10        3.658509   1.000000
   11        4.991089   1.000000
   12        4.997835   1.000000
   13        6.216522   1.000000
   14        7.096511   0.000000
   15        7.400066   0.000000
   16        8.502891   0.000000

  0.3076923E+00  0.7692308E-01 -0.1140762E-17  0.1092399E-01
    1      -25.846619   1.000000
    2      -25.842774   1.000000
    3      -25.842676   1.000000
    4       -4.084828   1.000000
    5        0.778472   1.000000
    6        1.668863   1.000000
    7        1.777906   1.000000
    8        2.684014   1.000000
    9        2.704938   1.000000
   10        3.159097   1.000000
   11        4.831891   1.000000
   12        4.843591   1.000000
   13        6.392875   1.000000
   14        7.297637   0.000000
   15        7.436648   0.000000
   16        8.635297   0.000000

  0.3846154E+00  0.7692308E-01 -0.5506541E-17  0.1092399E-01
    1      -25.848007   1.000000
    2      -25.842768   1.000000
    3      -25.842759   1.000000
    4       -3.834818   1.000000
    5        0.471460   1.000000
    6        1.650405   1.000000
    7        1.761520   1.000000
    8        2.691236   1.000000
    9        2.717904   1.000000
   10        2.806990   1.000000
   11        4.703589   1.000000
   12        4.751291   1.000000
   13        6.529824   1.000000
   14        7.553040   0.000000
   15        7.555693   0.000000
   16        8.169978   0.000000

  0.4615385E+00  0.7692308E-01  0.3950233E-17  0.1092399E-01
    1      -25.848925   1.000000
    2      -25.842858   1.000000
    3      -25.842735   1.000000
    4       -3.646621   1.000000
    5        0.244734   1.000000
    6        1.659878   1.000000
    7        1.737217   1.000000
    8        2.567342   1.000000
    9        2.716883   1.000000
   10        2.724687   1.000000
   11        4.621697   1.000000
   12        4.713370   1.000000
   13        6.671250   1.000000
   14        7.674508   0.000000
   15        7.683503   0.000000
   16        7.800804   0.000000

 -0.4615385E+00  0.7692308E-01  0.3139943E-16  0.1092399E-01
    1      -25.849159   1.000000
    2      -25.842936   1.000000
    3      -25.842670   1.000000
    4       -3.592389   1.000000
    5        0.180483   1.000000
    6        1.688925   1.000000
    7        1.701578   1.000000
    8        2.517836   1.000000
    9        2.718042   1.000000
   10        2.720657   1.000000
   11        4.579924   1.000000
   12        4.724841   1.000000
   13        6.742472   0.000001
   14        7.533077   0.000000
   15        7.725358   0.000000
   16        7.861353   0.000000

 -0.3846154E+00  0.7692308E-01  0.1310063E-16  0.1092399E-01
    1      -25.848670   1.000000
    2      -25.842987   1.000000
    3      -25.842598   1.000000
    4       -3.697322   1.000000
    5        0.308088   1.000000
    6        1.661625   1.000000
    7        1.727490   1.000000
    8        2.603449   1.000000
    9        2.729729   1.000000
   10        2.733486   1.000000
   11        4.569195   1.000000
   12        4.789237   1.000000
   13        6.649959   1.000000
   14        7.631276   0.000000
   15        7.684435   0.000000
   16        7.889101   0.000000

 -0.3076923E+00  0.7692308E-01  0.4414910E-17  0.1092399E-01
    1      -25.847566   1.000000
    2      -25.842990   1.000000
    3      -25.842531   1.000000
    4       -3.914631   1.000000
    5        0.576426   1.000000
    6        1.632218   1.000000
    7        1.767243   1.000000
    8        2.683931   1.000000
    9        2.727847   1.000000
   10        2.909869   1.000000
   11        4.592539   1.000000
   12        4.914656   1.000000
   13        6.517257   1.000000
   14        7.457365   0.000000
   15        7.551145   0.000000
   16        8.350875   0.000000

 -0.2307692E+00  0.7692308E-01  0.5231800E-17  0.1092399E-01
    1      -25.846092   1.000000
    2      -25.842935   1.000000
    3      -25.842483   1.000000
    4       -4.169088   1.000000
    5        0.903711   1.000000
    6        1.626466   1.000000
    7        1.802183   1.000000
    8        2.670745   1.000000
    9        2.701256   1.000000
   10        3.315064   1.000000
   11        4.668157   1.000000
   12        5.096628   1.000000
   13        6.369962   1.000000
   14        7.277091   0.000000
   15        7.406496   0.000000
   16        8.524455   0.000000

 -0.1538462E+00  0.7692308E-01  0.8660207E-18  0.1092399E-01
    1      -25.844600   1.000000
    2      -25.842840   1.000000
    3      -25.842461   1.000000
    4       -4.399177   1.000000
    5        1.225927   1.000000
    6        1.649399   1.000000
    7        1.822688   1.000000
    8        2.626668   1.000000
    9        2.651904   1.000000
   10        3.833262   1.000000
   11        4.826531   1.000000
   12        5.299669   1.000000
   13        6.151863   1.000000
   14        7.150882   0.000000
   15        7.375228   0.000000
   16        8.154981   0.000000

 -0.7692308E-01  0.7692308E-01  0.6002853E-17  0.5461994E-02
    1      -25.843458   1.000000
    2      -25.842694   1.000000
    3      -25.842486   1.000000
    4       -4.565237   1.000000
    5        1.498526   1.000000
    6        1.695560   1.000000
    7        1.807504   1.000000
    8        2.581365   1.000000
    9        2.596460   1.000000
   10        4.317623   1.000000
   11        5.120291   1.000000
   12        5.448682   1.000000
   13        5.861357   1.000000
   14        7.148116   0.000000
   15        7.440584   0.000000
   16        7.816109   0.000000

  0.1538462E+00  0.1538462E+00 -0.1055357E-16  0.2730997E-02
    1      -25.844003   1.000000
    2      -25.842817   1.000000
    3      -25.842817   1.000000
    4       -4.444429   1.000000
    5        1.154012   1.000000
    6        1.858903   1.000000
    7        1.858903   1.000000
    8        2.567394   1.000000
    9        2.635902   1.000000
   10        4.142930   1.000000
   11        4.992495   1.000000
   12        4.992495   1.000000
   13        6.030901   1.000000
   14        6.951670   0.000000
   15        7.524504   0.000000
   16        8.182798   0.000000

  0.2307692E+00  0.1538462E+00 -0.7663219E-17  0.1092399E-01
    1      -25.844991   1.000000
    2      -25.842933   1.000000
    3      -25.842903   1.000000
    4       -4.289501   1.000000
    5        0.929466   1.000000
    6        1.858042   1.000000
    7        1.890658   1.000000
    8        2.575872   1.000000
    9        2.691052   1.000000
   10        3.792904   1.000000
   11        4.770932   1.000000
   12        4.814052   1.000000
   13        6.294093   1.000000
   14        6.893715   0.000000
   15        7.433717   0.000000
   16        8.433048   0.000000

  0.3076923E+00  0.1538462E+00 -0.6846329E-17  0.1092399E-01
    1      -25.846299   1.000000
    2      -25.843029   1.000000
    3      -25.843003   1.000000
    4       -4.076902   1.000000
    5        0.712259   1.000000
    6        1.790387   1.000000
    7        1.896377   1.000000
    8        2.618692   1.000000
    9        2.738421   1.000000
   10        3.325972   1.000000
   11        4.554775   1.000000
   12        4.679621   1.000000
   13        6.585747   1.000000
   14        7.041470   0.000000
   15        7.405171   0.000000
   16        8.542543   0.000000

  0.3846154E+00  0.1538462E+00 -0.1337208E-16  0.1092399E-01
    1      -25.847544   1.000000
    2      -25.843227   1.000000
    3      -25.843014   1.000000
    4       -3.845603   1.000000
    5        0.515290   1.000000
    6        1.710470   1.000000
    7        1.879491   1.000000
    8        2.654607   1.000000
    9        2.757973   1.000000
   10        2.919671   1.000000
   11        4.391595   1.000000
   12        4.604135   1.000000
   13        6.641783   1.000000
   14        7.482798   0.000000
   15        7.492893   0.000000
   16        8.240332   0.000000

  0.4615385E+00  0.1538462E+00 -0.3915305E-17  0.1092399E-01
    1      -25.848434   1.000000
    2      -25.843469   1.000000
    3      -25.842954   1.000000
    4       -3.651983   1.000000
    5        0.361150   1.000000
    6        1.657463   1.000000
    7        1.837670   1.000000
    8        2.568671   1.000000
    9        2.758486   1.000000
   10        2.760230   1.000000
   11        4.279839   1.000000
   12        4.580856   1.000000
   13        6.709096   0.492327
   14        7.633101   0.000000
   15        7.787538   0.000000
   16        7.899875   0.000000

 -0.4615385E+00  0.1538462E+00 -0.8541623E-17  0.1092399E-01
    1      -25.848781   1.000000
    2      -25.843685   1.000000
    3      -25.842841   1.000000
    4       -3.559439   1.000000
    5        0.290231   1.000000
    6        1.655167   1.000000
    7        1.772294   1.000000
    8        2.466336   1.000000
    9        2.763999   1.000000
   10        2.764914   1.000000
   11        4.205424   1.000000
   12        4.601282   1.000000
   13        6.822205   0.000000
   14        7.499328   0.000000
   15        7.741677   0.000000
   16        8.137671   0.000000

 -0.3846154E+00  0.1538462E+00  0.2867073E-16  0.1092399E-01
    1      -25.848519   1.000000
    2      -25.843818   1.000000
    3      -25.842703   1.000000
    4       -3.605261   1.000000
    5        0.334936   1.000000
    6        1.697463   1.000000
    7        1.709849   1.000000
    8        2.498092   1.000000
    9        2.773181   1.000000
   10        2.792940   1.000000
   11        4.148430   1.000000
   12        4.669948   1.000000
   13        6.861835   0.000000
   14        7.561843   0.000000
   15        7.699856   0.000000
   16        8.158932   0.000000

 -0.3076923E+00  0.1538462E+00 -0.7770570E-17  0.1092399E-01
    1      -25.847724   1.000000
    2      -25.843810   1.000000
    3      -25.842567   1.000000
    4       -3.770523   1.000000
    5        0.485804   1.000000
    6        1.634413   1.000000
    7        1.797731   1.000000
    8        2.610806   1.000000
    9        2.770333   1.000000
   10        2.898835   1.000000
   11        4.107702   1.000000
   12        4.796388   1.000000
   13        6.838154   0.000000
   14        7.543990   0.000000
   15        7.765256   0.000000
   16        8.149557   0.000000

 -0.2307692E+00  0.1538462E+00 -0.2633738E-17  0.1092399E-01
    1      -25.846624   1.000000
    2      -25.843633   1.000000
    3      -25.842475   1.000000
    4       -3.996171   1.000000
    5        0.706315   1.000000
    6        1.600848   1.000000
    7        1.871259   1.000000
    8        2.659100   1.000000
    9        2.745503   1.000000
   10        3.197696   1.000000
   11        4.130560   1.000000
   12        4.974839   1.000000
   13        6.814007   0.000000
   14        7.355740   0.000000
   15        7.546120   0.000000
   16        8.278636   0.000000

 -0.1538462E+00  0.1538462E+00 -0.2679575E-17  0.5461994E-02
    1      -25.845503   1.000000
    2      -25.843274   1.000000
    3      -25.842434   1.000000
    4       -4.220831   1.000000
    5        0.963557   1.000000
    6        1.605987   1.000000
    7        1.887237   1.000000
    8        2.646791   1.000000
    9        2.701595   1.000000
   10        3.568926   1.000000
   11        4.340118   1.000000
   12        5.167363   1.000000
   13        6.597405   1.000000
   14        7.200815   0.000000
   15        7.395095   0.000000
   16        8.144293   0.000000

  0.2307692E+00  0.2307692E+00 -0.1583035E-16  0.2730997E-02
    1      -25.845550   1.000000
    2      -25.843108   1.000000
    3      -25.843108   1.000000
    4       -4.175511   1.000000
    5        0.742396   1.000000
    6        1.968382   1.000000
    7        1.968382   1.000000
    8        2.507430   1.000000
    9        2.746090   1.000000
   10        3.691488   1.000000
   11        4.633323   1.000000
   12        4.633323   1.000000
   13        6.200578   1.000000
   14        6.872713   0.000000
   15        7.362362   0.000000
   16        8.520557   0.000000

  0.3076923E+00  0.2307692E+00 -0.2062601E-16  0.1092399E-01
    1      -25.846517   1.000000
    2      -25.843304   1.000000
    3      -25.843239   1.000000
    4       -4.005059   1.000000
    5        0.588298   1.000000
    6        1.964845   1.000000
    7        2.010974   1.000000
    8        2.508114   1.000000
    9        2.801290   1.000000
   10        3.378071   1.000000
   11        4.405122   1.000000
   12        4.495812   1.000000
   13        6.413867   1.000000
   14        6.921315   0.000000
   15        7.298651   0.000000
   16        8.529750   0.000000

  0.3846154E+00  0.2307692E+00 -0.9575034E-17  0.1092399E-01
    1      -25.847486   1.000000
    2      -25.843615   1.000000
    3      -25.843287   1.000000
    4       -3.810248   1.000000
    5        0.490032   1.000000
    6        1.865033   1.000000
    7        2.013892   1.000000
    8        2.573212   1.000000
    9        2.828421   1.000000
   10        2.995996   1.000000
   11        4.149984   1.000000
   12        4.423416   1.000000
   13        6.568368   1.000000
   14        7.306471   0.000000
   15        7.337780   0.000000
   16        8.287732   0.000000

  0.4615385E+00  0.2307692E+00 -0.1615602E-16  0.1092399E-01
    1      -25.848129   1.000000
    2      -25.844058   1.000000
    3      -25.843233   1.000000
    4       -3.635480   1.000000
    5        0.451681   1.000000
    6        1.739378   1.000000
    7        1.972684   1.000000
    8        2.546589   1.000000
    9        2.772710   1.000000
   10        2.831177   1.000000
   11        3.955344   1.000000
   12        4.408032   1.000000
   13        6.617278   1.000000
   14        7.504405   0.000000
   15        7.833057   0.000000
   16        7.931955   0.000000

 -0.4615385E+00  0.2307692E+00  0.2517097E-16  0.1092399E-01
    1      -25.848338   1.000000
    2      -25.844535   1.000000
    3      -25.843104   1.000000
    4       -3.529284   1.000000
    5        0.454576   1.000000
    6        1.642116   1.000000
    7        1.890190   1.000000
    8        2.391033   1.000000
    9        2.814988   1.000000
   10        2.831030   1.000000
   11        3.826942   1.000000
   12        4.434556   1.000000
   13        6.722063   0.031941
   14        7.562086   0.000000
   15        7.719998   0.000000
   16        8.240849   0.000000

 -0.3846154E+00  0.2307692E+00  0.6872167E-17  0.1092399E-01
    1      -25.848102   1.000000
    2      -25.844870   1.000000
    3      -25.842919   1.000000
    4       -3.526129   1.000000
    5        0.466396   1.000000
    6        1.637479   1.000000
    7        1.786484   1.000000
    8        2.372457   1.000000
    9        2.831418   1.000000
   10        2.880537   1.000000
   11        3.745813   1.000000
   12        4.504906   1.000000
   13        6.879463   0.000000
   14        7.430389   0.000000
   15        7.780537   0.000000
   16        8.276290   0.000000

 -0.3076923E+00  0.2307692E+00  0.2594202E-16  0.1092399E-01
    1      -25.847614   1.000000
    2      -25.844867   1.000000
    3      -25.842729   1.000000
    4       -3.627460   1.000000
    5        0.489367   1.000000
    6        1.689823   1.000000
    7        1.731422   1.000000
    8        2.478486   1.000000
    9        2.819803   1.000000
   10        2.959471   1.000000
   11        3.707837   1.000000
   12        4.628340   1.000000
   13        6.961394   0.000000
   14        7.638636   0.000000
   15        7.669246   0.000000
   16        8.208318   0.000000

 -0.2307692E+00  0.2307692E+00 -0.9966641E-18  0.5461994E-02
    1      -25.847115   1.000000
    2      -25.844396   1.000000
    3      -25.842570   1.000000
    4       -3.800445   1.000000
    5        0.562479   1.000000
    6        1.623378   1.000000
    7        1.837876   1.000000
    8        2.605253   1.000000
    9        2.789226   1.000000
   10        3.077370   1.000000
   11        3.790149   1.000000
   12        4.797412   1.000000
   13        6.971057   0.000000
   14        7.505079   0.000000
   15        7.855393   0.000000
   16        8.177720   0.000000

  0.3076923E+00  0.3076923E+00 -0.2110714E-16  0.2730997E-02
    1      -25.847235   1.000000
    2      -25.843431   1.000000
    3      -25.843431   1.000000
    4       -3.883397   1.000000
    5        0.488967   1.000000
    6        2.095828   1.000000
    7        2.095828   1.000000
    8        2.400071   1.000000
    9        2.872083   1.000000
   10        3.206041   1.000000
   11        4.342886   1.000000
   12        4.342886   1.000000
   13        6.259796   1.000000
   14        6.918443   0.000000
   15        7.180468   0.000000
   16        8.490020   0.000000

  0.3846154E+00  0.3076923E+00 -0.2545945E-16  0.1092399E-01
    1      -25.847974   1.000000
    2      -25.843686   1.000000
    3      -25.843538   1.000000
    4       -3.737349   1.000000
    5        0.455753   1.000000
    6        2.050148   1.000000
    7        2.134083   1.000000
    8        2.438025   1.000000
    9        2.911174   1.000000
   10        2.915455   1.000000
   11        4.127189   1.000000
   12        4.255921   1.000000
   13        6.366142   1.000000
   14        7.080534   0.000000
   15        7.150677   0.000000
   16        8.300522   0.000000

  0.4615385E+00  0.3076923E+00 -0.1446371E-16  0.1092399E-01
    1      -25.848412   1.000000
    2      -25.844172   1.000000
    3      -25.843528   1.000000
    4       -3.600116   1.000000
    5        0.500461   1.000000
    6        1.896912   1.000000
    7        2.113971   1.000000
    8        2.474569   1.000000
    9        2.693509   1.000000
   10        2.920750   1.000000
   11        3.838915   1.000000
   12        4.237041   1.000000
   13        6.454288   1.000000
   14        7.277145   0.000000
   15        7.577770   0.000000
   16        7.997706   0.000000

 -0.4615385E+00  0.3076923E+00 -0.1477009E-16  0.1092399E-01
    1      -25.848365   1.000000
    2      -25.844852   1.000000
    3      -25.843394   1.000000
    4       -3.505023   1.000000
    5        0.594645   1.000000
    6        1.719126   1.000000
    7        2.033571   1.000000
    8        2.283317   1.000000
    9        2.805607   1.000000
   10        2.909700   1.000000
   11        3.606259   1.000000
   12        4.266930   1.000000
   13        6.542892   1.000000
   14        7.565416   0.000000
   15        7.664478   0.000000
   16        8.184515   0.000000

 -0.3846154E+00  0.3076923E+00  0.2244226E-16  0.1092399E-01
    1      -25.847905   1.000000
    2      -25.845530   1.000000
    3      -25.843186   1.000000
    4       -3.475923   1.000000
    5        0.644276   1.000000
    6        1.588086   1.000000
    7        1.913858   1.000000
    8        2.232306   1.000000
    9        2.893045   1.000000
   10        2.941978   1.000000
   11        3.470122   1.000000
   12        4.340794   1.000000
   13        6.705237   0.700731
   14        7.457703   0.000000
   15        7.843090   0.000000
   16        8.152638   0.000000

 -0.3076923E+00  0.3076923E+00 -0.5359150E-17  0.5461994E-02
    1      -25.847493   1.000000
    2      -25.845669   1.000000
    3      -25.842943   1.000000
    4       -3.520330   1.000000
    5        0.575146   1.000000
    6        1.620162   1.000000
    7        1.789342   1.000000
    8        2.325796   1.000000
    9        2.863706   1.000000
   10        3.003621   1.000000
   11        3.483563   1.000000
   12        4.464563   1.000000
   13        6.903108   0.000000
   14        7.414437   0.000000
   15        7.797666   0.000000
   16        8.115135   0.000000

  0.3846154E+00  0.3846154E+00 -0.2638392E-16  0.2730997E-02
    1      -25.848644   1.000000
    2      -25.843702   1.000000
    3      -25.843702   1.000000
    4       -3.645065   1.000000
    5        0.466975   1.000000
    6        2.212189   1.000000
    7        2.212189   1.000000
    8        2.284162   1.000000
    9        2.685325   1.000000
   10        2.985081   1.000000
   11        4.143093   1.000000
   12        4.143093   1.000000
   13        6.257738   1.000000
   14        6.956550   0.000000
   15        7.020589   0.000000
   16        8.263322   0.000000

  0.4615385E+00  0.3846154E+00 -0.2670443E-16  0.1092399E-01
    1      -25.849023   1.000000
    2      -25.843954   1.000000
    3      -25.843745   1.000000
    4       -3.556261   1.000000
    5        0.542544   1.000000
    6        2.075584   1.000000
    7        2.227578   1.000000
    8        2.341501   1.000000
    9        2.506929   1.000000
   10        3.006263   1.000000
   11        3.956812   1.000000
   12        4.105609   1.000000
   13        6.307638   1.000000
   14        7.041477   0.000000
   15        7.143593   0.000000
   16        8.073586   0.000000

 -0.4615385E+00  0.3846154E+00  0.1894250E-16  0.1092399E-01
    1      -25.848927   1.000000
    2      -25.844503   1.000000
    3      -25.843654   1.000000
    4       -3.491504   1.000000
    5        0.657255   1.000000
    6        1.894137   1.000000
    7        2.162815   1.000000
    8        2.170171   1.000000
    9        2.666459   1.000000
   10        2.986662   1.000000
   11        3.671978   1.000000
   12        4.132655   1.000000
   13        6.384932   1.000000
   14        7.256082   0.000000
   15        7.611478   0.000000
   16        7.915547   0.000000

 -0.3846154E+00  0.3846154E+00  0.6437031E-18  0.5461994E-02
    1      -25.848402   1.000000
    2      -25.845194   1.000000
    3      -25.843454   1.000000
    4       -3.463430   1.000000
    5        0.726811   1.000000
    6        1.679105   1.000000
    7        2.053800   1.000000
    8        2.131618   1.000000
    9        2.855407   1.000000
   10        2.946799   1.000000
   11        3.460634   1.000000
   12        4.211901   1.000000
   13        6.512647   1.000000
   14        7.590893   0.000000
   15        7.633025   0.000000
   16        8.016441   0.000000

  0.4615385E+00  0.4615385E+00 -0.3166071E-16  0.2730997E-02
    1      -25.849451   1.000000
    2      -25.843850   1.000000
    3      -25.843850   1.000000
    4       -3.517490   1.000000
    5        0.598798   1.000000
    6        2.152489   1.000000
    7        2.283065   1.000000
    8        2.283065   1.000000
    9        2.321423   1.000000
   10        3.052980   1.000000
   11        4.041792   1.000000
   12        4.041792   1.000000
   13        6.246407   1.000000
   14        6.926013   0.000000
   15        6.926742   0.000000
   16        8.091685   0.000000

 -0.4615385E+00  0.4615385E+00 -0.2099855E-16  0.5461994E-02
    1      -25.849409   1.000000
    2      -25.844060   1.000000
    3      -25.843826   1.000000
    4       -3.494648   1.000000
    5        0.649405   1.000000
    6        2.101417   1.000000
    7        2.104355   1.000000
    8        2.262580   1.000000
    9        2.475027   1.000000
   10        3.042168   1.000000
   11        3.899647   1.000000
   12        4.053493   1.000000
   13        6.284963   1.000000
   14        7.002011   0.000000
   15        7.133960   0.000000
   16        7.999149   0.000000

  0.2307692E+00  0.1538462E+00  0.7692308E-01  0.1092399E-01
    1      -25.844529   1.000000
    2      -25.842942   1.000000
    3      -25.842597   1.000000
    4       -4.385561   1.000000
    5        1.129687   1.000000
    6        1.734251   1.000000
    7        1.867018   1.000000
    8        2.606876   1.000000
    9        2.654074   1.000000
   10        3.914879   1.000000
   11        4.732745   1.000000
   12        5.161210   1.000000
   13        6.255129   1.000000
   14        6.990736   0.000000
   15        7.449964   0.000000
   16        8.142321   0.000000

  0.3076923E+00  0.1538462E+00  0.7692308E-01  0.2184797E-01
    1      -25.845742   1.000000
    2      -25.843174   1.000000
    3      -25.842590   1.000000
    4       -4.183292   1.000000
    5        0.875907   1.000000
    6        1.685591   1.000000
    7        1.881427   1.000000
    8        2.641706   1.000000