 vasp.6.0.8 29Jun18 (build Jun 13 2019 12:54:44) complex

 executed on      IFC18_CrayMPICH date 2021.12.05  14:21:50
 running   64 mpi-ranks, with    1 threads/rank
 distrk:  each k-point on   16 cores,    4 groups
 distr:  one band on NCORES_PER_BAND=   4 cores,    4 groups


--------------------------------------------------------------------------------------------------------


 INCAR:
 POTCAR:    PAW_PBE Hf_pv 06Sep2000
 POTCAR:    PAW_PBE Sb 06Sep2000
 POTCAR:    PAW_PBE Pt 04Feb2005
 POTCAR:    PAW_PBE Hf_pv 06Sep2000
   VRHFIN =Hf: 5p6s5d
   LEXCH  = PE
   EATOM  =   860.9206 eV,   63.2759 Ry

   TITEL  = PAW_PBE Hf_pv 06Sep2000
   LULTRA =        F    use ultrasoft PP ?
   IUNSCR =        1    unscreen: 0-lin 1-nonlin 2-no
   RPACOR =    2.500    partial core radius
   POMASS =  178.490; ZVAL   =   10.000    mass and valenz
   RCORE  =    2.600    outmost cutoff radius
   RWIGS  =    3.050; RWIGS  =    1.614    wigner-seitz radius (au A)
   ENMAX  =  220.334; ENMIN  =  165.250 eV
   RCLOC  =    2.212    cutoff for local pot
   LCOR   =        T    correct aug charges
   LPAW   =        T    paw PP
   EAUG   =  380.878
   DEXC   =    0.000
   RMAX   =    2.665    core radius for proj-oper
   RAUG   =    1.300    factor for augmentation sphere
   RDEP   =    2.681    radius for radial grids
   RDEPT  =    2.139    core radius for aug-charge

   Atomic configuration
   15 entries
     n  l   j            E        occ.
     1  0  0.50    -65259.4397   2.0000
     2  0  0.50    -11157.9884   2.0000
     2  1  1.50     -9795.2114   6.0000
     3  0  0.50     -2541.4060   2.0000
     3  1  1.50     -2134.4772   6.0000
     3  2  2.50     -1653.5420  10.0000
     4  0  0.50      -510.9577   2.0000
     4  1  1.50      -377.5024   6.0000
     4  2  2.50      -205.2086  10.0000
     4  3  3.50       -15.4906  14.0000
     5  0  0.50       -65.6020   2.0000
     5  1  1.50       -34.2798   6.0000
     5  2  2.50        -1.9877   3.0000
     6  0  0.50        -4.7357   1.0000
     5  3  2.50        -1.3606   0.0000
   Description
     l       E           TYP  RCUT    TYP  RCUT
     1    -34.2797769     23  2.500
     1    -35.6403595     23  2.500
     2     -1.9876655     23  2.500
     2      0.0744675     23  2.500
     0     -4.7356889     23  2.600
     0      3.2364748     23  2.600
  local pseudopotential read in
  partial core-charges read in
  partial kinetic energy density read in
  atomic valenz-charges read in
  non local Contribution for L=           1  read in
    real space projection operators read in
  non local Contribution for L=           1  read in
    real space projection operators read in
  non local Contribution for L=           2  read in
    real space projection operators read in
  non local Contribution for L=           2  read in
    real space projection operators read in
  non local Contribution for L=           0  read in
    real space projection operators read in
  non local Contribution for L=           0  read in
    real space projection operators read in
    PAW grid and wavefunctions read in

   number of l-projection  operators is LMAX  =           6
   number of lm-projection operators is LMMAX =          18

 POTCAR:    PAW_PBE Sb 06Sep2000
   VRHFIN =Sb: s2p3
   LEXCH  = PE
   EATOM  =   149.9515 eV,   11.0211 Ry

   TITEL  = PAW_PBE Sb 06Sep2000
   LULTRA =        F    use ultrasoft PP ?
   IUNSCR =        1    unscreen: 0-lin 1-nonlin 2-no
   RPACOR =    2.200    partial core radius
   POMASS =  121.750; ZVAL   =    5.000    mass and valenz
   RCORE  =    2.300    outmost cutoff radius
   RWIGS  =    2.980; RWIGS  =    1.577    wigner-seitz radius (au A)
   ENMAX  =  172.069; ENMIN  =  129.052 eV
   ICORE  =        3    local potential
   LCOR   =        T    correct aug charges
   LPAW   =        T    paw PP
   EAUG   =  380.513
   DEXC   =    0.000
   RMAX   =    2.346    core radius for proj-oper
   RAUG   =    1.300    factor for augmentation sphere
   RDEP   =    2.360    radius for radial grids
   RDEPT  =    2.192    core radius for aug-charge

   Atomic configuration
   13 entries
     n  l   j            E        occ.
     1  0  0.50    -30298.2797   2.0000
     2  0  0.50     -4610.2252   2.0000
     2  1  1.50     -4138.3407   6.0000
     3  0  0.50      -903.8815   2.0000
     3  1  1.50      -750.1337   6.0000
     3  2  2.50      -515.7092  10.0000
     4  0  0.50      -148.8034   2.0000
     4  1  1.50      -101.7581   6.0000
     4  2  2.50       -33.5048  10.0000
     5  0  0.50       -12.8298   2.0000
     5  1  0.50        -4.8276   3.0000
     5  2  1.50        -4.0817   0.0000
     4  3  2.50        -4.0817   0.0000
   Description
     l       E           TYP  RCUT    TYP  RCUT
     0    -12.8297861     23  2.300
     0     13.6058260     23  2.300
     1     -4.8275512     23  2.300
     1     -0.7245443     23  2.300
     2     -4.0817478     23  2.300
     3     -1.3605826     23  2.300
  local pseudopotential read in
  partial core-charges read in
  partial kinetic energy density read in
  atomic valenz-charges read in
  non local Contribution for L=           0  read in
    real space projection operators read in
  non local Contribution for L=           0  read in
    real space projection operators read in
  non local Contribution for L=           1  read in
    real space projection operators read in
  non local Contribution for L=           1  read in
    real space projection operators read in
  non local Contribution for L=           2  read in
    real space projection operators read in
    PAW grid and wavefunctions read in

   number of l-projection  operators is LMAX  =           5
   number of lm-projection operators is LMMAX =          13

 POTCAR:    PAW_PBE Pt 04Feb2005
   VRHFIN =Pt: s1d9
   LEXCH  = PE
   EATOM  =   729.1176 eV,   53.5886 Ry

   TITEL  = PAW_PBE Pt 04Feb2005
   LULTRA =        F    use ultrasoft PP ?
   IUNSCR =        1    unscreen: 0-lin 1-nonlin 2-no
   RPACOR =    2.330    partial core radius
   POMASS =  195.080; ZVAL   =   10.000    mass and valenz
   RCORE  =    2.600    outmost cutoff radius
   RWIGS  =    2.750; RWIGS  =    1.455    wigner-seitz radius (au A)
   ENMAX  =  230.283; ENMIN  =  172.712 eV
   ICORE  =        3    local potential
   LCOR   =        T    correct aug charges
   LPAW   =        T    paw PP
   EAUG   =  358.966
   DEXC   =    0.000
   RMAX   =    2.658    core radius for proj-oper
   RAUG   =    1.300    factor for augmentation sphere
   RDEP   =    2.761    radius for radial grids
   RDEPT  =    2.203    core radius for aug-charge

   Atomic configuration
   16 entries
     n  l   j            E        occ.
     1  0  0.50    -78401.1885   2.0000
     2  0  0.50    -13770.7750   2.0000
     2  1  1.50    -11931.0468   6.0000
     3  0  0.50     -3234.7234   2.0000
     3  1  1.50     -2699.2216   6.0000
     3  2  2.50     -2119.5714  10.0000
     4  0  0.50      -695.1528   2.0000
     4  1  1.50      -519.6034   6.0000
     4  2  2.50      -306.6786  10.0000
     4  3  3.50       -70.1041  14.0000
     5  0  0.50      -101.7747   2.0000
     5  1  1.50       -55.9873   6.0000
     5  2  2.50        -6.1423   9.0000
     6  0  0.50        -5.6573   1.0000
     6  1  1.50        -6.8029   0.0000
     5  3  2.50        -1.3606   0.0000
   Description
     l       E           TYP  RCUT    TYP  RCUT
     2     -6.1423404     23  2.500
     2     -7.5029230     23  2.500
     0     -5.6573207     23  2.500
     0      0.7416693     23  2.500
     1     -2.7211652     23  2.600
     1     20.4087390     23  2.600
     3     -1.3605826     23  2.500
  local pseudopotential read in
  partial core-charges read in
  partial kinetic energy density read in
  atomic valenz-charges read in
  non local Contribution for L=           2  read in
    real space projection operators read in
  non local Contribution for L=           2  read in
    real space projection operators read in
  non local Contribution for L=           0  read in
    real space projection operators read in
  non local Contribution for L=           0  read in
    real space projection operators read in
  non local Contribution for L=           1  read in
    real space projection operators read in
  non local Contribution for L=           1  read in
    real space projection operators read in
    PAW grid and wavefunctions read in

   number of l-projection  operators is LMAX  =           6
   number of lm-projection operators is LMMAX =          18


 -----------------------------------------------------------------------------
|                                                                             |
|  ADVICE TO THIS USER RUNNING 'VASP/VAMP'   (HEAR YOUR MASTER'S VOICE ...):  |
|                                                                             |
|      You enforced a specific xc-type in the INCAR file,                     |
|      a different type was found on the POTCAR file                          |
|          I HOPE YOU KNOW, WHAT YOU ARE  DOING                               |
|                                                                             |
 -----------------------------------------------------------------------------

  PAW_PBE Hf_pv 06Sep2000               :
 energy of atom  1       EATOM= -860.9206
 kinetic energy error for atom=    0.0004 (will be added to EATOM!!)
  PAW_PBE Sb 06Sep2000                  :
 energy of atom  2       EATOM= -149.9515
 kinetic energy error for atom=    0.0002 (will be added to EATOM!!)
  PAW_PBE Pt 04Feb2005                  :
 energy of atom  3       EATOM= -729.1176
 kinetic energy error for atom=    0.0010 (will be added to EATOM!!)


 POSCAR: Hf1 Sb1 Pt1
  positions in direct lattice
  No initial velocities read in
 exchange correlation table for  LEXCH =       14
   RHO(1)=    0.500       N(1)  =     2000
   RHO(2)=  100.500       N(2)  =     4000



--------------------------------------------------------------------------------------------------------


 ion  position               nearest neighbor table
   1  0.750  0.750  0.750-   3 2.92   3 2.92   3 2.92   3 2.92   2 3.38   2 3.38   2 3.38   2 3.38
                             2 3.38   2 3.38
   2  0.250  0.250  0.250-   3 2.92   3 2.92   3 2.92   3 2.92   1 3.38   1 3.38   1 3.38   1 3.38
                             1 3.38   1 3.38
   3  0.000  0.000  0.000-   1 2.92   1 2.92   2 2.92   2 2.92   1 2.92   1 2.92   2 2.92   2 2.92


  LATTYP: Found a face centered cubic cell.
 ALAT       =     6.7548614558

  Lattice vectors:

 A1 = (   0.0000000000,   3.3774307279,   3.3774307279)
 A2 = (   3.3774307279,   0.0000000000,   3.3774307279)
 A3 = (   3.3774307279,   3.3774307279,   0.0000000000)


Analysis of symmetry for initial positions (statically):
=====================================================================
 Subroutine PRICEL returns:
 Original cell was already a primitive cell.


 Routine SETGRP: Setting up the symmetry group for a
 face centered cubic supercell.


 Subroutine GETGRP returns: Found 24 space group operations
 (whereof 24 operations were pure point group operations)
 out of a pool of 48 trial point group operations.


The static configuration has the point symmetry T_d .


Analysis of symmetry for dynamics (positions and initial velocities):
=====================================================================
 Subroutine PRICEL returns:
 Original cell was already a primitive cell.


 Routine SETGRP: Setting up the symmetry group for a
 face centered cubic supercell.


 Subroutine GETGRP returns: Found 24 space group operations
 (whereof 24 operations were pure point group operations)
 out of a pool of 48 trial point group operations.


The dynamic configuration has the point symmetry T_d .


 Subroutine INISYM returns: Found 24 space group operations
 (whereof 24 operations are pure point group operations),
 and found     1 'primitive' translations


----------------------------------------------------------------------------------------

                                     Primitive cell

  volume of cell :      77.0530

  direct lattice vectors                    reciprocal lattice vectors
     0.000000000  3.377430728  3.377430728    -0.148041526  0.148041526  0.148041526
     3.377430728  0.000000000  3.377430728     0.148041526 -0.148041526  0.148041526
     3.377430728  3.377430728  0.000000000     0.148041526  0.148041526 -0.148041526

  length of vectors
     4.776408341  4.776408341  4.776408341     0.256415445  0.256415445  0.256415445

  position of ions in fractional coordinates (direct lattice)
     0.750000000  0.750000000  0.750000000
     0.250000000  0.250000000  0.250000000
     0.000000000  0.000000000  0.000000000

  ion indices of the primitive-cell ions
   primitive index   ion index
                 1           1
                 2           2
                 3           3

----------------------------------------------------------------------------------------



 KPOINTS: KPOINTS

Automatic generation of k-mesh.
Space group operators:
 irot       det(A)        alpha          n_x          n_y          n_z        tau_x        tau_y        tau_z
    1     1.000000     0.000000     1.000000     0.000000     0.000000     0.000000     0.000000     0.000000
    2     1.000000   120.000000    -0.577350    -0.577350    -0.577350     0.000000     0.000000     0.000000
    3     1.000000   120.000000     0.577350     0.577350     0.577350     0.000000     0.000000     0.000000
    4    -1.000000    90.000000    -0.000000    -0.000000    -1.000000     0.000000     0.000000     0.000000
    5    -1.000000   180.000000     0.000000     0.707107     0.707107     0.000000     0.000000     0.000000
    6    -1.000000    90.000000    -0.000000     1.000000    -0.000000     0.000000     0.000000     0.000000
    7     1.000000   180.000000    -0.000000    -0.000000    -1.000000     0.000000     0.000000     0.000000
    8     1.000000   120.000000    -0.577350     0.577350     0.577350     0.000000     0.000000     0.000000
    9     1.000000   120.000000    -0.577350     0.577350    -0.577350     0.000000     0.000000     0.000000
   10    -1.000000    90.000000     0.000000     0.000000     1.000000     0.000000     0.000000     0.000000
   11    -1.000000    90.000000    -1.000000     0.000000     0.000000     0.000000     0.000000     0.000000
   12    -1.000000   180.000000     0.707107     0.000000     0.707107     0.000000     0.000000     0.000000
   13     1.000000   120.000000     0.577350    -0.577350     0.577350     0.000000     0.000000     0.000000
   14     1.000000   120.000000    -0.577350    -0.577350     0.577350     0.000000     0.000000     0.000000
   15     1.000000   180.000000     1.000000     0.000000     0.000000     0.000000     0.000000     0.000000
   16    -1.000000    90.000000     0.000000    -1.000000     0.000000     0.000000     0.000000     0.000000
   17    -1.000000   180.000000     0.707107     0.707107    -0.000000     0.000000     0.000000     0.000000
   18    -1.000000    90.000000     1.000000     0.000000     0.000000     0.000000     0.000000     0.000000
   19     1.000000   120.000000     0.577350    -0.577350    -0.577350     0.000000     0.000000     0.000000
   20     1.000000   180.000000    -0.000000    -1.000000    -0.000000     0.000000     0.000000     0.000000
   21     1.000000   120.000000     0.577350     0.577350    -0.577350     0.000000     0.000000     0.000000
   22    -1.000000   180.000000    -0.000000    -0.707107     0.707107     0.000000     0.000000     0.000000
   23    -1.000000   180.000000     0.707107    -0.707107     0.000000     0.000000     0.000000     0.000000
   24    -1.000000   180.000000     0.707107     0.000000    -0.707107     0.000000     0.000000     0.000000

 Subroutine IBZKPT returns following result:
 ===========================================

 Found     84 irreducible k-points:

 Following reciprocal coordinates:
            Coordinates               Weight
  0.000000  0.000000  0.000000      1.000000
  0.076923  0.000000 -0.000000      8.000000
  0.153846 -0.000000 -0.000000      8.000000
  0.230769 -0.000000 -0.000000      8.000000
  0.307692 -0.000000 -0.000000      8.000000
  0.384615  0.000000 -0.000000      8.000000
  0.461538 -0.000000  0.000000      8.000000
  0.076923  0.076923 -0.000000      6.000000
  0.153846  0.076923 -0.000000     24.000000
  0.230769  0.076923 -0.000000     24.000000
  0.307692  0.076923 -0.000000     24.000000
  0.384615  0.076923 -0.000000     24.000000
  0.461538  0.076923  0.000000     24.000000
 -0.461538  0.076923  0.000000     24.000000
 -0.384615  0.076923  0.000000     24.000000
 -0.307692  0.076923  0.000000     24.000000
 -0.230769  0.076923  0.000000     24.000000
 -0.153846  0.076923  0.000000     24.000000
 -0.076923  0.076923  0.000000     12.000000
  0.153846  0.153846 -0.000000      6.000000
  0.230769  0.153846 -0.000000     24.000000
  0.307692  0.153846 -0.000000     24.000000
  0.384615  0.153846 -0.000000     24.000000
  0.461538  0.153846 -0.000000     24.000000
 -0.461538  0.153846 -0.000000     24.000000
 -0.384615  0.153846  0.000000     24.000000
 -0.307692  0.153846 -0.000000     24.000000
 -0.230769  0.153846 -0.000000     24.000000
 -0.153846  0.153846 -0.000000     12.000000
  0.230769  0.230769 -0.000000      6.000000
  0.307692  0.230769 -0.000000     24.000000
  0.384615  0.230769 -0.000000     24.000000
  0.461538  0.230769 -0.000000     24.000000
 -0.461538  0.230769  0.000000     24.000000
 -0.384615  0.230769  0.000000     24.000000
 -0.307692  0.230769  0.000000     24.000000
 -0.230769  0.230769 -0.000000     12.000000
  0.307692  0.307692 -0.000000      6.000000
  0.384615  0.307692 -0.000000     24.000000
  0.461538  0.307692 -0.000000     24.000000
 -0.461538  0.307692 -0.000000     24.000000
 -0.384615  0.307692  0.000000     24.000000
 -0.307692  0.307692 -0.000000     12.000000
  0.384615  0.384615 -0.000000      6.000000
  0.461538  0.384615 -0.000000     24.000000
 -0.461538  0.384615  0.000000     24.000000
 -0.384615  0.384615  0.000000     12.000000
  0.461538  0.461538 -0.000000      6.000000
 -0.461538  0.461538 -0.000000     12.000000
  0.230769  0.153846  0.076923     24.000000
  0.307692  0.153846  0.076923     48.000000
  0.384615  0.153846  0.076923     48.000000
  0.461538  0.153846  0.076923     48.000000
 -0.461538  0.153846  0.076923     48.000000
  0.307692  0.230769  0.076923     24.000000
  0.384615  0.230769  0.076923     48.000000
  0.461538  0.230769  0.076923     48.000000
 -0.461538  0.230769  0.076923     48.000000
 -0.384615  0.230769  0.076923     48.000000
 -0.307692  0.230769  0.076923     48.000000
 -0.230769  0.230769  0.076923     48.000000
 -0.153846  0.230769  0.076923     24.000000
  0.384615  0.307692  0.076923     24.000000
  0.461538  0.307692  0.076923     48.000000
 -0.461538  0.307692  0.076923     48.000000
 -0.384615  0.307692  0.076923     48.000000
 -0.307692  0.307692  0.076923     48.000000
 -0.230769  0.307692  0.076923     24.000000
  0.461538  0.384615  0.076923     24.000000
 -0.461538  0.384615  0.076923     48.000000
 -0.384615  0.384615  0.076923     48.000000
 -0.307692  0.384615  0.076923     24.000000
 -0.461538  0.461538  0.076923     24.000000
 -0.384615  0.461538  0.076923     24.000000
  0.461538  0.307692  0.153846     24.000000
 -0.461538  0.307692  0.153846     48.000000
 -0.384615  0.307692  0.153846     48.000000
 -0.461538  0.384615  0.153846     24.000000
 -0.384615  0.384615  0.153846     48.000000
 -0.307692  0.384615  0.153846     48.000000
 -0.230769  0.384615  0.153846     24.000000
 -0.384615  0.461538  0.153846     24.000000
 -0.307692  0.461538  0.153846     24.000000
 -0.307692  0.461538  0.230769     24.000000

 Following cartesian coordinates:
            Coordinates               Weight
  0.000000  0.000000  0.000000      1.000000
 -0.012101  0.012101  0.012101      8.000000
 -0.024203  0.024203  0.024203      8.000000
 -0.036304  0.036304  0.036304      8.000000
 -0.048405  0.048405  0.048405      8.000000
 -0.060507  0.060507  0.060507      8.000000
 -0.072608  0.072608  0.072608      8.000000
 -0.000000  0.000000  0.024203      6.000000
 -0.012101  0.012101  0.036304     24.000000
 -0.024203  0.024203  0.048405     24.000000
 -0.036304  0.036304  0.060507     24.000000
 -0.048405  0.048405  0.072608     24.000000
 -0.060507  0.060507  0.084709     24.000000
  0.084709 -0.084709 -0.060507     24.000000
  0.072608 -0.072608 -0.048405     24.000000
  0.060507 -0.060507 -0.036304     24.000000
  0.048405 -0.048405 -0.024203     24.000000
  0.036304 -0.036304 -0.012101     24.000000
  0.024203 -0.024203 -0.000000     12.000000
 -0.000000 -0.000000  0.048405      6.000000
 -0.012101  0.012101  0.060507     24.000000
 -0.024203  0.024203  0.072608     24.000000
 -0.036304  0.036304  0.084709     24.000000
 -0.048405  0.048405  0.096811     24.000000
  0.096811 -0.096811 -0.048405     24.000000
  0.084709 -0.084709 -0.036304     24.000000
  0.072608 -0.072608 -0.024203     24.000000
  0.060507 -0.060507 -0.012101     24.000000
  0.048405 -0.048405 -0.000000     12.000000
 -0.000000  0.000000  0.072608      6.000000
 -0.012101  0.012101  0.084709     24.000000
 -0.024203  0.024203  0.096811     24.000000
 -0.036304  0.036304  0.108912     24.000000
  0.108912 -0.108912 -0.036304     24.000000
  0.096811 -0.096811 -0.024203     24.000000
  0.084709 -0.084709 -0.012101     24.000000
  0.072608 -0.072608 -0.000000     12.000000
 -0.000000 -0.000000  0.096811      6.000000
 -0.012101  0.012101  0.108912     24.000000
 -0.024203  0.024203  0.121014     24.000000
  0.121014 -0.121014 -0.024203     24.000000
  0.108912 -0.108912 -0.012101     24.000000
  0.096811 -0.096811 -0.000000     12.000000
 -0.000000 -0.000000  0.121014      6.000000
 -0.012101  0.012101  0.133115     24.000000
  0.133115 -0.133115 -0.012101     24.000000
  0.121014 -0.121014 -0.000000     12.000000
 -0.000000 -0.000000  0.145216      6.000000
  0.145216 -0.145216 -0.000000     12.000000
 -0.000000  0.024203  0.048405     24.000000
 -0.012101  0.036304  0.060507     48.000000
 -0.024203  0.048405  0.072608     48.000000
 -0.036304  0.060507  0.084709     48.000000
  0.108912 -0.084709 -0.060507     48.000000
  0.000000  0.024203  0.072608     24.000000
 -0.012101  0.036304  0.084709     48.000000
 -0.024203  0.048405  0.096811     48.000000
  0.121014 -0.096811 -0.048405     48.000000
  0.108912 -0.084709 -0.036304     48.000000
  0.096811 -0.072608 -0.024203     48.000000
  0.084709 -0.060507 -0.012101     48.000000
  0.072608 -0.048405 -0.000000     24.000000
 -0.000000  0.024203  0.096811     24.000000
 -0.012101  0.036304  0.108912     48.000000
  0.133115 -0.108912 -0.036304     48.000000
  0.121014 -0.096811 -0.024203     48.000000
  0.108912 -0.084709 -0.012101     48.000000
  0.096811 -0.072608 -0.000000     24.000000
  0.000000  0.024203  0.121014     24.000000
  0.145216 -0.121014 -0.024203     48.000000
  0.133115 -0.108912 -0.012101     48.000000
  0.121014 -0.096811  0.000000     24.000000
  0.157318 -0.133115 -0.012101     24.000000
  0.145216 -0.121014 -0.000000     24.000000
 -0.000000  0.048405  0.096811     24.000000
  0.145216 -0.096811 -0.048405     48.000000
  0.133115 -0.084709 -0.036304     48.000000
  0.157318 -0.108912 -0.036304     24.000000
  0.145216 -0.096811 -0.024203     48.000000
  0.133115 -0.084709 -0.012101     48.000000
  0.121014 -0.072608 -0.000000     24.000000
  0.157318 -0.108912 -0.012101     24.000000
  0.145216 -0.096811  0.000000     24.000000
  0.157318 -0.084709 -0.012101     24.000000



--------------------------------------------------------------------------------------------------------




 Dimension of arrays:
   k-points           NKPTS =     84   k-points in BZ     NKDIM =     84   number of bands    NBANDS=     16
   number of dos      NEDOS =    301   number of ions     NIONS =      3
   non local maximal  LDIM  =      6   non local SUM 2l+1 LMDIM =     18
   total plane-waves  NPLWV =  74088
   max r-space proj   IRMAX =      1   max aug-charges    IRDMAX= 466040
   dimension x,y,z NGX =    42 NGY =   42 NGZ =   42
   dimension x,y,z NGXF=    84 NGYF=   84 NGZF=   84
   support grid    NGXF=   168 NGYF=  168 NGZF=  168
   ions per type =               1   1   1
   NGX,Y,Z   is equivalent  to a cutoff of  14.62, 14.62, 14.62 a.u.
   NGXF,Y,Z  is equivalent  to a cutoff of  29.24, 29.24, 29.24 a.u.

 SYSTEM =  unknown system
 POSCAR =  Hf1 Sb1 Pt1

 Startparameter for this run:
   NWRITE =      2    write-flag & timer
   PREC   = acc       normal or accurate (medium, high low for compatibility)
   ISTART =      0    job   : 0-new  1-cont  2-samecut
   ICHARG =      2    charge: 1-file 2-atom 10-const
   ISPIN  =      1    spin polarized calculation?
   LNONCOLLINEAR =      F non collinear calculations
   LSORBIT =      F    spin-orbit coupling
   INIWAV =      1    electr: 0-lowe 1-rand  2-diag
   LASPH  =      F    aspherical Exc in radial PAW
   METAGGA=      F    non-selfconsistent MetaGGA calc.

 Electronic Relaxation 1
   ENCUT  =  700.0 eV  51.45 Ry    7.17 a.u.  10.30 10.30 10.30*2*pi/ulx,y,z
   ENINI  =  700.0     initial cutoff
   ENAUG  =  380.9 eV  augmentation charge cutoff
   NELM   =     60;   NELMIN=  5; NELMDL= -5     # of ELM steps
   EDIFF  = 0.1E-06   stopping-criterion for ELM
   LREAL  =      F    real-space projection
   NLSPLINE    = F    spline interpolate recip. space projectors
   LCOMPAT=      F    compatible to vasp.4.4
   GGA_COMPAT  = T    GGA compatible to vasp.4.4-vasp.4.6
   LMAXPAW     = -100 max onsite density
   LMAXMIX     =    2 max onsite mixed and CHGCAR
   VOSKOWN=      0    Vosko Wilk Nusair interpolation
   ROPT   =    0.00000   0.00000   0.00000
 Ionic relaxation
   EDIFFG = 0.1E-05   stopping-criterion for IOM
   NSW    =      0    number of steps for IOM
   NBLOCK =      1;   KBLOCK =      1    inner block; outer block
   IBRION =     -1    ionic relax: 0-MD 1-quasi-New 2-CG
   NFREE  =      0    steps in history (QN), initial steepest desc. (CG)
   ISIF   =      3    stress and relaxation
   IWAVPR =     10    prediction:  0-non 1-charg 2-wave 3-comb
   ISYM   =      2    0-nonsym 1-usesym 2-fastsym
   LCORR  =      T    Harris-Foulkes like correction to forces

   POTIM  = 0.5000    time-step for ionic-motion
   TEIN   =    0.0    initial temperature
   TEBEG  =    0.0;   TEEND  =   0.0 temperature during run
   SMASS  =  -3.00    Nose mass-parameter (am)
   estimated Nose-frequenzy (Omega)   =  0.10E-29 period in steps = 0.13E+47 mass=  -0.521E-27a.u.
   SCALEE = 1.0000    scale energy and forces
   NPACO  =    256;   APACO  = 16.0  distance and # of slots for P.C.
   PSTRESS=    0.0 pullay stress

  Mass of Ions in am
   POMASS = 178.49121.75195.08
  Ionic Valenz
   ZVAL   =  10.00  5.00 10.00
  Atomic Wigner-Seitz radii
   RWIGS  =  -1.00 -1.00 -1.00
  virtual crystal weights
   VCA    =   1.00  1.00  1.00
   NELECT =      25.0000    total number of electrons
   NUPDOWN=      -1.0000    fix difference up-down

 DOS related values:
   EMIN   =  10.00;   EMAX   =-10.00  energy-range for DOS
   EFERMI =   0.00
   ISMEAR =     0;   SIGMA  =   0.01  broadening in eV -4-tet -1-fermi 0-gaus

 Electronic relaxation 2 (details)
   IALGO  =     38    algorithm
   LDIAG  =      T    sub-space diagonalisation (order eigenvalues)
   LSUBROT=      F    optimize rotation matrix (better conditioning)
   TURBO    =      0    0=normal 1=particle mesh
   IRESTART =      0    0=no restart 2=restart with 2 vectors
   NREBOOT  =      0    no. of reboots
   NMIN     =      0    reboot dimension
   EREF     =   0.00    reference energy to select bands
   IMIX   =      4    mixing-type and parameters
     AMIX     =   0.40;   BMIX     =  1.00
     AMIX_MAG =   1.60;   BMIX_MAG =  1.00
     AMIN     =   0.10
     WC   =   100.;   INIMIX=   1;  MIXPRE=   1;  MAXMIX= -45

 Intra band minimization:
   WEIMIN = 0.0000     energy-eigenvalue tresh-hold
   EBREAK =  0.16E-08  absolut break condition
   DEPER  =   0.30     relativ break condition

   TIME   =   0.40     timestep for ELM

  volume/ion in A,a.u.               =      25.68       173.33
  Fermi-wavevector in a.u.,A,eV,Ry     =   1.124929  2.125807 17.217695  1.265465
  Thomas-Fermi vector in A             =   2.261603

 Write flags
   LWAVE        =      F    write WAVECAR
   LDOWNSAMPLE  =      F    k-point downsampling of WAVECAR
   LCHARG       =      F    write CHGCAR
   LVTOT        =      F    write LOCPOT, total local potential
   LVHAR        =      F    write LOCPOT, Hartree potential only
   LELF         =      F    write electronic localiz. function (ELF)
   LORBIT       =      0    0 simple, 1 ext, 2 COOP (PROOUT), +10 PAW based schemes


 Dipole corrections
   LMONO  =      F    monopole corrections only (constant potential shift)
   LDIPOL =      F    correct potential (dipole corrections)
   IDIPOL =      0    1-x, 2-y, 3-z, 4-all directions
   EPSILON=  1.0000000 bulk dielectric constant

 Exchange correlation treatment:
   GGA     =    PS    GGA type
   LEXCH   =    14    internal setting for exchange type
   VOSKOWN=      0    Vosko Wilk Nusair interpolation
   LHFCALC =     F    Hartree Fock is set to
   LHFONE  =     F    Hartree Fock one center treatment
   AEXX    =    0.0000 exact exchange contribution

 Linear response parameters
   LEPSILON=     F    determine dielectric tensor
   LRPA    =     F    only Hartree local field effects (RPA)
   LNABLA  =     F    use nabla operator in PAW spheres
   LVEL    =     F    velocity operator in full k-point grid
   LINTERFAST=   F  fast interpolation
   KINTER  =     0    interpolate to denser k-point grid
   CSHIFT  =0.1000    complex shift for real part using Kramers Kronig
   OMEGAMAX=  -1.0    maximum frequency
   DEG_THRESHOLD= 0.2000000E-02 threshold for treating states as degnerate
   RTIME   =   -0.100 relaxation time in fs
  (WPLASMAI=    0.000 imaginary part of plasma frequency in eV, 0.658/RTIME)
   DFIELD  = 0.0000000 0.0000000 0.0000000 field for delta impulse in time

 Orbital magnetization related:
   ORBITALMAG=     F  switch on orbital magnetization
   LCHIMAG   =     F  perturbation theory with respect to B field
   DQ        =  0.001000  dq finite difference perturbation B field
   LLRAUG    =     F  two centre corrections for induced B field



--------------------------------------------------------------------------------------------------------


 Static calculation
 charge density and potential will be updated during run
 non-spin polarized calculation
 Variant of blocked Davidson
 Davidson routine will perform the subspace rotation
 perform sub-space diagonalisation
    after iterative eigenvector-optimisation
 modified Broyden-mixing scheme, WC =      100.0
 initial mixing is a Kerker type mixing with AMIX =  0.4000 and BMIX =      1.0000
 Hartree-type preconditioning will be used
 using additional bands            3
 reciprocal scheme for non local part
 use partial core corrections
 calculate Harris-corrections to forces
   (improved forces if not selfconsistent)
 use gradient corrections
 use of overlap-Matrix (Vanderbilt PP)
 Gauss-broadening in eV      SIGMA  =   0.01


--------------------------------------------------------------------------------------------------------


  energy-cutoff  :      700.00
  volume of cell :       77.05
      direct lattice vectors                 reciprocal lattice vectors
     0.000000000  3.377430728  3.377430728    -0.148041526  0.148041526  0.148041526
     3.377430728  0.000000000  3.377430728     0.148041526 -0.148041526  0.148041526
     3.377430728  3.377430728  0.000000000     0.148041526  0.148041526 -0.148041526

  length of vectors
     4.776408341  4.776408341  4.776408341     0.256415445  0.256415445  0.256415445



 k-points in units of 2pi/SCALE and weight: KPOINTS
   0.00000000  0.00000000  0.00000000       0.000
  -0.01210135  0.01210135  0.01210135       0.004
  -0.02420271  0.02420271  0.02420271       0.004
  -0.03630406  0.03630406  0.03630406       0.004
  -0.04840541  0.04840541  0.04840541       0.004
  -0.06050677  0.06050677  0.06050677       0.004
  -0.07260812  0.07260812  0.07260812       0.004
  -0.00000000  0.00000000  0.02420271       0.003
  -0.01210135  0.01210135  0.03630406       0.011
  -0.02420271  0.02420271  0.04840541       0.011
  -0.03630406  0.03630406  0.06050677       0.011
  -0.04840541  0.04840541  0.07260812       0.011
  -0.06050677  0.06050677  0.08470948       0.011
   0.08470948 -0.08470948 -0.06050677       0.011
   0.07260812 -0.07260812 -0.04840541       0.011
   0.06050677 -0.06050677 -0.03630406       0.011
   0.04840541 -0.04840541 -0.02420271       0.011
   0.03630406 -0.03630406 -0.01210135       0.011
   0.02420271 -0.02420271 -0.00000000       0.005
  -0.00000000 -0.00000000  0.04840541       0.003
  -0.01210135  0.01210135  0.06050677       0.011
  -0.02420271  0.02420271  0.07260812       0.011
  -0.03630406  0.03630406  0.08470948       0.011
  -0.04840541  0.04840541  0.09681083       0.011
   0.09681083 -0.09681083 -0.04840541       0.011
   0.08470948 -0.08470948 -0.03630406       0.011
   0.07260812 -0.07260812 -0.02420271       0.011
   0.06050677 -0.06050677 -0.01210135       0.011
   0.04840541 -0.04840541 -0.00000000       0.005
  -0.00000000  0.00000000  0.07260812       0.003
  -0.01210135  0.01210135  0.08470948       0.011
  -0.02420271  0.02420271  0.09681083       0.011
  -0.03630406  0.03630406  0.10891218       0.011
   0.10891218 -0.10891218 -0.03630406       0.011
   0.09681083 -0.09681083 -0.02420271       0.011
   0.08470948 -0.08470948 -0.01210135       0.011
   0.07260812 -0.07260812 -0.00000000       0.005
  -0.00000000 -0.00000000  0.09681083       0.003
  -0.01210135  0.01210135  0.10891218       0.011
  -0.02420271  0.02420271  0.12101354       0.011
   0.12101354 -0.12101354 -0.02420271       0.011
   0.10891218 -0.10891218 -0.01210135       0.011
   0.09681083 -0.09681083 -0.00000000       0.005
  -0.00000000 -0.00000000  0.12101354       0.003
  -0.01210135  0.01210135  0.13311489       0.011
   0.13311489 -0.13311489 -0.01210135       0.011
   0.12101354 -0.12101354 -0.00000000       0.005
  -0.00000000 -0.00000000  0.14521624       0.003
   0.14521624 -0.14521624 -0.00000000       0.005
  -0.00000000  0.02420271  0.04840541       0.011
  -0.01210135  0.03630406  0.06050677       0.022
  -0.02420271  0.04840541  0.07260812       0.022
  -0.03630406  0.06050677  0.08470948       0.022
   0.10891218 -0.08470948 -0.06050677       0.022
   0.00000000  0.02420271  0.07260812       0.011
  -0.01210135  0.03630406  0.08470948       0.022
  -0.02420271  0.04840541  0.09681083       0.022
   0.12101354 -0.09681083 -0.04840541       0.022
   0.10891218 -0.08470948 -0.03630406       0.022
   0.09681083 -0.07260812 -0.02420271       0.022
   0.08470948 -0.06050677 -0.01210135       0.022
   0.07260812 -0.04840541 -0.00000000       0.011
  -0.00000000  0.02420271  0.09681083       0.011
  -0.01210135  0.03630406  0.10891218       0.022
   0.13311489 -0.10891218 -0.03630406       0.022
   0.12101354 -0.09681083 -0.02420271       0.022
   0.10891218 -0.08470948 -0.01210135       0.022
   0.09681083 -0.07260812 -0.00000000       0.011
   0.00000000  0.02420271  0.12101354       0.011
   0.14521624 -0.12101354 -0.02420271       0.022
   0.13311489 -0.10891218 -0.01210135       0.022
   0.12101354 -0.09681083  0.00000000       0.011
   0.15731760 -0.13311489 -0.01210135       0.011
   0.14521624 -0.12101354 -0.00000000       0.011
  -0.00000000  0.04840541  0.09681083       0.011
   0.14521624 -0.09681083 -0.04840541       0.022
   0.13311489 -0.08470948 -0.03630406       0.022
   0.15731760 -0.10891218 -0.03630406       0.011
   0.14521624 -0.09681083 -0.02420271       0.022
   0.13311489 -0.08470948 -0.01210135       0.022
   0.12101354 -0.07260812 -0.00000000       0.011
   0.15731760 -0.10891218 -0.01210135       0.011
   0.14521624 -0.09681083  0.00000000       0.011
   0.15731760 -0.08470948 -0.01210135       0.011

 k-points in reciprocal lattice and weights: KPOINTS
   0.00000000  0.00000000  0.00000000       0.000
   0.07692308  0.00000000 -0.00000000       0.004
   0.15384615 -0.00000000 -0.00000000       0.004
   0.23076923 -0.00000000 -0.00000000       0.004
   0.30769231 -0.00000000 -0.00000000       0.004
   0.38461538  0.00000000 -0.00000000       0.004
   0.46153846 -0.00000000  0.00000000       0.004
   0.07692308  0.07692308 -0.00000000       0.003
   0.15384615  0.07692308 -0.00000000       0.011
   0.23076923  0.07692308 -0.00000000       0.011
   0.30769231  0.07692308 -0.00000000       0.011
   0.38461538  0.07692308 -0.00000000       0.011
   0.46153846  0.07692308  0.00000000       0.011
  -0.46153846  0.07692308  0.00000000       0.011
  -0.38461538  0.07692308  0.00000000       0.011
  -0.30769231  0.07692308  0.00000000       0.011
  -0.23076923  0.07692308  0.00000000       0.011
  -0.15384615  0.07692308  0.00000000       0.011
  -0.07692308  0.07692308  0.00000000       0.005
   0.15384615  0.15384615 -0.00000000       0.003
   0.23076923  0.15384615 -0.00000000       0.011
   0.30769231  0.15384615 -0.00000000       0.011
   0.38461538  0.15384615 -0.00000000       0.011
   0.46153846  0.15384615 -0.00000000       0.011
  -0.46153846  0.15384615 -0.00000000       0.011
  -0.38461538  0.15384615  0.00000000       0.011
  -0.30769231  0.15384615 -0.00000000       0.011
  -0.23076923  0.15384615 -0.00000000       0.011
  -0.15384615  0.15384615 -0.00000000       0.005
   0.23076923  0.23076923 -0.00000000       0.003
   0.30769231  0.23076923 -0.00000000       0.011
   0.38461538  0.23076923 -0.00000000       0.011
   0.46153846  0.23076923 -0.00000000       0.011
  -0.46153846  0.23076923  0.00000000       0.011
  -0.38461538  0.23076923  0.00000000       0.011
  -0.30769231  0.23076923  0.00000000       0.011
  -0.23076923  0.23076923 -0.00000000       0.005
   0.30769231  0.30769231 -0.00000000       0.003
   0.38461538  0.30769231 -0.00000000       0.011
   0.46153846  0.30769231 -0.00000000       0.011
  -0.46153846  0.30769231 -0.00000000       0.011
  -0.38461538  0.30769231  0.00000000       0.011
  -0.30769231  0.30769231 -0.00000000       0.005
   0.38461538  0.38461538 -0.00000000       0.003
   0.46153846  0.38461538 -0.00000000       0.011
  -0.46153846  0.38461538  0.00000000       0.011
  -0.38461538  0.38461538  0.00000000       0.005
   0.46153846  0.46153846 -0.00000000       0.003
  -0.46153846  0.46153846 -0.00000000       0.005
   0.23076923  0.15384615  0.07692308       0.011
   0.30769231  0.15384615  0.07692308       0.022
   0.38461538  0.15384615  0.07692308       0.022
   0.46153846  0.15384615  0.07692308       0.022
  -0.46153846  0.15384615  0.07692308       0.022
   0.30769231  0.23076923  0.07692308       0.011
   0.38461538  0.23076923  0.07692308       0.022
   0.46153846  0.23076923  0.07692308       0.022
  -0.46153846  0.23076923  0.07692308       0.022
  -0.38461538  0.23076923  0.07692308       0.022
  -0.30769231  0.23076923  0.07692308       0.022
  -0.23076923  0.23076923  0.07692308       0.022
  -0.15384615  0.23076923  0.07692308       0.011
   0.38461538  0.30769231  0.07692308       0.011
   0.46153846  0.30769231  0.07692308       0.022
  -0.46153846  0.30769231  0.07692308       0.022
  -0.38461538  0.30769231  0.07692308       0.022
  -0.30769231  0.30769231  0.07692308       0.022
  -0.23076923  0.30769231  0.07692308       0.011
   0.46153846  0.38461538  0.07692308       0.011
  -0.46153846  0.38461538  0.07692308       0.022
  -0.38461538  0.38461538  0.07692308       0.022
  -0.30769231  0.38461538  0.07692308       0.011
  -0.46153846  0.46153846  0.07692308       0.011
  -0.38461538  0.46153846  0.07692308       0.011
   0.46153846  0.30769231  0.15384615       0.011
  -0.46153846  0.30769231  0.15384615       0.022
  -0.38461538  0.30769231  0.15384615       0.022
  -0.46153846  0.38461538  0.15384615       0.011
  -0.38461538  0.38461538  0.15384615       0.022
  -0.30769231  0.38461538  0.15384615       0.022
  -0.23076923  0.38461538  0.15384615       0.011
  -0.38461538  0.46153846  0.15384615       0.011
  -0.30769231  0.46153846  0.15384615       0.011
  -0.30769231  0.46153846  0.23076923       0.011

 position of ions in fractional coordinates (direct lattice)
   0.75000000  0.75000000  0.75000000
   0.25000000  0.25000000  0.25000000
   0.00000000  0.00000000  0.00000000

 position of ions in cartesian coordinates  (Angst):
   5.06614609  5.06614609  5.06614609
   1.68871536  1.68871536  1.68871536
   0.00000000  0.00000000  0.00000000



--------------------------------------------------------------------------------------------------------


 k-point  1 :   0.0000 0.0000 0.0000  plane waves:    3287
 k-point  2 :   0.0769 0.0000-0.0000  plane waves:    3245
 k-point  3 :   0.1538-0.0000-0.0000  plane waves:    3242
 k-point  4 :   0.2308-0.0000-0.0000  plane waves:    3245
 k-point  5 :   0.3077-0.0000-0.0000  plane waves:    3245
 k-point  6 :   0.3846 0.0000-0.0000  plane waves:    3248
 k-point  7 :   0.4615-0.0000 0.0000  plane waves:    3235
 k-point  8 :   0.0769 0.0769-0.0000  plane waves:    3239
 k-point  9 :   0.1538 0.0769-0.0000  plane waves:    3238
 k-point 10 :   0.2308 0.0769-0.0000  plane waves:    3244
 k-point 11 :   0.3077 0.0769-0.0000  plane waves:    3245
 k-point 12 :   0.3846 0.0769-0.0000  plane waves:    3250
 k-point 13 :   0.4615 0.0769 0.0000  plane waves:    3235
 k-point 14 :  -0.4615 0.0769 0.0000  plane waves:    3238
 k-point 15 :  -0.3846 0.0769 0.0000  plane waves:    3237
 k-point 16 :  -0.3077 0.0769 0.0000  plane waves:    3247
 k-point 17 :  -0.2308 0.0769 0.0000  plane waves:    3247
 k-point 18 :  -0.1538 0.0769 0.0000  plane waves:    3257
 k-point 19 :  -0.0769 0.0769 0.0000  plane waves:    3241
 k-point 20 :   0.1538 0.1538-0.0000  plane waves:    3243
 k-point 21 :   0.2308 0.1538-0.0000  plane waves:    3243
 k-point 22 :   0.3077 0.1538-0.0000  plane waves:    3242
 k-point 23 :   0.3846 0.1538-0.0000  plane waves:    3252
 k-point 24 :   0.4615 0.1538-0.0000  plane waves:    3238
 k-point 25 :  -0.4615 0.1538-0.0000  plane waves:    3233
 k-point 26 :  -0.3846 0.1538 0.0000  plane waves:    3231
 k-point 27 :  -0.3077 0.1538-0.0000  plane waves:    3231
 k-point 28 :  -0.2308 0.1538-0.0000  plane waves:    3235
 k-point 29 :  -0.1538 0.1538-0.0000  plane waves:    3242
 k-point 30 :   0.2308 0.2308-0.0000  plane waves:    3223
 k-point 31 :   0.3077 0.2308-0.0000  plane waves:    3243
 k-point 32 :   0.3846 0.2308-0.0000  plane waves:    3238
 k-point 33 :   0.4615 0.2308-0.0000  plane waves:    3242
 k-point 34 :  -0.4615 0.2308 0.0000  plane waves:    3240
 k-point 35 :  -0.3846 0.2308 0.0000  plane waves:    3225
 k-point 36 :  -0.3077 0.2308 0.0000  plane waves:    3229
 k-point 37 :  -0.2308 0.2308-0.0000  plane waves:    3238
 k-point 38 :   0.3077 0.3077-0.0000  plane waves:    3246
 k-point 39 :   0.3846 0.3077-0.0000  plane waves:    3244
 k-point 40 :   0.4615 0.3077-0.0000  plane waves:    3241
 k-point 41 :  -0.4615 0.3077-0.0000  plane waves:    3239
 k-point 42 :  -0.3846 0.3077 0.0000  plane waves:    3228
 k-point 43 :  -0.3077 0.3077-0.0000  plane waves:    3224
 k-point 44 :   0.3846 0.3846-0.0000  plane waves:    3242
 k-point 45 :   0.4615 0.3846-0.0000  plane waves:    3250
 k-point 46 :  -0.4615 0.3846 0.0000  plane waves:    3247
 k-point 47 :  -0.3846 0.3846 0.0000  plane waves:    3226
 k-point 48 :   0.4615 0.4615-0.0000  plane waves:    3262
 k-point 49 :  -0.4615 0.4615-0.0000  plane waves:    3258
 k-point 50 :   0.2308 0.1538 0.0769  plane waves:    3246
 k-point 51 :   0.3077 0.1538 0.0769  plane waves:    3245
 k-point 52 :   0.3846 0.1538 0.0769  plane waves:    3250
 k-point 53 :   0.4615 0.1538 0.0769  plane waves:    3248
 k-point 54 :  -0.4615 0.1538 0.0769  plane waves:    3232
 k-point 55 :   0.3077 0.2308 0.0769  plane waves:    3241
 k-point 56 :   0.3846 0.2308 0.0769  plane waves:    3242
 k-point 57 :   0.4615 0.2308 0.0769  plane waves:    3244
 k-point 58 :  -0.4615 0.2308 0.0769  plane waves:    3232
 k-point 59 :  -0.3846 0.2308 0.0769  plane waves:    3236
 k-point 60 :  -0.3077 0.2308 0.0769  plane waves:    3239
 k-point 61 :  -0.2308 0.2308 0.0769  plane waves:    3241
 k-point 62 :  -0.1538 0.2308 0.0769  plane waves:    3248
 k-point 63 :   0.3846 0.3077 0.0769  plane waves:    3245
 k-point 64 :   0.4615 0.3077 0.0769  plane waves:    3242
 k-point 65 :  -0.4615 0.3077 0.0769  plane waves:    3238
 k-point 66 :  -0.3846 0.3077 0.0769  plane waves:    3230
 k-point 67 :  -0.3077 0.3077 0.0769  plane waves:    3232
 k-point 68 :  -0.2308 0.3077 0.0769  plane waves:    3233
 k-point 69 :   0.4615 0.3846 0.0769  plane waves:    3247
 k-point 70 :  -0.4615 0.3846 0.0769  plane waves:    3239
 k-point 71 :  -0.3846 0.3846 0.0769  plane waves:    3239
 k-point 72 :  -0.3077 0.3846 0.0769  plane waves:    3239
 k-point 73 :  -0.4615 0.4615 0.0769  plane waves:    3250
 k-point 74 :  -0.3846 0.4615 0.0769  plane waves:    3249
 k-point 75 :   0.4615 0.3077 0.1538  plane waves:    3239
 k-point 76 :  -0.4615 0.3077 0.1538  plane waves:    3239
 k-point 77 :  -0.3846 0.3077 0.1538  plane waves:    3234
 k-point 78 :  -0.4615 0.3846 0.1538  plane waves:    3241
 k-point 79 :  -0.3846 0.3846 0.1538  plane waves:    3243
 k-point 80 :  -0.3077 0.3846 0.1538  plane waves:    3236
 k-point 81 :  -0.2308 0.3846 0.1538  plane waves:    3241
 k-point 82 :  -0.3846 0.4615 0.1538  plane waves:    3241
 k-point 83 :  -0.3077 0.4615 0.1538  plane waves:    3239
 k-point 84 :  -0.3077 0.4615 0.2308  plane waves:    3236

 maximum and minimum number of plane-waves per node :       839      789

 maximum number of plane-waves:      3287
 maximum index in each direction:
   IXMAX=   10   IYMAX=   10   IZMAX=   10
   IXMIN=  -10   IYMIN=  -10   IZMIN=  -10


 parallel 3D FFT for wavefunctions:
    minimum data exchange during FFTs selected (reduces bandwidth)
 parallel 3D FFT for charge:
    minimum data exchange during FFTs selected (reduces bandwidth)


 total amount of memory used by VASP MPI-rank0    74315. kBytes
=======================================================================

   base      :      30000. kBytes
   nonl-proj :      29940. kBytes
   fftplans  :       6282. kBytes
   grid      :       3541. kBytes
   one-center:         15. kBytes
   wavefun   :       4537. kBytes

     INWAV:  cpu time    0.0003: real time    0.0007
 Broyden mixing: mesh for mixing (old mesh)
   NGX = 21   NGY = 21   NGZ = 21
  (NGX  = 84   NGY  = 84   NGZ  = 84)
  gives a total of   9261 points

 initial charge density was supplied:
 charge density of overlapping atoms calculated
 number of electron      25.0000000 magnetization
 keeping initial charge density in first step


--------------------------------------------------------------------------------------------------------


 Maximum index for augmentation-charges        31554 (set IRDMAX)


--------------------------------------------------------------------------------------------------------


 First call to EWALD:  gamma=   0.417
 Maximum number of real-space cells 3x 3x 3
 Maximum number of reciprocal cells 3x 3x 3

    FEWALD:  cpu time    0.0054: real time    0.0060


--------------------------------------- Iteration      1(   1)  ---------------------------------------


    POTLOK:  cpu time    0.0551: real time    0.1338
    SETDIJ:  cpu time    0.0755: real time    0.0759
     EDDAV:  cpu time    0.9839: real time    0.9905
       DOS:  cpu time    0.0033: real time    0.0039
    --------------------------------------------
      LOOP:  cpu time    1.1180: real time    1.2049

 eigenvalue-minimisations  :  2688
 total energy-change (2. order) : 0.1330836E+03  (-0.1392643E+04)
 number of electron      25.0000000 magnetization
 augmentation part       25.0000000 magnetization

 Free energy of the ion-electron system (eV)
  ---------------------------------------------------
  alpha Z        PSCENC =        88.41650232
  Ewald energy   TEWEN  =     -1472.14257378
  -Hartree energ DENC   =      -358.41487287
  -exchange      EXHF   =         0.00000000
  -V(xc)+E(xc)   XCENC  =       -20.42930464
  PAW double counting   =      1514.36848356    -1421.27055995
  entropy T*S    EENTRO =        -0.00013889
  eigenvalues    EBANDS =        61.45151024
  atomic energy  EATOM  =      1741.10451121
  Solvation  Ediel_sol  =         0.00000000
  ---------------------------------------------------
  free energy    TOTEN  =       133.08355720 eV

  energy without entropy =      133.08369609  energy(sigma->0) =      133.08362664


--------------------------------------------------------------------------------------------------------




--------------------------------------- Iteration      1(   2)  ---------------------------------------


     EDDAV:  cpu time    1.1654: real time    1.2009
       DOS:  cpu time    0.0025: real time    0.0027
    --------------------------------------------
      LOOP:  cpu time    1.1680: real time    1.2041

 eigenvalue-minimisations  :  3368
 total energy-change (2. order) :-0.1522465E+03  (-0.1502892E+03)
 number of electron      25.0000000 magnetization
 augmentation part       25.0000000 magnetization

 Free energy of the ion-electron system (eV)
  ---------------------------------------------------
  alpha Z        PSCENC =        88.41650232
  Ewald energy   TEWEN  =     -1472.14257378
  -Hartree energ DENC   =      -358.41487287
  -exchange      EXHF   =         0.00000000
  -V(xc)+E(xc)   XCENC  =       -20.42930464
  PAW double counting   =      1514.36848356    -1421.27055995
  entropy T*S    EENTRO =        -0.00008818
  eigenvalues    EBANDS =       -90.79504110
  atomic energy  EATOM  =      1741.10451121
  Solvation  Ediel_sol  =         0.00000000
  ---------------------------------------------------
  free energy    TOTEN  =       -19.16294344 eV

  energy without entropy =      -19.16285526  energy(sigma->0) =      -19.16289935


--------------------------------------------------------------------------------------------------------




--------------------------------------- Iteration      1(   3)  ---------------------------------------


     EDDAV:  cpu time    1.2702: real time    1.3017
       DOS:  cpu time    0.0026: real time    0.0029
    --------------------------------------------
      LOOP:  cpu time    1.2729: real time    1.3059

 eigenvalue-minimisations  :  3712
 total energy-change (2. order) :-0.5342368E+01  (-0.5275374E+01)
 number of electron      25.0000000 magnetization
 augmentation part       25.0000000 magnetization

 Free energy of the ion-electron system (eV)
  ---------------------------------------------------
  alpha Z        PSCENC =        88.41650232
  Ewald energy   TEWEN  =     -1472.14257378
  -Hartree energ DENC   =      -358.41487287
  -exchange      EXHF   =         0.00000000
  -V(xc)+E(xc)   XCENC  =       -20.42930464
  PAW double counting   =      1514.36848356    -1421.27055995
  entropy T*S    EENTRO =        -0.00029845
  eigenvalues    EBANDS =       -96.13719907
  atomic energy  EATOM  =      1741.10451121
  Solvation  Ediel_sol  =         0.00000000
  ---------------------------------------------------
  free energy    TOTEN  =       -24.50531168 eV

  energy without entropy =      -24.50501323  energy(sigma->0) =      -24.50516245


--------------------------------------------------------------------------------------------------------




--------------------------------------- Iteration      1(   4)  ---------------------------------------


     EDDAV:  cpu time    1.1815: real time    1.1981
       DOS:  cpu time    0.0026: real time    0.0028
    --------------------------------------------
      LOOP:  cpu time    1.1841: real time    1.2018

 eigenvalue-minimisations  :  3272
 total energy-change (2. order) :-0.7566758E-01  (-0.7535380E-01)
 number of electron      25.0000000 magnetization
 augmentation part       25.0000000 magnetization

 Free energy of the ion-electron system (eV)
  ---------------------------------------------------
  alpha Z        PSCENC =        88.41650232
  Ewald energy   TEWEN  =     -1472.14257378
  -Hartree energ DENC   =      -358.41487287
  -exchange      EXHF   =         0.00000000
  -V(xc)+E(xc)   XCENC  =       -20.42930464
  PAW double counting   =      1514.36848356    -1421.27055995
  entropy T*S    EENTRO =        -0.00024049
  eigenvalues    EBANDS =       -96.21292461
  atomic energy  EATOM  =      1741.10451121
  Solvation  Ediel_sol  =         0.00000000
  ---------------------------------------------------
  free energy    TOTEN  =       -24.58097926 eV

  energy without entropy =      -24.58073877  energy(sigma->0) =      -24.58085901


--------------------------------------------------------------------------------------------------------




--------------------------------------- Iteration      1(   5)  ---------------------------------------


     EDDAV:  cpu time    1.3108: real time    1.3358
       DOS:  cpu time    0.0025: real time    0.0027
    CHARGE:  cpu time    0.2594: real time    0.2604
    MIXING:  cpu time    0.0053: real time    0.0054
    --------------------------------------------
      LOOP:  cpu time    1.5780: real time    1.6029

 eigenvalue-minimisations  :  3840
 total energy-change (2. order) :-0.1999876E-02  (-0.1999345E-02)
 number of electron      25.0000000 magnetization
 augmentation part        4.7669965 magnetization

 Broyden mixing:
  rms(total) = 0.31478E+01    rms(broyden)= 0.31478E+01
  rms(prec ) = 0.34735E+01
  weight for this iteration     100.00

 Free energy of the ion-electron system (eV)
  ---------------------------------------------------
  alpha Z        PSCENC =        88.41650232
  Ewald energy   TEWEN  =     -1472.14257378
  -Hartree energ DENC   =      -358.41487287
  -exchange      EXHF   =         0.00000000
  -V(xc)+E(xc)   XCENC  =       -20.42930464
  PAW double counting   =      1514.36848356    -1421.27055995
  entropy T*S    EENTRO =        -0.00024200
  eigenvalues    EBANDS =       -96.21492298
  atomic energy  EATOM  =      1741.10451121
  Solvation  Ediel_sol  =         0.00000000
  ---------------------------------------------------
  free energy    TOTEN  =       -24.58297913 eV

  energy without entropy =      -24.58273713  energy(sigma->0) =      -24.58285813


--------------------------------------------------------------------------------------------------------




--------------------------------------- Iteration      1(   6)  ---------------------------------------


    POTLOK:  cpu time    0.0517: real time    0.0756
    SETDIJ:  cpu time    0.0756: real time    0.0758
     EDDAV:  cpu time    1.2034: real time    1.2035
       DOS:  cpu time    0.0025: real time    0.0026
    CHARGE:  cpu time    0.2076: real time    0.2080
    MIXING:  cpu time    0.0047: real time    0.0048
    --------------------------------------------
      LOOP:  cpu time    1.5453: real time    1.5689

 eigenvalue-minimisations  :  3560
 total energy-change (2. order) : 0.1116533E+01  (-0.2979451E+00)
 number of electron      25.0000000 magnetization
 augmentation part        4.9003638 magnetization

 Broyden mixing:
  rms(total) = 0.20857E+01    rms(broyden)= 0.20857E+01
  rms(prec ) = 0.21643E+01
  weight for this iteration     100.00

 eigenvalues of (default mixing * dielectric matrix)
  average eigenvalue GAMMA=   2.7951
  2.7951

 Free energy of the ion-electron system (eV)
  ---------------------------------------------------
  alpha Z        PSCENC =        88.41650232
  Ewald energy   TEWEN  =     -1472.14257378
  -Hartree energ DENC   =      -342.28562195
  -exchange      EXHF   =         0.00000000
  -V(xc)+E(xc)   XCENC  =       -21.02112162
  PAW double counting   =      1752.30301529    -1661.31027360
  entropy T*S    EENTRO =        -0.00005712
  eigenvalues    EBANDS =      -108.53082709
  atomic energy  EATOM  =      1741.10451121
  Solvation  Ediel_sol  =         0.00000000
  ---------------------------------------------------
  free energy    TOTEN  =       -23.46644633 eV

  energy without entropy =      -23.46638921  energy(sigma->0) =      -23.46641777


--------------------------------------------------------------------------------------------------------




--------------------------------------- Iteration      1(   7)  ---------------------------------------


    POTLOK:  cpu time    0.0495: real time    0.0700
    SETDIJ:  cpu time    0.0748: real time    0.0749
     EDDAV:  cpu time    1.2336: real time    1.2338
       DOS:  cpu time    0.0026: real time    0.0028
    CHARGE:  cpu time    0.1824: real time    0.1830
    MIXING:  cpu time    0.0042: real time    0.0045
    --------------------------------------------
      LOOP:  cpu time    1.5471: real time    1.5727

 eigenvalue-minimisations  :  3688
 total energy-change (2. order) : 0.1585798E+00  (-0.1199249E+00)
 number of electron      25.0000000 magnetization
 augmentation part        5.0418588 magnetization

 Broyden mixing:
  rms(total) = 0.34160E+00    rms(broyden)= 0.34160E+00
  rms(prec ) = 0.41617E+00
  weight for this iteration     100.00

 eigenvalues of (default mixing * dielectric matrix)
  average eigenvalue GAMMA=   1.8046
  1.3233  2.2858

 Free energy of the ion-electron system (eV)
  ---------------------------------------------------
  alpha Z        PSCENC =        88.41650232
  Ewald energy   TEWEN  =     -1472.14257378
  -Hartree energ DENC   =      -330.60145336
  -exchange      EXHF   =         0.00000000
  -V(xc)+E(xc)   XCENC  =       -21.40485191
  PAW double counting   =      2047.16319853    -1958.52300701
  entropy T*S    EENTRO =        -0.00022344
  eigenvalues    EBANDS =      -117.31996908
  atomic energy  EATOM  =      1741.10451121
  Solvation  Ediel_sol  =         0.00000000
  ---------------------------------------------------
  free energy    TOTEN  =       -23.30786652 eV

  energy without entropy =      -23.30764308  energy(sigma->0) =      -23.30775480


--------------------------------------------------------------------------------------------------------




--------------------------------------- Iteration      1(   8)  ---------------------------------------


    POTLOK:  cpu time    0.0411: real time    0.0787
    SETDIJ:  cpu time    0.0734: real time    0.0735
     EDDAV:  cpu time    1.1313: real time    1.1314
       DOS:  cpu time    0.0026: real time    0.0028
    CHARGE:  cpu time    0.1826: real time    0.1827
    MIXING:  cpu time    0.0044: real time    0.0045
    --------------------------------------------
      LOOP:  cpu time    1.4353: real time    1.4710

 eigenvalue-minimisations  :  3304
 total energy-change (2. order) : 0.2307785E-01  (-0.2648948E-01)
 number of electron      25.0000000 magnetization
 augmentation part        4.9605070 magnetization

 Broyden mixing:
  rms(total) = 0.14794E+00    rms(broyden)= 0.14794E+00
  rms(prec ) = 0.20241E+00
  weight for this iteration     100.00

 eigenvalues of (default mixing * dielectric matrix)
  average eigenvalue GAMMA=   1.5304
  2.4786  1.3663  0.7464

 Free energy of the ion-electron system (eV)
  ---------------------------------------------------
  alpha Z        PSCENC =        88.41650232
  Ewald energy   TEWEN  =     -1472.14257378
  -Hartree energ DENC   =      -334.46867375
  -exchange      EXHF   =         0.00000000
  -V(xc)+E(xc)   XCENC  =       -21.26135395
  PAW double counting   =      2059.40866682    -1970.79389253
  entropy T*S    EENTRO =        -0.00012531
  eigenvalues    EBANDS =      -113.54784971
  atomic energy  EATOM  =      1741.10451121
  Solvation  Ediel_sol  =         0.00000000
  ---------------------------------------------------
  free energy    TOTEN  =       -23.28478867 eV

  energy without entropy =      -23.28466336  energy(sigma->0) =      -23.28472601


--------------------------------------------------------------------------------------------------------




--------------------------------------- Iteration      1(   9)  ---------------------------------------


    POTLOK:  cpu time    0.0406: real time    0.0698
    SETDIJ:  cpu time    0.0743: real time    0.0744
     EDDAV:  cpu time    1.2608: real time    1.2613
       DOS:  cpu time    0.0026: real time    0.0029
    CHARGE:  cpu time    0.1822: real time    0.1822
    MIXING:  cpu time    0.0042: real time    0.0052
    --------------------------------------------
      LOOP:  cpu time    1.5646: real time    1.5956

 eigenvalue-minimisations  :  3832
 total energy-change (2. order) : 0.4772248E-02  (-0.5654722E-02)
 number of electron      25.0000000 magnetization
 augmentation part        4.9826187 magnetization

 Broyden mixing:
  rms(total) = 0.22654E-01    rms(broyden)= 0.22654E-01
  rms(prec ) = 0.45347E-01
  weight for this iteration     100.00

 eigenvalues of (default mixing * dielectric matrix)
  average eigenvalue GAMMA=   1.4176
  2.4612  1.5189  1.0884  0.6018

 Free energy of the ion-electron system (eV)
  ---------------------------------------------------
  alpha Z        PSCENC =        88.41650232
  Ewald energy   TEWEN  =     -1472.14257378
  -Hartree energ DENC   =      -334.02259782
  -exchange      EXHF   =         0.00000000
  -V(xc)+E(xc)   XCENC  =       -21.26696917
  PAW double counting   =      2078.88981127    -1990.31189359
  entropy T*S    EENTRO =        -0.00013027
  eigenvalues    EBANDS =      -113.94667659
  atomic energy  EATOM  =      1741.10451121
  Solvation  Ediel_sol  =         0.00000000
  ---------------------------------------------------
  free energy    TOTEN  =       -23.28001642 eV

  energy without entropy =      -23.27988615  energy(sigma->0) =      -23.27995128


--------------------------------------------------------------------------------------------------------




--------------------------------------- Iteration      1(  10)  ---------------------------------------


    POTLOK:  cpu time    0.0428: real time    0.0675
    SETDIJ:  cpu time    0.0741: real time    0.0741
     EDDAV:  cpu time    1.1893: real time    1.1894
       DOS:  cpu time    0.0027: real time    0.0029
    CHARGE:  cpu time    0.2077: real time    0.2094
    MIXING:  cpu time    0.0109: real time    0.0110
    --------------------------------------------
      LOOP:  cpu time    1.5274: real time    1.5558

 eigenvalue-minimisations  :  3496
 total energy-change (2. order) : 0.5143046E-03  (-0.6136263E-03)
 number of electron      25.0000000 magnetization
 augmentation part        4.9848863 magnetization

 Broyden mixing:
  rms(total) = 0.10477E-01    rms(broyden)= 0.10477E-01
  rms(prec ) = 0.16806E-01
  weight for this iteration     100.00

 eigenvalues of (default mixing * dielectric matrix)
  average eigenvalue GAMMA=   1.4315
  2.4717  1.9128  1.1896  0.9760  0.6075

 Free energy of the ion-electron system (eV)
  ---------------------------------------------------
  alpha Z        PSCENC =        88.41650232
  Ewald energy   TEWEN  =     -1472.14257378
  -Hartree energ DENC   =      -333.91676075
  -exchange      EXHF   =         0.00000000
  -V(xc)+E(xc)   XCENC  =       -21.26856403
  PAW double counting   =      2083.56856720    -1994.96155163
  entropy T*S    EENTRO =        -0.00012855
  eigenvalues    EBANDS =      -114.07950411
  atomic energy  EATOM  =      1741.10451121
  Solvation  Ediel_sol  =         0.00000000
  ---------------------------------------------------
  free energy    TOTEN  =       -23.27950212 eV

  energy without entropy =      -23.27937357  energy(sigma->0) =      -23.27943784


--------------------------------------------------------------------------------------------------------




--------------------------------------- Iteration      1(  11)  ---------------------------------------


    POTLOK:  cpu time    0.0507: real time    0.0704
    SETDIJ:  cpu time    0.0867: real time    0.0867
     EDDAV:  cpu time    1.1707: real time    1.1708
       DOS:  cpu time    0.0025: real time    0.0028
    CHARGE:  cpu time    0.1816: real time    0.1817
    MIXING:  cpu time    0.0057: real time    0.0058
    --------------------------------------------
      LOOP:  cpu time    1.4979: real time    1.5171

 eigenvalue-minimisations  :  3344
 total energy-change (2. order) : 0.7043133E-04  (-0.4576834E-04)
 number of electron      25.0000000 magnetization
 augmentation part        4.9836838 magnetization

 Broyden mixing:
  rms(total) = 0.42313E-02    rms(broyden)= 0.42313E-02
  rms(prec ) = 0.51083E-02
  weight for this iteration     100.00

 eigenvalues of (default mixing * dielectric matrix)
  average eigenvalue GAMMA=   1.4629
  2.5827  2.1998  1.2997  0.6139  1.0406  1.0406

 Free energy of the ion-electron system (eV)
  ---------------------------------------------------
  alpha Z        PSCENC =        88.41650232
  Ewald energy   TEWEN  =     -1472.14257378
  -Hartree energ DENC   =      -334.13261801
  -exchange      EXHF   =         0.00000000
  -V(xc)+E(xc)   XCENC  =       -21.26046000
  PAW double counting   =      2085.11899119    -1996.47386270
  entropy T*S    EENTRO =        -0.00012854
  eigenvalues    EBANDS =      -113.90979338
  atomic energy  EATOM  =      1741.10451121
  Solvation  Ediel_sol  =         0.00000000
  ---------------------------------------------------
  free energy    TOTEN  =       -23.27943169 eV

  energy without entropy =      -23.27930314  energy(sigma->0) =      -23.27936742


--------------------------------------------------------------------------------------------------------




--------------------------------------- Iteration      1(  12)  ---------------------------------------


    POTLOK:  cpu time    0.0601: real time    0.0819
    SETDIJ:  cpu time    0.0718: real time    0.0718
     EDDAV:  cpu time    1.2861: real time    1.2863
       DOS:  cpu time    0.0027: real time    0.0029
    CHARGE:  cpu time    0.1821: real time    0.1823
    MIXING:  cpu time    0.0050: real time    0.0050
    --------------------------------------------
      LOOP:  cpu time    1.6077: real time    1.6316

 eigenvalue-minimisations  :  3912
 total energy-change (2. order) :-0.2445968E-05  (-0.2415243E-05)
 number of electron      25.0000000 magnetization
 augmentation part        4.9833239 magnetization

 Broyden mixing:
  rms(total) = 0.24618E-02    rms(broyden)= 0.24618E-02
  rms(prec ) = 0.25891E-02
  weight for this iteration     100.00

 eigenvalues of (default mixing * dielectric matrix)
  average eigenvalue GAMMA=   1.5240
  2.5819  2.5819  1.8319  0.6078  1.0442  1.0442  0.9758

 Free energy of the ion-electron system (eV)
  ---------------------------------------------------
  alpha Z        PSCENC =        88.41650232
  Ewald energy   TEWEN  =     -1472.14257378
  -Hartree energ DENC   =      -334.15960019
  -exchange      EXHF   =         0.00000000
  -V(xc)+E(xc)   XCENC  =       -21.25905228
  PAW double counting   =      2088.23912063    -1999.58633803
  entropy T*S    EENTRO =        -0.00012858
  eigenvalues    EBANDS =      -113.89187544
  atomic energy  EATOM  =      1741.10451121
  Solvation  Ediel_sol  =         0.00000000
  ---------------------------------------------------
  free energy    TOTEN  =       -23.27943413 eV

  energy without entropy =      -23.27930556  energy(sigma->0) =      -23.27936984


--------------------------------------------------------------------------------------------------------




--------------------------------------- Iteration      1(  13)  ---------------------------------------


    POTLOK:  cpu time    0.0407: real time    0.0700
    SETDIJ:  cpu time    0.0753: real time    0.0753
     EDDAV:  cpu time    1.1253: real time    1.1254
       DOS:  cpu time    0.0179: real time    0.0182
    CHARGE:  cpu time    0.1884: real time    0.1885
    MIXING:  cpu time    0.0051: real time    0.0052
    --------------------------------------------
      LOOP:  cpu time    1.4527: real time    1.4814

 eigenvalue-minimisations  :  3280
 total energy-change (2. order) : 0.1380731E-06  (-0.1202568E-06)
 number of electron      25.0000000 magnetization
 augmentation part        4.9832964 magnetization

 Broyden mixing:
  rms(total) = 0.37284E-03    rms(broyden)= 0.37283E-03
  rms(prec ) = 0.42622E-03
  weight for this iteration     100.00

 eigenvalues of (default mixing * dielectric matrix)
  average eigenvalue GAMMA=   1.4537
  2.5437  2.5437  1.8499  0.6080  1.1635  0.9451  0.9879  0.9879

 Free energy of the ion-electron system (eV)
  ---------------------------------------------------
  alpha Z        PSCENC =        88.41650232
  Ewald energy   TEWEN  =     -1472.14257378
  -Hartree energ DENC   =      -334.16455587
  -exchange      EXHF   =         0.00000000
  -V(xc)+E(xc)   XCENC  =       -21.25880518
  PAW double counting   =      2090.27551335    -2001.61420269
  entropy T*S    EENTRO =        -0.00012864
  eigenvalues    EBANDS =      -113.89569471
  atomic energy  EATOM  =      1741.10451121
  Solvation  Ediel_sol  =         0.00000000
  ---------------------------------------------------
  free energy    TOTEN  =       -23.27943399 eV

  energy without entropy =      -23.27930535  energy(sigma->0) =      -23.27936967


--------------------------------------------------------------------------------------------------------




--------------------------------------- Iteration      1(  14)  ---------------------------------------


    POTLOK:  cpu time    0.0448: real time    0.0680
    SETDIJ:  cpu time    0.0746: real time    0.0746
     EDDAV:  cpu time    1.1079: real time    1.1080
       DOS:  cpu time    0.0027: real time    0.0029
    --------------------------------------------
      LOOP:  cpu time    1.2299: real time    1.2521

 eigenvalue-minimisations  :  3072
 total energy-change (2. order) :-0.7541939E-07  (-0.3246925E-07)
 number of electron      25.0000000 magnetization
 augmentation part        4.9832964 magnetization

 Free energy of the ion-electron system (eV)
  ---------------------------------------------------
  alpha Z        PSCENC =        88.41650232
  Ewald energy   TEWEN  =     -1472.14257378
  -Hartree energ DENC   =      -334.16612563
  -exchange      EXHF   =         0.00000000
  -V(xc)+E(xc)   XCENC  =       -21.25873109
  PAW double counting   =      2090.22119794    -2001.56086342
  entropy T*S    EENTRO =        -0.00012865
  eigenvalues    EBANDS =      -113.89322298
  atomic energy  EATOM  =      1741.10451121
  Solvation  Ediel_sol  =         0.00000000
  ---------------------------------------------------
  free energy    TOTEN  =       -23.27943407 eV

  energy without entropy =      -23.27930542  energy(sigma->0) =      -23.27936974


--------------------------------------------------------------------------------------------------------




 average (electrostatic) potential at core
  the test charge radii are     1.1707  1.1712  1.2059
  (the norm of the test charge is              1.0000)
       1 -37.4988       2 -86.5570       3 -67.9754



 E-fermi :   6.7090     XC(G=0): -10.4889     alpha+bet :-11.3608


 k-point     1 :       0.0000    0.0000    0.0000
  band No.  band energies     occupation
      1     -25.8425      2.00000
      2     -25.8425      2.00000
      3     -25.8425      2.00000
      4      -4.6939      2.00000
      5       1.7613      2.00000
      6       1.7613      2.00000
      7       1.7613      2.00000
      8       2.5361      2.00000
      9       2.5361      2.00000
     10       4.8770      2.00000
     11       5.5324      2.00000
     12       5.5324      2.00000
     13       5.5324      2.00000
     14       7.4716      0.00000
     15       7.4716      0.00000
     16       7.4716      0.00000

 k-point     2 :       0.0769    0.0000   -0.0000
  band No.  band energies     occupation
      1     -25.8429      2.00000
      2     -25.8425      2.00000
      3     -25.8425      2.00000
      4      -4.6449      2.00000
      5       1.6693      2.00000
      6       1.7485      2.00000
      7       1.7485      2.00000
      8       2.5593      2.00000
      9       2.5593      2.00000
     10       4.6032      2.00000
     11       5.4661      2.00000
     12       5.4661      2.00000
     13       5.6192      2.00000
     14       7.3300      0.00000
     15       7.3300      0.00000
     16       7.7387      0.00000

 k-point     3 :       0.1538   -0.0000   -0.0000
  band No.  band energies     occupation
      1     -25.8440      2.00000
      2     -25.8426      2.00000
      3     -25.8426      2.00000
      4      -4.5032      2.00000
      5       1.4234      2.00000
      6       1.7204      2.00000
      7       1.7204      2.00000
      8       2.6140      2.00000
      9       2.6140      2.00000
     10       4.0409      2.00000
     11       5.2998      2.00000
     12       5.2998      2.00000
     13       5.8108      2.00000
     14       7.2608      0.00000
     15       7.2608      0.00000
     16       8.3268      0.00000

 k-point     4 :       0.2308   -0.0000   -0.0000
  band No.  band energies     occupation
      1     -25.8455      2.00000
      2     -25.8426      2.00000
      3     -25.8426      2.00000
      4      -4.2862      2.00000
      5       1.0838      2.00000
      6       1.6950      2.00000
      7       1.6950      2.00000
      8       2.6700      2.00000
      9       2.6700      2.00000
     10       3.4684      2.00000
     11       5.1029      2.00000
     12       5.1029      2.00000
     13       6.0341      2.00000
     14       7.3059      0.00000
     15       7.3059      0.00000
     16       8.8528      0.00000

 k-point     5 :       0.3077   -0.0000   -0.0000
  band No.  band energies     occupation
      1     -25.8471      2.00000
      2     -25.8426      2.00000
      3     -25.8426      2.00000
      4      -4.0271      2.00000
      5       0.7105      2.00000
      6       1.6832      2.00000
      7       1.6832      2.00000
      8       2.7033      2.00000
      9       2.7033      2.00000
     10       3.0076      2.00000
     11       4.9338      2.00000
     12       4.9338      2.00000
     13       6.2528      2.00000
     14       7.4301      0.00000
     15       7.4301      0.00000
     16       8.6006      0.00000

 k-point     6 :       0.3846    0.0000   -0.0000
  band No.  band energies     occupation
      1     -25.8485      2.00000
      2     -25.8426      2.00000
      3     -25.8426      2.00000
      4      -3.7808      2.00000
      5       0.3745      2.00000
      6       1.6843      2.00000
      7       1.6843      2.00000
      8       2.7011      2.00000
      9       2.7095      2.00000
     10       2.7095      2.00000
     11       4.8208      2.00000
     12       4.8208      2.00000
     13       6.4592      2.00000
     14       7.5872      0.00000
     15       7.5872      0.00000
     16       8.0283      0.00000

 k-point     7 :       0.4615   -0.0000    0.0000
  band No.  band energies     occupation
      1     -25.8492      2.00000
      2     -25.8426      2.00000
      3     -25.8426      2.00000
      4      -3.6239      2.00000
      5       0.1676      2.00000
      6       1.6893      2.00000
      7       1.6893      2.00000
      8       2.5516      2.00000
      9       2.7038      2.00000
     10       2.7038      2.00000
     11       4.7672      2.00000
     12       4.7672      2.00000
     13       6.6258      2.00000
     14       7.6360      0.00000
     15       7.7051      0.00000
     16       7.7051      0.00000

 k-point     8 :       0.0769    0.0769   -0.0000
  band No.  band energies     occupation
      1     -25.8429      2.00000
      2     -25.8426      2.00000
      3     -25.8426      2.00000
      4      -4.6288      2.00000
      5       1.5693      2.00000
      6       1.7865      2.00000
      7       1.7865      2.00000
      8       2.5620      2.00000
      9       2.5620      2.00000
     10       4.5889      2.00000
     11       5.3538      2.00000
     12       5.3538      2.00000
     13       5.7587      2.00000
     14       7.1713      0.00000
     15       7.6597      0.00000
     16       7.7073      0.00000

 k-point     9 :       0.1538    0.0769   -0.0000
  band No.  band energies     occupation
      1     -25.8437      2.00000
      2     -25.8427      2.00000
      3     -25.8426      2.00000
      4      -4.5189      2.00000
      5       1.3611      2.00000
      6       1.7718      2.00000
      7       1.7982      2.00000
      8       2.5922      2.00000
      9       2.6056      2.00000
     10       4.2027      2.00000
     11       5.1751      2.00000
     12       5.1819      2.00000
     13       5.9658      2.00000
     14       7.0617      0.00000
     15       7.4699      0.00000
     16       8.0685      0.00000

 k-point    10 :       0.2308    0.0769   -0.0000
  band No.  band energies     occupation
      1     -25.8451      2.00000
      2     -25.8427      2.00000
      3     -25.8426      2.00000
      4      -4.3284      2.00000
      5       1.0905      2.00000
      6       1.7158      2.00000
      7       1.7913      2.00000
      8       2.6415      2.00000
      9       2.6638      2.00000
     10       3.6585      2.00000
     11       4.9911      2.00000
     12       4.9978      2.00000
     13       6.2165      2.00000
     14       7.0965      0.00000
     15       7.4001      0.00000
     16       8.5029      0.00000

 k-point    11 :       0.3077    0.0769   -0.0000
  band No.  band energies     occupation
      1     -25.8466      2.00000
      2     -25.8428      2.00000
      3     -25.8427      2.00000
      4      -4.0848      2.00000
      5       0.7785      2.00000
      6       1.6689      2.00000
      7       1.7779      2.00000
      8       2.6840      2.00000
      9       2.7049      2.00000
     10       3.1591      2.00000
     11       4.8319      2.00000
     12       4.8436      2.00000
     13       6.3929      2.00000
     14       7.2976      0.00000
     15       7.4366      0.00000
     16       8.6353      0.00000

 k-point    12 :       0.3846    0.0769   -0.0000
  band No.  band energies     occupation
      1     -25.8480      2.00000
      2     -25.8428      2.00000
      3     -25.8428      2.00000
      4      -3.8348      2.00000
      5       0.4715      2.00000
      6       1.6504      2.00000
      7       1.7615      2.00000
      8       2.6912      2.00000
      9       2.7179      2.00000
     10       2.8070      2.00000
     11       4.7036      2.00000
     12       4.7513      2.00000
     13       6.5298      2.00000
     14       7.5530      0.00000
     15       7.5557      0.00000
     16       8.1700      0.00000

 k-point    13 :       0.4615    0.0769    0.0000
  band No.  band energies     occupation
      1     -25.8489      2.00000
      2     -25.8429      2.00000
      3     -25.8427      2.00000
      4      -3.6466      2.00000
      5       0.2447      2.00000
      6       1.6599      2.00000
      7       1.7372      2.00000
      8       2.5673      2.00000
      9       2.7169      2.00000
     10       2.7247      2.00000
     11       4.6217      2.00000
     12       4.7134      2.00000
     13       6.6713      2.00000
     14       7.6745      0.00000
     15       7.6835      0.00000
     16       7.8008      0.00000

 k-point    14 :      -0.4615    0.0769    0.0000
  band No.  band energies     occupation
      1     -25.8492      2.00000
      2     -25.8429      2.00000
      3     -25.8427      2.00000
      4      -3.5924      2.00000
      5       0.1805      2.00000
      6       1.6889      2.00000
      7       1.7016      2.00000
      8       2.5178      2.00000
[...]
  212              fftbas_plan_mpi                       0.081919                     12   6
  213                dfftw_execute                         0.035439                   36   7
  214                map_backward                          0.004369                   12   7
  215                  map_gather                            0.001202                  6   8
  216                  m_alltoallv_z                         0.001734                  6   8
  217                  map_scatter                           0.001141                  6   8
  218                map_forward                           0.038764                   12   7
  219                  map_gather                            0.020639                  6   8
  220                  m_alltoallv_z                         0.006333                  6   8
  221                  map_scatter                           0.011500                  6   8
  222            M_sumb_d                              0.000817                        6   5
  223          M_sumb_d                              0.000029                          1   4
  224        setdij_                               1.310871                           20   3
  225          fft3d_mpi                             0.291729                         40   4
  226            fftbas_plan_mpi                       0.265082                       40   5
  227              dfftw_execute                         0.117690                    120   6
  228              map_backward                          0.015286                     40   6
  229                map_gather                            0.004544                   20   7
  230                m_alltoallv_z                         0.005896                   20   7
  231                map_scatter                           0.003861                   20   7
  232              map_forward                           0.121857                     40   6
  233                map_gather                            0.060756                   20   7
  234                m_alltoallv_z                         0.020645                   20   7
  235                map_scatter                           0.039459                   20   7
  236          M_sumb_d                              0.004669                         20   4
  237        set_dd_magatom                        0.000004                            1   3
  238        set_dd_paw                            0.002337                            1   3
  239          set_rsgf_all                          0.000004                          1   4
  240          M_sumb_d                              0.002156                          8   4
  241        strkin                                0.001076                            1   3
  242          M_sumb_d                              0.000442                          1   4
  243        strelo                                0.003209                            1   3
  244          M_sumb_d                              0.000100                          2   4
  245        strenl                                0.821679                            1   3
  246          spher                                 0.661373                         19   4
  247          phase                                 0.013440                        189   4
  248          proj1                                 0.131917                        756   4
  249            crexp_mul_wave                        0.021077                     2268   5
  250            M_sumb_d                              0.034750                      756   5
  251          M_sumb_d                              0.001458                          1   4
  252        M_sumb_d                              0.000213                            6   3
  253        fft3d_mpi                             0.017429                           11   3
  254          fftbas_plan_mpi                       0.016050                         11   4
  255            dfftw_execute                         0.006256                       33   5
  256            map_forward                           0.003223                       10   5
  257              map_gather                            0.000692                      5   6
  258              m_alltoallv_z                         0.001230                      5   6
  259              map_scatter                           0.001055                      5   6
  260            map_backward                          0.004273                       12   5
  261              map_gather                            0.001290                      6   6
  262              m_alltoallv_z                         0.001543                      6   6
  263              map_scatter                           0.001159                      6   6
  264        ggaall_grid                           0.002059                            1   3
  265        forhar                                0.007425                            2   3
  266          M_sumb_d                              0.000125                          2   4
  267        strehar                               0.003125                            1   3
  268          M_sumb_d                              0.000141                          1   4
  269        chggra                                0.007366                            1   3
  270          fft3d_mpi                             0.004759                          3   4
  271            fftbas_plan_mpi                       0.004399                        3   5
  272              dfftw_execute                         0.001697                      9   6
  273              map_backward                          0.000667                      2   6
  274                map_gather                            0.000187                    1   7
  275                m_alltoallv_z                         0.000249                    1   7
  276                map_scatter                           0.000181                    1   7
  277              map_forward                           0.001299                      4   6
  278                map_gather                            0.000281                    2   7
  279                m_alltoallv_z                         0.000503                    2   7
  280                map_scatter                           0.000415                    2   7
  281          M_sumb_d                              0.000128                          3   4
  282        brmix                                 0.008023                            1   3
  283          M_sumb_d                              0.000322                          6   4
  284          brpre                                 0.000051                          1   4
  285          setg0                                 0.001674                          1   4
  286          broyd                                 0.001887                          1   4
  287            M_sumb_d                              0.000478                       16   5
  288            brget                                 0.000286                       54   5
  289            brsav                                 0.000071                       14   5
  290          M_bcast_z                             0.002898                          1   4
  291          M_bcast_d                             0.000053                          1   4
  292        M_bcast_d                             0.000204                            2   3
  293      potlok                                0.031786                              1   2
  294        fft3d_mpi                             0.021083                           13   3
  295          fftbas_plan_mpi                       0.019515                         13   4
  296            dfftw_execute                         0.007347                       39   5
  297            map_forward                           0.005054                       14   5
  298              map_gather                            0.000947                      8   6
  299              m_alltoallv_z                         0.001988                      8   6
  300              map_scatter                           0.001744                      8   6
  301            map_backward                          0.004241                       12   5
  302              map_gather                            0.001313                      6   6
  303              m_alltoallv_z                         0.001536                      6   6
  304              map_scatter                           0.001109                      6   6
  305        ggaall_grid                           0.001975                            1   3
  306        M_sumb_d                              0.000233                            6   3
  307        M_bcast_d                             0.000144                            1   3
  308      potlok_metagga                        0.000003                              1   2
  309      set_dd_magatom                        0.000003                              1   2
  310      set_dd_paw                            0.000362                              1   2
  311        set_rsgf_all                          0.000004                            1   3
  312        M_sumb_d                              0.000218                            8   3
  313      densta                                0.001942                              1   2
  314        M_sumb_d                              0.000736                           40   3
  315      lprj_proall                           0.000008                              1   2

 Flat profile
 ============

             routine name                   CPU           calls
 ---------------------------------------------------------------
 total_time                             13.636887           1
 dfftw_execute                           3.539971       28254
 eddav                                   3.060477          14
 fftbas_plan_mpi                         2.075539        9420
 setdij_                                 2.005242          38
 M_sumb_d                                1.470246       26668
 elmin                                   1.150241           1
 m_alltoallv_z                           1.035892        9439
 set_charge                              0.994260          10
 spher                                   0.753421          20
 M_alltoall_d                            0.655689       30912
 pdssyex_zheevx                          0.601140         294
 vhamil                                  0.508057        4188
 orth1                                   0.496345        6303
 map_gather                              0.463469        9439
 proj1                                   0.444658        3852
 map_scatter                             0.442538        9439
 fftwav_mpi                              0.423697        4976
 map_forward                             0.419968       10198
 gemm                                    0.379500       12564
 M_bcast_z                               0.320402        3801
 crpa_reader                             0.304613           1
 vnlac0                                  0.272820        4188
 redis_pw                                0.261461       12018
 hamiltmu                                0.232072        2094
 redis_proj                              0.227557       15051
 fft3d_mpi                               0.195702        9418
 w1_copy                                 0.183698       12564
 map_backward                            0.153756        8638
 work_mul_crexp                          0.145366       12564
 fftext_mpi                              0.140169        4188
 eccp                                    0.122688        1176
 crexp_mul_wave                          0.112689       11556
 potlok                                  0.093354          11
 kinhamil                                0.084774        4188
 overl                                   0.080647        7221
 M_bcast_d                               0.068874        2122
 pw_charge                               0.060131         788
 force_and_stress                        0.052171           1
 overl1                                  0.050356        4188
 lincom                                  0.048640         315
 apply_precond                           0.045459        3012
 setup_precond                           0.040973        1176
 phase                                   0.036951         526
 w1_projall                              0.033447        1506
 ggaall_grid                             0.024459          12
 fornl                                   0.023718           1
 soft_charge                             0.022084          10
 truncate_high_frequency_w1              0.018030        5364
 densta                                  0.017423          15
 setg0                                   0.014309          11
 strenl                                  0.013491           1
 brmix                                   0.011112          10
 forhar                                  0.007300           2
 broyd                                   0.006622          10
 forloc                                  0.003497           1
 strelo                                  0.003109           1
 strehar                                 0.002984           1
 chggra                                  0.002479           1
 set_dd_paw                              0.002475          12
 depsum                                  0.002335          10
 orthch                                  0.001936           1
 brget                                   0.001569         309
 brgrid                                  0.001511           1
 proj                                    0.001162          21
 brsav                                   0.000852          96
 choleski                                0.000847          21
 strkin                                  0.000634           1
 brpre                                   0.000602          10
 fordep                                  0.000127           1
 vectorpot                               0.000096          11
 set_rsgf_all                            0.000057          12
 set_dd_magatom                          0.000047          12
 potlok_metagga                          0.000046          11
 set_kineden                             0.000034           9
 rotate_active_occupied_orbital          0.000015           1
 lprj_proall                             0.000008           1
 redis_pw_over_bands                     0.000003           1
 ---------------------------------------------------------------
  summed up times    38.1109790802002

 Accumulative profile
 ====================

             routine name                   CPU           calls
 ---------------------------------------------------------------
 total_time                             38.110979           1
 elmin                                  20.631067           1
 eddav                                  16.547275          14
 fft3d_mpi                               8.286816        9418
 fftbas_plan_mpi                         8.131132        9420
 hamiltmu                                5.236055        2094
 fftwav_mpi                              4.511010        4976
 dfftw_execute                           3.539971       28254
 kinhamil                                3.398839        4188
 fftext_mpi                              3.314064        4188
 force_and_stress                        2.882148           1
 setdij_                                 2.603663          38
 set_charge                              1.968134          10
 map_forward                             1.570558       10198
 M_sumb_d                                1.470246       26668
 vnlac0                                  1.046732        4188
 m_alltoallv_z                           1.035892        9439
 map_backward                            0.945065        8638
 strenl                                  0.821679           1
 soft_charge                             0.794078          10
 proj1                                   0.779687        3852
 spher                                   0.753421          20
 w1_projall                              0.666594        1506
 M_alltoall_d                            0.655689       30912
 redis_pw                                0.630322       12018
 pdssyex_zheevx                          0.601140         294
 redis_proj                              0.514385       15051
 vhamil                                  0.508057        4188
 orth1                                   0.496345        6303
 map_gather                              0.463469        9439
 map_scatter                             0.442538        9439
 fordep                                  0.409403           1
 gemm                                    0.379500       12564
 potlok                                  0.349132          11
 M_bcast_z                               0.320402        3801
 crpa_reader                             0.304613           1
 eccp                                    0.187702        1176
 w1_copy                                 0.183698       12564
 work_mul_crexp                          0.145366       12564
 crexp_mul_wave                          0.112689       11556
 overl                                   0.080647        7221
 set_dd_paw                              0.076202          12
 setup_precond                           0.070400        1176
 M_bcast_d                               0.068874        2122
 pw_charge                               0.060131         788
 brmix                                   0.055516          10
 overl1                                  0.050356        4188
 lincom                                  0.048640         315
 apply_precond                           0.045459        3012
 phase                                   0.036951         526
 fornl                                   0.033093           1
 densta                                  0.028319          15
 ggaall_grid                             0.024459          12
 orthch                                  0.022642           1
 truncate_high_frequency_w1              0.018030        5364
 proj                                    0.015785          21
 setg0                                   0.014309          11
 broyd                                   0.012112          10
 forhar                                  0.007425           2
 chggra                                  0.007366           1
 depsum                                  0.006455          10
 forloc                                  0.003554           1
 strelo                                  0.003209           1
 strehar                                 0.003125           1
 brget                                   0.001569         309
 brgrid                                  0.001511           1
 strkin                                  0.001076           1
 brsav                                   0.000852          96
 choleski                                0.000847          21
 brpre                                   0.000602          10
 vectorpot                               0.000096          11
 set_rsgf_all                            0.000057          12
 set_dd_magatom                          0.000047          12
 potlok_metagga                          0.000046          11
 set_kineden                             0.000034           9
 rotate_active_occupied_orbital          0.000015           1
 lprj_proall                             0.000008           1
 redis_pw_over_bands                     0.000003           1
 ---------------------------------------------------------------

Profiling took   0.748142  0.899371  0.005850  0.004438 seconds
Profiling took   0.729011 seconds
