 ----------------------------------------------------
    OOO  PPPP  EEEEE N   N M   M PPPP
   O   O P   P E     NN  N MM MM P   P
   O   O PPPP  EEEEE N N N M M M PPPP   -- VERSION
   O   O P     E     N  NN M   M P
    OOO  P     EEEEE N   N M   M P
 ----------------------------------------------------
 running   64 mpi-ranks, with    1 threads/rank
 distrk:  each k-point on   16 cores,    4 groups
 distr:  one band on    4 cores,    4 groups
 using from now: INCAR
 vasp.6.0.8 29Jun18 (build Jun 13 2019 12:54:44) complex

 POSCAR found type information on POSCAR  Hf Sb Pt
 POSCAR found :  3 types and       3 ions
 scaLAPACK will be used

 -----------------------------------------------------------------------------
|                                                                             |
|  ADVICE TO THIS USER RUNNING 'VASP/VAMP'   (HEAR YOUR MASTER'S VOICE ...):  |
|                                                                             |
|      You enforced a specific xc-type in the INCAR file,                     |
|      a different type was found on the POTCAR file                          |
|          I HOPE YOU KNOW, WHAT YOU ARE  DOING                               |
|                                                                             |
 -----------------------------------------------------------------------------

 LDA part: xc-table for Pade appr. of Perdew
 POSCAR, INCAR and KPOINTS ok, starting setup
 FFT: planning ...
 WAVECAR not read
 entering main loop
       N       E                     dE             d eps       ncg     rms          rms(c)
 ELPA: falling back to scaLAPACK
 ELPA: falling back to scaLAPACK
 ELPA: falling back to scaLAPACK
 ELPA: falling back to scaLAPACK
DAV:   1     0.133083557198E+03    0.13308E+03   -0.13926E+04  2688   0.171E+03
DAV:   2    -0.191629434397E+02   -0.15225E+03   -0.15029E+03  3368   0.325E+02
DAV:   3    -0.245053116756E+02   -0.53424E+01   -0.52754E+01  3712   0.524E+01
DAV:   4    -0.245809792571E+02   -0.75668E-01   -0.75354E-01  3272   0.695E+00
DAV:   5    -0.245829791329E+02   -0.19999E-02   -0.19993E-02  3840   0.102E+00    0.315E+01
DAV:   6    -0.234664463288E+02    0.11165E+01   -0.29795E+00  3560   0.918E+00    0.209E+01
DAV:   7    -0.233078665154E+02    0.15858E+00   -0.11992E+00  3688   0.757E+00    0.342E+00
DAV:   8    -0.232847886695E+02    0.23078E-01   -0.26489E-01  3304   0.376E+00    0.148E+00
DAV:   9    -0.232800164218E+02    0.47722E-02   -0.56547E-02  3832   0.151E+00    0.227E-01
DAV:  10    -0.232795021172E+02    0.51430E-03   -0.61363E-03  3496   0.344E-01    0.105E-01
DAV:  11    -0.232794316858E+02    0.70431E-04   -0.45768E-04  3344   0.142E-01    0.423E-02
DAV:  12    -0.232794341318E+02   -0.24460E-05   -0.24152E-05  3912   0.290E-02    0.246E-02
DAV:  13    -0.232794339937E+02    0.13807E-06   -0.12026E-06  3280   0.701E-03    0.373E-03
DAV:  14    -0.232794340692E+02   -0.75419E-07   -0.32469E-07  3072   0.262E-03
   1 F= -.23279434E+02 E0= -.23279370E+02  d E =-.128649E-03
