<?xml version="1.0" encoding="ISO-8859-1"?>
<modeling>
 <generator>
  <i name="program" type="string">vasp </i>
  <i name="version" type="string">6.0.8  </i>
  <i name="subversion" type="string">29Jun18 (build Jun 13 2019 12:54:44) complex                          parallel </i>
  <i name="platform" type="string">IFC18_CrayMPICH </i>
  <i name="date" type="string">2021 12 05 </i>
  <i name="time" type="string">14:21:50 </i>
 </generator>
 <incar>
  <i type="int" name="KPAR">     4</i>
  <i type="int" name="NPAR">     4</i>
  <i type="int" name="ISTART">     0</i>
  <i type="string" name="PREC"> ACC</i>
  <i type="string" name="ALGO"> Normal</i>
  <i type="logical" name="ADDGRID"> T  </i>
  <i type="int" name="ISPIN">     1</i>
  <i type="int" name="NELMIN">     5</i>
  <i type="int" name="IBRION">    -1</i>
  <i name="EDIFF">      0.00000010</i>
  <i type="int" name="NSW">     0</i>
  <i type="int" name="ISIF">     3</i>
  <i name="ENCUT">    700.00000000</i>
  <i type="logical" name="LREAL"> F  </i>
  <i type="int" name="ISMEAR">     0</i>
  <i name="SIGMA">      0.01000000</i>
  <i type="logical" name="LWAVE"> F  </i>
  <i type="logical" name="LCHARG"> F  </i>
  <i type="logical" name="LVTOT"> F  </i>
  <i type="string" name="ALGO"> Normal</i>
  <i type="string" name="GGA"> PS</i>
  <i name="EDIFF">      0.00000010</i>
  <i type="int" name="ISPIN">     1</i>
 </incar>
 <structure name="primitive_cell" >
  <crystal>
   <varray name="basis" >
    <v>       0.00000000       3.37743073       3.37743073 </v>
    <v>       3.37743073       0.00000000       3.37743073 </v>
    <v>       3.37743073       3.37743073       0.00000000 </v>
   </varray>
   <i name="volume">     77.05296348 </i>
   <varray name="rec_basis" >
    <v>      -0.14804153       0.14804153       0.14804153 </v>
    <v>       0.14804153      -0.14804153       0.14804153 </v>
    <v>       0.14804153       0.14804153      -0.14804153 </v>
   </varray>
  </crystal>
  <varray name="positions" >
   <v>       0.75000000       0.75000000       0.75000000 </v>
   <v>       0.25000000       0.25000000       0.25000000 </v>
   <v>       0.00000000       0.00000000       0.00000000 </v>
  </varray>
 </structure>
 <varray name="primitive_index" >
  <v type="int" >        1 </v>
  <v type="int" >        2 </v>
  <v type="int" >        3 </v>
 </varray>
 <kpoints>
  <generation param="Gamma">
   <v type="int" name="divisions">      13       13       13 </v>
   <v name="usershift">      0.00000000       0.00000000       0.00000000 </v>
   <v name="genvec1">      0.07692308       0.00000000      -0.00000000 </v>
   <v name="genvec2">      0.00000000       0.07692308       0.00000000 </v>
   <v name="genvec3">     -0.00000000      -0.00000000       0.07692308 </v>
   <v name="shift">      0.00000000       0.00000000       0.00000000 </v>
  </generation>
  <varray name="kpointlist" >
   <v>       0.00000000       0.00000000       0.00000000 </v>
   <v>       0.07692308       0.00000000      -0.00000000 </v>
   <v>       0.15384615      -0.00000000      -0.00000000 </v>
   <v>       0.23076923      -0.00000000      -0.00000000 </v>
   <v>       0.30769231      -0.00000000      -0.00000000 </v>
   <v>       0.38461538       0.00000000      -0.00000000 </v>
   <v>       0.46153846      -0.00000000       0.00000000 </v>
   <v>       0.07692308       0.07692308      -0.00000000 </v>
   <v>       0.15384615       0.07692308      -0.00000000 </v>
   <v>       0.23076923       0.07692308      -0.00000000 </v>
   <v>       0.30769231       0.07692308      -0.00000000 </v>
   <v>       0.38461538       0.07692308      -0.00000000 </v>
   <v>       0.46153846       0.07692308       0.00000000 </v>
   <v>      -0.46153846       0.07692308       0.00000000 </v>
   <v>      -0.38461538       0.07692308       0.00000000 </v>
   <v>      -0.30769231       0.07692308       0.00000000 </v>
   <v>      -0.23076923       0.07692308       0.00000000 </v>
   <v>      -0.15384615       0.07692308       0.00000000 </v>
   <v>      -0.07692308       0.07692308       0.00000000 </v>
   <v>       0.15384615       0.15384615      -0.00000000 </v>
   <v>       0.23076923       0.15384615      -0.00000000 </v>
   <v>       0.30769231       0.15384615      -0.00000000 </v>
   <v>       0.38461538       0.15384615      -0.00000000 </v>
   <v>       0.46153846       0.15384615      -0.00000000 </v>
   <v>      -0.46153846       0.15384615      -0.00000000 </v>
   <v>      -0.38461538       0.15384615       0.00000000 </v>
   <v>      -0.30769231       0.15384615      -0.00000000 </v>
   <v>      -0.23076923       0.15384615      -0.00000000 </v>
   <v>      -0.15384615       0.15384615      -0.00000000 </v>
   <v>       0.23076923       0.23076923      -0.00000000 </v>
   <v>       0.30769231       0.23076923      -0.00000000 </v>
   <v>       0.38461538       0.23076923      -0.00000000 </v>
   <v>       0.46153846       0.23076923      -0.00000000 </v>
   <v>      -0.46153846       0.23076923       0.00000000 </v>
   <v>      -0.38461538       0.23076923       0.00000000 </v>
   <v>      -0.30769231       0.23076923       0.00000000 </v>
   <v>      -0.23076923       0.23076923      -0.00000000 </v>
   <v>       0.30769231       0.30769231      -0.00000000 </v>
   <v>       0.38461538       0.30769231      -0.00000000 </v>
   <v>       0.46153846       0.30769231      -0.00000000 </v>
   <v>      -0.46153846       0.30769231      -0.00000000 </v>
   <v>      -0.38461538       0.30769231       0.00000000 </v>
   <v>      -0.30769231       0.30769231      -0.00000000 </v>
   <v>       0.38461538       0.38461538      -0.00000000 </v>
   <v>       0.46153846       0.38461538      -0.00000000 </v>
   <v>      -0.46153846       0.38461538       0.00000000 </v>
   <v>      -0.38461538       0.38461538       0.00000000 </v>
   <v>       0.46153846       0.46153846      -0.00000000 </v>
   <v>      -0.46153846       0.46153846      -0.00000000 </v>
   <v>       0.23076923       0.15384615       0.07692308 </v>
   <v>       0.30769231       0.15384615       0.07692308 </v>
   <v>       0.38461538       0.15384615       0.07692308 </v>
   <v>       0.46153846       0.15384615       0.07692308 </v>
   <v>      -0.46153846       0.15384615       0.07692308 </v>
   <v>       0.30769231       0.23076923       0.07692308 </v>
   <v>       0.38461538       0.23076923       0.07692308 </v>
   <v>       0.46153846       0.23076923       0.07692308 </v>
   <v>      -0.46153846       0.23076923       0.07692308 </v>
   <v>      -0.38461538       0.23076923       0.07692308 </v>
   <v>      -0.30769231       0.23076923       0.07692308 </v>
   <v>      -0.23076923       0.23076923       0.07692308 </v>
   <v>      -0.15384615       0.23076923       0.07692308 </v>
   <v>       0.38461538       0.30769231       0.07692308 </v>
   <v>       0.46153846       0.30769231       0.07692308 </v>
   <v>      -0.46153846       0.30769231       0.07692308 </v>
   <v>      -0.38461538       0.30769231       0.07692308 </v>
   <v>      -0.30769231       0.30769231       0.07692308 </v>
   <v>      -0.23076923       0.30769231       0.07692308 </v>
   <v>       0.46153846       0.38461538       0.07692308 </v>
   <v>      -0.46153846       0.38461538       0.07692308 </v>
   <v>      -0.38461538       0.38461538       0.07692308 </v>
   <v>      -0.30769231       0.38461538       0.07692308 </v>
   <v>      -0.46153846       0.46153846       0.07692308 </v>
   <v>      -0.38461538       0.46153846       0.07692308 </v>
   <v>       0.46153846       0.30769231       0.15384615 </v>
   <v>      -0.46153846       0.30769231       0.15384615 </v>
   <v>      -0.38461538       0.30769231       0.15384615 </v>
   <v>      -0.46153846       0.38461538       0.15384615 </v>
   <v>      -0.38461538       0.38461538       0.15384615 </v>
   <v>      -0.30769231       0.38461538       0.15384615 </v>
   <v>      -0.23076923       0.38461538       0.15384615 </v>
   <v>      -0.38461538       0.46153846       0.15384615 </v>
   <v>      -0.30769231       0.46153846       0.15384615 </v>
   <v>      -0.30769231       0.46153846       0.23076923 </v>
  </varray>
  <varray name="weights" >
   <v>       0.00045517 </v>
   <v>       0.00364133 </v>
   <v>       0.00364133 </v>
   <v>       0.00364133 </v>
   <v>       0.00364133 </v>
   <v>       0.00364133 </v>
   <v>       0.00364133 </v>
   <v>       0.00273100 </v>
   <v>       0.01092399 </v>
   <v>       0.01092399 </v>
   <v>       0.01092399 </v>
   <v>       0.01092399 </v>
   <v>       0.01092399 </v>
   <v>       0.01092399 </v>
   <v>       0.01092399 </v>
   <v>       0.01092399 </v>
   <v>       0.01092399 </v>
   <v>       0.01092399 </v>
   <v>       0.00546199 </v>
   <v>       0.00273100 </v>
   <v>       0.01092399 </v>
   <v>       0.01092399 </v>
   <v>       0.01092399 </v>
   <v>       0.01092399 </v>
   <v>       0.01092399 </v>
   <v>       0.01092399 </v>
   <v>       0.01092399 </v>
   <v>       0.01092399 </v>
   <v>       0.00546199 </v>
   <v>       0.00273100 </v>
   <v>       0.01092399 </v>
   <v>       0.01092399 </v>
   <v>       0.01092399 </v>
   <v>       0.01092399 </v>
   <v>       0.01092399 </v>
   <v>       0.01092399 </v>
   <v>       0.00546199 </v>
   <v>       0.00273100 </v>
   <v>       0.01092399 </v>
   <v>       0.01092399 </v>
   <v>       0.01092399 </v>
   <v>       0.01092399 </v>
   <v>       0.00546199 </v>
   <v>       0.00273100 </v>
   <v>       0.01092399 </v>
   <v>       0.01092399 </v>
   <v>       0.00546199 </v>
   <v>       0.00273100 </v>
   <v>       0.00546199 </v>
   <v>       0.01092399 </v>
   <v>       0.02184797 </v>
   <v>       0.02184797 </v>
   <v>       0.02184797 </v>
   <v>       0.02184797 </v>
   <v>       0.01092399 </v>
   <v>       0.02184797 </v>
   <v>       0.02184797 </v>
   <v>       0.02184797 </v>
   <v>       0.02184797 </v>
   <v>       0.02184797 </v>
   <v>       0.02184797 </v>
   <v>       0.01092399 </v>
   <v>       0.01092399 </v>
   <v>       0.02184797 </v>
   <v>       0.02184797 </v>
   <v>       0.02184797 </v>
   <v>       0.02184797 </v>
   <v>       0.01092399 </v>
   <v>       0.01092399 </v>
   <v>       0.02184797 </v>
   <v>       0.02184797 </v>
   <v>       0.01092399 </v>
   <v>       0.01092399 </v>
   <v>       0.01092399 </v>
   <v>       0.01092399 </v>
   <v>       0.02184797 </v>
   <v>       0.02184797 </v>
   <v>       0.01092399 </v>
   <v>       0.02184797 </v>
   <v>       0.02184797 </v>
   <v>       0.01092399 </v>
   <v>       0.01092399 </v>
   <v>       0.01092399 </v>
   <v>       0.01092399 </v>
  </varray>
 </kpoints>
 <parameters>
  <separator name="general" >
   <i type="string" name="SYSTEM">unknown system</i>
   <i type="logical" name="LCOMPAT"> F  </i>
  </separator>
  <separator name="electronic" >
   <i type="string" name="PREC">acc</i>
   <i name="ENMAX">    700.00000000</i>
   <i name="ENAUG">    380.87800000</i>
   <i name="EDIFF">      0.00000010</i>
   <i type="int" name="IALGO">    38</i>
   <i type="int" name="IWAVPR">    10</i>
   <i type="int" name="NBANDS">    16</i>
   <i type="int" name="NBANDSLOW">    -1</i>
   <i type="int" name="NBANDSHIGH">    -1</i>
   <i name="NELECT">     25.00000000</i>
   <i type="int" name="TURBO">     0</i>
   <i type="int" name="IRESTART">     0</i>
   <i type="int" name="NREBOOT">     0</i>
   <i type="int" name="NMIN">     0</i>
   <i name="EREF">      0.00000000</i>
   <separator name="electronic smearing" >
    <i type="int" name="ISMEAR">     0</i>
    <i name="SIGMA">      0.01000000</i>
    <i name="KSPACING">      0.50000000</i>
    <i type="logical" name="KGAMMA"> T  </i>
    <i type="logical" name="KBLOWUP"> T  </i>
   </separator>
   <separator name="electronic projectors" >
    <i type="logical" name="LREAL"> F  </i>
    <v name="ROPT">      0.00000000      0.00000000      0.00000000</v>
    <i type="int" name="LMAXPAW">  -100</i>
    <i type="int" name="LMAXMIX">     2</i>
    <i type="logical" name="NLSPLINE"> F  </i>
   </separator>
   <separator name="electronic startup" >
    <i type="int" name="ISTART">     0</i>
    <i type="int" name="ICHARG">     2</i>
    <i type="int" name="INIWAV">     1</i>
   </separator>
   <separator name="electronic spin" >
    <i type="int" name="ISPIN">     1</i>
    <i type="logical" name="LNONCOLLINEAR"> F  </i>
    <v name="MAGMOM">      1.00000000      1.00000000      1.00000000</v>
    <i name="NUPDOWN">     -1.00000000</i>
    <i type="logical" name="LSORBIT"> F  </i>
    <v name="SAXIS">      0.00000000      0.00000000      1.00000000</v>
    <i type="logical" name="LSPIRAL"> F  </i>
    <v name="QSPIRAL">      0.00000000      0.00000000      0.00000000</v>
    <i type="logical" name="LZEROZ"> F  </i>
   </separator>
   <separator name="electronic exchange-correlation" >
    <i type="logical" name="LASPH"> F  </i>
    <i type="logical" name="LMETAGGA"> F  </i>
   </separator>
   <separator name="electronic convergence" >
    <i type="int" name="NELM">    60</i>
    <i type="int" name="NELMDL">    -5</i>
    <i type="int" name="NELMIN">     5</i>
    <i name="ENINI">    700.00000000</i>
    <separator name="electronic convergence detail" >
     <i type="logical" name="LDIAG"> T  </i>
     <i type="logical" name="LSUBROT"> F  </i>
     <i name="WEIMIN">      0.00000000</i>
     <i name="EBREAK">      0.00000000</i>
     <i name="DEPER">      0.30000000</i>
     <i type="int" name="NRMM">     4</i>
     <i name="TIME">      0.40000000</i>
    </separator>
   </separator>
   <separator name="electronic mixer" >
    <i name="AMIX">      0.40000000</i>
    <i name="BMIX">      1.00000000</i>
    <i name="AMIN">      0.10000000</i>
    <i name="AMIX_MAG">      1.60000000</i>
    <i name="BMIX_MAG">      1.00000000</i>
    <separator name="electronic mixer details" >
     <i type="int" name="IMIX">     4</i>
     <i type="logical" name="MIXFIRST"> F  </i>
     <i type="int" name="MAXMIX">   -45</i>
     <i name="WC">    100.00000000</i>
     <i type="int" name="INIMIX">     1</i>
     <i type="int" name="MIXPRE">     1</i>
     <i type="int" name="MREMOVE">     5</i>
    </separator>
   </separator>
   <separator name="electronic dipolcorrection" >
    <i type="logical" name="LDIPOL"> F  </i>
    <i type="logical" name="LMONO"> F  </i>
    <i type="int" name="IDIPOL">     0</i>
    <i name="EPSILON">      1.00000000</i>
    <v name="DIPOL">   -100.00000000   -100.00000000   -100.00000000</v>
    <i name="EFIELD">      0.00000000</i>
   </separator>
  </separator>
  <separator name="grids" >
   <i type="int" name="NGX">    42</i>
   <i type="int" name="NGY">    42</i>
   <i type="int" name="NGZ">    42</i>
   <i type="int" name="NGXF">    84</i>
   <i type="int" name="NGYF">    84</i>
   <i type="int" name="NGZF">    84</i>
   <i type="logical" name="ADDGRID"> T  </i>
  </separator>
  <separator name="ionic" >
   <i type="int" name="NSW">     0</i>
   <i type="int" name="IBRION">    -1</i>
   <i type="int" name="MDALGO">     0</i>
   <i type="int" name="ISIF">     3</i>
   <i name="PSTRESS">      0.00000000</i>
   <i name="EDIFFG">      0.00000100</i>
   <i type="int" name="NFREE">     0</i>
   <i name="POTIM">      0.50000000</i>
   <i name="SMASS">     -3.00000000</i>
   <i name="SCALEE">      1.00000000</i>
  </separator>
  <separator name="ionic md" >
   <i name="TEBEG">      0.00010000</i>
   <i name="TEEND">      0.00010000</i>
   <i type="int" name="NBLOCK">     1</i>
   <i type="int" name="KBLOCK">     1</i>
   <i type="int" name="NPACO">   256</i>
   <i name="APACO">     16.00000000</i>
  </separator>
  <separator name="symmetry" >
   <i type="int" name="ISYM">     2</i>
   <i name="SYMPREC">      0.00001000</i>
  </separator>
  <separator name="dos" >
   <i type="int" name="LORBIT">     0</i>
   <v name="RWIGS">     -1.00000000     -1.00000000     -1.00000000</v>
   <i type="int" name="NEDOS">   301</i>
   <i name="EMIN">     10.00000000</i>
   <i name="EMAX">    -10.00000000</i>
   <i name="EFERMI">      0.00000000</i>
  </separator>
  <separator name="writing" >
   <i type="int" name="NWRITE">     2</i>
   <i type="logical" name="LWAVE"> F  </i>
   <i type="logical" name="LDOWNSAMPLE"> F  </i>
   <i type="logical" name="LCHARG"> F  </i>
   <i type="logical" name="LPARD"> F  </i>
   <i type="logical" name="LVTOT"> F  </i>
   <i type="logical" name="LVHAR"> F  </i>
   <i type="logical" name="LELF"> F  </i>
   <i type="logical" name="LOPTICS"> F  </i>
   <v name="STM">      0.00000000      0.00000000      0.00000000      0.00000000      0.00000000      0.00000000      0.00000000</v>
  </separator>
  <separator name="performance" >
   <i type="int" name="NPAR">     4</i>
   <i type="int" name="NSIM">     4</i>
   <i type="int" name="NBLK">    -1</i>
   <i type="logical" name="LPLANE"> T  </i>
   <i type="logical" name="LSCALAPACK"> T  </i>
   <i type="logical" name="LSCAAWARE"> F  </i>
   <i type="logical" name="LSCALU"> F  </i>
   <i type="logical" name="LASYNC"> F  </i>
   <i type="logical" name="LORBITALREAL"> F  </i>
  </separator>
  <separator name="miscellaneous" >
   <i type="int" name="IDIOT">     3</i>
   <i type="int" name="PHON_NSTRUCT">    -1</i>
   <i type="logical" name="LMUSIC"> F  </i>
   <v name="POMASS">    178.49000000    121.75000000    195.08000000</v>
   <v name="DARWINR">      0.00000000      0.00000000      0.00000000</v>
   <v name="DARWINV">      1.00000000      1.00000000      1.00000000</v>
   <i type="logical" name="LCORR"> T  </i>
  </separator>
  <i type="logical" name="GGA_COMPAT"> T  </i>
  <i type="logical" name="LBERRY"> F  </i>
  <i type="int" name="ICORELEVEL">     0</i>
  <i type="logical" name="LDAU"> F  </i>
  <i type="int" name="I_CONSTRAINED_M">     0</i>
  <separator name="electronic exchange-correlation" >
   <i type="string" name="GGA">PS</i>
   <i type="int" name="VOSKOWN">     0</i>
   <i type="logical" name="LHFCALC"> F  </i>
   <i type="string" name="PRECFOCK"></i>
   <i type="logical" name="LSYMGRAD"> F  </i>
   <i type="logical" name="LHFONE"> F  </i>
   <i type="logical" name="LRHFCALC"> F  </i>
   <i type="logical" name="LTHOMAS"> F  </i>
   <i type="logical" name="LMODELHF"> F  </i>
   <i type="logical" name="LFOCKACE"> F  </i>
   <i name="ENCUT4O">     -1.00000000</i>
   <i type="int" name="EXXOEP">     0</i>
   <i type="int" name="FOURORBIT">     0</i>
   <i name="AEXX">      0.00000000</i>
   <i name="HFALPHA">      0.00000000</i>
   <i name="MCALPHA">      0.00000000</i>
   <i name="ALDAX">      1.00000000</i>
   <i name="AGGAX">      1.00000000</i>
   <i name="ALDAC">      1.00000000</i>
   <i name="AGGAC">      1.00000000</i>
   <i type="int" name="NKREDX">     1</i>
   <i type="int" name="NKREDY">     1</i>
   <i type="int" name="NKREDZ">     1</i>
   <i type="logical" name="SHIFTRED"> F  </i>
   <i type="logical" name="ODDONLY"> F  </i>
   <i type="logical" name="EVENONLY"> F  </i>
   <i type="int" name="LMAXFOCK">     0</i>
   <i type="int" name="NMAXFOCKAE">     0</i>
   <i type="logical" name="LFOCKAEDFT"> F  </i>
   <i name="HFSCREEN">      0.00000000</i>
   <i name="HFSCREENC">      0.00000000</i>
   <i type="int" name="NBANDSGWLOW">     0</i>
  </separator>
  <separator name="vdW DFT" >
   <i type="logical" name="LUSE_VDW"> F  </i>
   <i name="Zab_VDW">     -0.84910000</i>
   <i name="PARAM1">      0.12340000</i>
   <i name="PARAM2">      1.00000000</i>
   <i name="PARAM3">      0.00000000</i>
  </separator>
  <separator name="model GW" >
   <i type="int" name="MODEL_GW">     0</i>
   <i name="MODEL_EPS0">     15.41059270</i>
   <i name="MODEL_ALPHA">      1.00000000</i>
  </separator>
  <separator name="linear response parameters" >
   <i type="logical" name="LEPSILON"> F  </i>
   <i type="logical" name="LRPA"> F  </i>
   <i type="logical" name="LNABLA"> F  </i>
   <i type="logical" name="LVEL"> F  </i>
   <i type="int" name="KINTER">     0</i>
   <i name="CSHIFT">      0.10000000</i>
   <i name="OMEGAMAX">     -1.00000000</i>
   <i name="DEG_THRESHOLD">      0.00200000</i>
   <i name="RTIME">     -0.10000000</i>
   <i name="WPLASMAI">      0.00000000</i>
   <v name="DFIELD">      0.00000000      0.00000000      0.00000000</v>
   <v name="WPLASMA">      0.00000000      0.00000000      0.00000000      0.00000000      0.00000000      0.00000000      0.00000000      0.00000000      0.00000000</v>
  </separator>
  <separator name="orbital magnetization" >
   <i type="logical" name="NUCIND"> F  </i>
   <v name="MAGPOS">      0.00000000      0.00000000      0.00000000</v>
   <i type="logical" name="LNICSALL"> T  </i>
   <i type="logical" name="ORBITALMAG"> F  </i>
   <i type="logical" name="LMAGBLOCH"> F  </i>
   <i type="logical" name="LCHIMAG"> F  </i>
   <i type="logical" name="LGAUGE"> T  </i>
   <i type="int" name="MAGATOM">     0</i>
   <v name="MAGDIPOL">      0.00000000      0.00000000      0.00000000</v>
   <v name="AVECCONST">      0.00000000      0.00000000      0.00000000</v>
  </separator>
  <separator name="response functions" >
   <i type="logical" name="LFINITE_TEMPERATURE"> F  </i>
   <i type="logical" name="LADDER"> F  </i>
   <i type="logical" name="LRPAFORCE"> F  </i>
   <i type="logical" name="LFXC"> F  </i>
   <i type="logical" name="LHARTREE"> T  </i>
   <i type="int" name="IBSE">     0</i>
   <v type="int" name="KPOINT">    -1     0     0     0</v>
   <i type="logical" name="LTCTC"> F  </i>
   <i type="logical" name="LTCTE"> F  </i>
   <i type="logical" name="LTETE"> F  </i>
   <i type="logical" name="LTRIPLET"> F  </i>
   <i type="logical" name="LFXCEPS"> F  </i>
   <i type="logical" name="LFXHEG"> F  </i>
   <i type="int" name="NATURALO">     2</i>
   <i type="logical" name="L2ORDER"> F  </i>
   <i type="logical" name="LDMP1"> F  </i>
   <i type="logical" name="LMP2LT"> F  </i>
   <i type="logical" name="LSMP2LT"> F  </i>
   <i type="logical" name="LUSEW"> F  </i>
   <i name="ENCUTGW">     -2.00000000</i>
   <i name="ENCUTGWSOFT">     -2.00000000</i>
   <i name="ENCUTLF">     -1.00000000</i>
   <i type="int" name="LMAXMP2">    -1</i>
   <i name="SCISSOR">      0.00000000</i>
   <i type="int" name="NOMEGA">     0</i>
   <i type="int" name="NOMEGAR">     0</i>
   <i type="int" name="NBANDSGW">    -1</i>
   <i type="int" name="NBANDSO">    -1</i>
   <i type="int" name="NBANDSV">    -1</i>
   <i type="int" name="NELM">     1</i>
   <i type="int" name="NELMHF">     1</i>
   <i type="int" name="DIM">     3</i>
   <i type="int" name="IESPILON">     4</i>
   <i type="int" name="ANTIRES">     0</i>
   <i name="OMEGAMAX">    -30.00000000</i>
   <i name="OMEGAMIN">    -30.00000000</i>
   <i name="OMEGATL">   -200.00000000</i>
   <i type="int" name="OMEGAGRID">   145</i>
   <i name="CSHIFT">     -0.10000000</i>
   <i type="logical" name="LSELFENERGY"> F  </i>
   <i type="logical" name="LSPECTRAL"> F  </i>
   <i type="logical" name="LSPECTRALGW"> F  </i>
   <i type="logical" name="LSINGLES"> F  </i>
   <i type="logical" name="LFERMIGW"> F  </i>
   <i type="logical" name="ODDONLYGW"> F  </i>
   <i type="logical" name="EVENONLYGW"> F  </i>
   <i type="int" name="NKREDLFX">     1</i>
   <i type="int" name="NKREDLFY">     1</i>
   <i type="int" name="NKREDLFZ">     1</i>
   <i type="int" name="MAXMEM">  2800</i>
   <i type="int" name="TELESCOPE">     0</i>
   <i type="int" name="NTAUPAR">     1</i>
   <i type="int" name="NOMEGAPAR">    -1</i>
   <i name="LAMBDA">      1.00000000</i>
  </separator>
  <separator name="External order field" >
   <i name="OFIELD_KAPPA">      0.00000000</i>
   <v name="OFIELD_K">      0.00000000      0.00000000      0.00000000</v>
   <i name="OFIELD_Q6_NEAR">      0.00000000</i>
   <i name="OFIELD_Q6_FAR">      0.00000000</i>
   <i name="OFIELD_A">      0.00000000</i>
  </separator>
 </parameters>
 <atominfo>
  <atoms>       3 </atoms>
  <types>       3 </types>
  <array name="atoms" >
   <dimension dim="1">ion</dimension>
   <field type="string">element</field>
   <field type="int">atomtype</field>
   <set>
    <rc><c>Hf</c><c>   1</c></rc>
    <rc><c>Sb</c><c>   2</c></rc>
    <rc><c>Pt</c><c>   3</c></rc>
   </set>
  </array>
  <array name="atomtypes" >
   <dimension dim="1">type</dimension>
   <field type="int">atomspertype</field>
   <field type="string">element</field>
   <field>mass</field>
   <field>valence</field>
   <field type="string">pseudopotential</field>
   <set>
    <rc><c>   1</c><c>Hf</c><c>    178.49000000</c><c>     10.00000000</c><c>  PAW_PBE Hf_pv 06Sep2000               </c></rc>
    <rc><c>   1</c><c>Sb</c><c>    121.75000000</c><c>      5.00000000</c><c>  PAW_PBE Sb 06Sep2000                  </c></rc>
    <rc><c>   1</c><c>Pt</c><c>    195.08000000</c><c>     10.00000000</c><c>  PAW_PBE Pt 04Feb2005                  </c></rc>
   </set>
  </array>
 </atominfo>
 <structure name="initialpos" >
  <crystal>
   <varray name="basis" >
    <v>       0.00000000       3.37743073       3.37743073 </v>
    <v>       3.37743073       0.00000000       3.37743073 </v>
    <v>       3.37743073       3.37743073       0.00000000 </v>
   </varray>
   <i name="volume">     77.05296348 </i>
   <varray name="rec_basis" >
    <v>      -0.14804153       0.14804153       0.14804153 </v>
    <v>       0.14804153      -0.14804153       0.14804153 </v>
    <v>       0.14804153       0.14804153      -0.14804153 </v>
   </varray>
  </crystal>
  <varray name="positions" >
   <v>       0.75000000       0.75000000       0.75000000 </v>
   <v>       0.25000000       0.25000000       0.25000000 </v>
   <v>       0.00000000       0.00000000       0.00000000 </v>
  </varray>
 </structure>
 <calculation>
  <scstep>
   <time name="dav">    0.98    0.99</time>
   <time name="total">    1.12    1.20</time>
   <energy>
    <i name="alphaZ">     88.41650232 </i>
    <i name="ewald">  -1472.14257378 </i>
    <i name="hartreedc">   -358.41487287 </i>
    <i name="XCdc">    -20.42930464 </i>
    <i name="pawpsdc">   1514.36848356 </i>
    <i name="pawaedc">  -1421.27055995 </i>
    <i name="eentropy">     -0.00013889 </i>
    <i name="bandstr">     61.45151024 </i>
    <i name="atom">   1741.10451121 </i>
    <i name="e_fr_energy">    133.08355720 </i>
    <i name="e_wo_entrp">    133.08369609 </i>
    <i name="e_0_energy">    133.08362664 </i>
   </energy>
  </scstep>
  <scstep>
   <time name="dav">    1.17    1.20</time>
   <time name="total">    1.17    1.20</time>
   <energy>
    <i name="e_fr_energy">    -19.16294344 </i>
    <i name="e_wo_entrp">    -19.16285526 </i>
    <i name="e_0_energy">    -19.16289935 </i>
   </energy>
  </scstep>
  <scstep>
   <time name="dav">    1.27    1.30</time>
   <time name="total">    1.27    1.31</time>
   <energy>
    <i name="e_fr_energy">    -24.50531168 </i>
    <i name="e_wo_entrp">    -24.50501323 </i>
    <i name="e_0_energy">    -24.50516245 </i>
   </energy>
  </scstep>
  <scstep>
   <time name="dav">    1.18    1.20</time>
   <time name="total">    1.18    1.20</time>
   <energy>
    <i name="e_fr_energy">    -24.58097926 </i>
    <i name="e_wo_entrp">    -24.58073877 </i>
    <i name="e_0_energy">    -24.58085901 </i>
   </energy>
  </scstep>
  <scstep>
   <time name="dav">    1.31    1.34</time>
   <time name="total">    1.58    1.60</time>
   <energy>
    <i name="e_fr_energy">    -24.58297913 </i>
    <i name="e_wo_entrp">    -24.58273713 </i>
    <i name="e_0_energy">    -24.58285813 </i>
   </energy>
  </scstep>
  <scstep>
   <time name="dav">    1.20    1.20</time>
   <time name="total">    1.55    1.57</time>
   <energy>
    <i name="e_fr_energy">    -23.46644633 </i>
    <i name="e_wo_entrp">    -23.46638921 </i>
    <i name="e_0_energy">    -23.46641777 </i>
   </energy>
  </scstep>
  <scstep>
   <time name="dav">    1.23    1.23</time>
   <time name="total">    1.55    1.57</time>
   <energy>
    <i name="e_fr_energy">    -23.30786652 </i>
    <i name="e_wo_entrp">    -23.30764308 </i>
    <i name="e_0_energy">    -23.30775480 </i>
   </energy>
  </scstep>
  <scstep>
   <time name="dav">    1.13    1.13</time>
   <time name="total">    1.44    1.47</time>
   <energy>
    <i name="e_fr_energy">    -23.28478867 </i>
    <i name="e_wo_entrp">    -23.28466336 </i>
    <i name="e_0_energy">    -23.28472601 </i>
   </energy>
  </scstep>
  <scstep>
   <time name="dav">    1.26    1.26</time>
   <time name="total">    1.56    1.60</time>
   <energy>
    <i name="e_fr_energy">    -23.28001642 </i>
    <i name="e_wo_entrp">    -23.27988615 </i>
    <i name="e_0_energy">    -23.27995128 </i>
   </energy>
  </scstep>
  <scstep>
   <time name="dav">    1.19    1.19</time>
   <time name="total">    1.53    1.56</time>
   <energy>
    <i name="e_fr_energy">    -23.27950212 </i>
    <i name="e_wo_entrp">    -23.27937357 </i>
    <i name="e_0_energy">    -23.27943784 </i>
   </energy>
  </scstep>
  <scstep>
   <time name="dav">    1.17    1.17</time>
   <time name="total">    1.50    1.52</time>
   <energy>
    <i name="e_fr_energy">    -23.27943169 </i>
    <i name="e_wo_entrp">    -23.27930314 </i>
    <i name="e_0_energy">    -23.27936742 </i>
   </energy>
  </scstep>
  <scstep>
   <time name="dav">    1.29    1.29</time>
   <time name="total">    1.61    1.63</time>
   <energy>
    <i name="e_fr_energy">    -23.27943413 </i>
    <i name="e_wo_entrp">    -23.27930556 </i>
    <i name="e_0_energy">    -23.27936984 </i>
   </energy>
  </scstep>
  <scstep>
   <time name="dav">    1.13    1.13</time>
   <time name="total">    1.45    1.48</time>
   <energy>
    <i name="e_fr_energy">    -23.27943399 </i>
    <i name="e_wo_entrp">    -23.27930535 </i>
    <i name="e_0_energy">    -23.27936967 </i>
   </energy>
  </scstep>
  <scstep>
   <time name="dav">    1.11    1.11</time>
   <time name="total">    1.23    1.25</time>
   <energy>
    <i name="alphaZ">     88.41650232 </i>
    <i name="ewald">  -1472.14257378 </i>
    <i name="hartreedc">   -334.16612563 </i>
    <i name="XCdc">    -21.25873109 </i>
    <i name="pawpsdc">   2090.22119794 </i>
    <i name="pawaedc">  -2001.56086342 </i>
    <i name="eentropy">     -0.00012865 </i>
    <i name="bandstr">   -113.89322298 </i>
    <i name="atom">   1741.10451121 </i>
    <i name="e_fr_energy">    -23.27943407 </i>
    <i name="e_wo_entrp">    -23.27930542 </i>
    <i name="e_0_energy">    -23.27936974 </i>
   </energy>
  </scstep>
  <structure>
   <crystal>
    <varray name="basis" >
     <v>       0.00000000       3.37743073       3.37743073 </v>
     <v>       3.37743073       0.00000000       3.37743073 </v>
     <v>       3.37743073       3.37743073       0.00000000 </v>
    </varray>
    <i name="volume">     77.05296348 </i>
    <varray name="rec_basis" >
     <v>      -0.14804153       0.14804153       0.14804153 </v>
     <v>       0.14804153      -0.14804153       0.14804153 </v>
     <v>       0.14804153       0.14804153      -0.14804153 </v>
    </varray>
   </crystal>
   <varray name="positions" >
    <v>       0.75000000       0.75000000       0.75000000 </v>
    <v>       0.25000000       0.25000000       0.25000000 </v>
    <v>       0.00000000       0.00000000       0.00000000 </v>
   </varray>
  </structure>
  <varray name="forces" >
   <v>       0.00000000       0.00000000       0.00000000 </v>
   <v>       0.00000000       0.00000000       0.00000000 </v>
   <v>      -0.00000000      -0.00000000      -0.00000000 </v>
  </varray>
  <varray name="stress" >
   <v>    -163.44108414      -0.00000000       0.00000000 </v>
   <v>       0.00000000    -163.44108414       0.00000000 </v>
   <v>      -0.00000000       0.00000000    -163.44108414 </v>
  </varray>
  <energy>
   <i name="e_fr_energy">    -23.27943407 </i>
   <i name="e_wo_entrp">    -23.27936974 </i>
   <i name="e_0_energy">     -0.00012865 </i>
  </energy>
  <time name="totalsc">   22.84   23.66</time>
  <eigenvalues>
   <array>
    <dimension dim="1">band</dimension>
    <dimension dim="2">kpoint</dimension>
    <dimension dim="3">spin</dimension>
    <field>eigene</field>
    <field>occ</field>
    <set>
     <set comment="spin 1">
      <set comment="kpoint 1">
       <r>  -25.8425    1.0000 </r>
       <r>  -25.8425    1.0000 </r>
       <r>  -25.8425    1.0000 </r>
       <r>   -4.6939    1.0000 </r>
       <r>    1.7613    1.0000 </r>
       <r>    1.7613    1.0000 </r>
       <r>    1.7613    1.0000 </r>
       <r>    2.5361    1.0000 </r>
       <r>    2.5361    1.0000 </r>
       <r>    4.8770    1.0000 </r>
       <r>    5.5324    1.0000 </r>
       <r>    5.5324    1.0000 </r>
       <r>    5.5324    1.0000 </r>
       <r>    7.4716    0.0000 </r>
       <r>    7.4716    0.0000 </r>
       <r>    7.4716    0.0000 </r>
      </set>
      <set comment="kpoint 2">
       <r>  -25.8429    1.0000 </r>
       <r>  -25.8425    1.0000 </r>
       <r>  -25.8425    1.0000 </r>
       <r>   -4.6449    1.0000 </r>
       <r>    1.6693    1.0000 </r>
       <r>    1.7485    1.0000 </r>
       <r>    1.7485    1.0000 </r>
       <r>    2.5593    1.0000 </r>
       <r>    2.5593    1.0000 </r>
       <r>    4.6032    1.0000 </r>
       <r>    5.4661    1.0000 </r>
       <r>    5.4661    1.0000 </r>
       <r>    5.6192    1.0000 </r>
       <r>    7.3300    0.0000 </r>
       <r>    7.3300    0.0000 </r>
       <r>    7.7387    0.0000 </r>
      </set>
      <set comment="kpoint 3">
       <r>  -25.8440    1.0000 </r>
       <r>  -25.8426    1.0000 </r>
       <r>  -25.8426    1.0000 </r>
       <r>   -4.5032    1.0000 </r>
       <r>    1.4234    1.0000 </r>
       <r>    1.7204    1.0000 </r>
       <r>    1.7204    1.0000 </r>
       <r>    2.6140    1.0000 </r>
       <r>    2.6140    1.0000 </r>
       <r>    4.0409    1.0000 </r>
       <r>    5.2998    1.0000 </r>
       <r>    5.2998    1.0000 </r>
       <r>    5.8108    1.0000 </r>
       <r>    7.2608    0.0000 </r>
       <r>    7.2608    0.0000 </r>
       <r>    8.3268    0.0000 </r>
      </set>
      <set comment="kpoint 4">
       <r>  -25.8455    1.0000 </r>
       <r>  -25.8426    1.0000 </r>
       <r>  -25.8426    1.0000 </r>
       <r>   -4.2862    1.0000 </r>
       <r>    1.0838    1.0000 </r>
       <r>    1.6950    1.0000 </r>
       <r>    1.6950    1.0000 </r>
       <r>    2.6700    1.0000 </r>
       <r>    2.6700    1.0000 </r>
       <r>    3.4684    1.0000 </r>
       <r>    5.1029    1.0000 </r>
       <r>    5.1029    1.0000 </r>
       <r>    6.0341    1.0000 </r>
       <r>    7.3059    0.0000 </r>
       <r>    7.3059    0.0000 </r>
       <r>    8.8528    0.0000 </r>
      </set>
      <set comment="kpoint 5">
       <r>  -25.8471    1.0000 </r>
       <r>  -25.8426    1.0000 </r>
       <r>  -25.8426    1.0000 </r>
       <r>   -4.0271    1.0000 </r>
       <r>    0.7105    1.0000 </r>
       <r>    1.6832    1.0000 </r>
       <r>    1.6832    1.0000 </r>
       <r>    2.7033    1.0000 </r>
       <r>    2.7033    1.0000 </r>
       <r>    3.0076    1.0000 </r>
       <r>    4.9338    1.0000 </r>
       <r>    4.9338    1.0000 </r>
       <r>    6.2528    1.0000 </r>
       <r>    7.4301    0.0000 </r>
       <r>    7.4301    0.0000 </r>
       <r>    8.6006    0.0000 </r>
      </set>
      <set comment="kpoint 6">
       <r>  -25.8485    1.0000 </r>
       <r>  -25.8426    1.0000 </r>
       <r>  -25.8426    1.0000 </r>
       <r>   -3.7808    1.0000 </r>
       <r>    0.3745    1.0000 </r>
       <r>    1.6843    1.0000 </r>
       <r>    1.6843    1.0000 </r>
       <r>    2.7011    1.0000 </r>
       <r>    2.7095    1.0000 </r>
       <r>    2.7095    1.0000 </r>
       <r>    4.8208    1.0000 </r>
       <r>    4.8208    1.0000 </r>
       <r>    6.4592    1.0000 </r>
       <r>    7.5872    0.0000 </r>
       <r>    7.5872    0.0000 </r>
       <r>    8.0283    0.0000 </r>
      </set>
      <set comment="kpoint 7">
       <r>  -25.8492    1.0000 </r>
       <r>  -25.8426    1.0000 </r>
       <r>  -25.8426    1.0000 </r>
       <r>   -3.6239    1.0000 </r>
       <r>    0.1676    1.0000 </r>
       <r>    1.6893    1.0000 </r>
       <r>    1.6893    1.0000 </r>
       <r>    2.5516    1.0000 </r>
       <r>    2.7038    1.0000 </r>
       <r>    2.7038    1.0000 </r>
       <r>    4.7672    1.0000 </r>
       <r>    4.7672    1.0000 </r>
       <r>    6.6258    1.0000 </r>
       <r>    7.6360    0.0000 </r>
       <r>    7.7051    0.0000 </r>
       <r>    7.7051    0.0000 </r>
      </set>
      <set comment="kpoint 8">
       <r>  -25.8429    1.0000 </r>
       <r>  -25.8426    1.0000 </r>
       <r>  -25.8426    1.0000 </r>
       <r>   -4.6288    1.0000 </r>
       <r>    1.5693    1.0000 </r>
       <r>    1.7865    1.0000 </r>
       <r>    1.7865    1.0000 </r>
       <r>    2.5620    1.0000 </r>
       <r>    2.5620    1.0000 </r>
       <r>    4.5889    1.0000 </r>
       <r>    5.3538    1.0000 </r>
       <r>    5.3538    1.0000 </r>
       <r>    5.7587    1.0000 </r>
       <r>    7.1713    0.0000 </r>
       <r>    7.6597    0.0000 </r>
       <r>    7.7073    0.0000 </r>
      </set>
      <set comment="kpoint 9">
       <r>  -25.8437    1.0000 </r>
       <r>  -25.8427    1.0000 </r>
       <r>  -25.8426    1.0000 </r>
       <r>   -4.5189    1.0000 </r>
       <r>    1.3611    1.0000 </r>
       <r>    1.7718    1.0000 </r>
       <r>    1.7982    1.0000 </r>
       <r>    2.5922    1.0000 </r>
       <r>    2.6056    1.0000 </r>
       <r>    4.2027    1.0000 </r>
       <r>    5.1751    1.0000 </r>
       <r>    5.1819    1.0000 </r>
       <r>    5.9658    1.0000 </r>
       <r>    7.0617    0.0000 </r>
       <r>    7.4699    0.0000 </r>
       <r>    8.0685    0.0000 </r>
      </set>
      <set comment="kpoint 10">
       <r>  -25.8451    1.0000 </r>
       <r>  -25.8427    1.0000 </r>
       <r>  -25.8426    1.0000 </r>
       <r>   -4.3284    1.0000 </r>
       <r>    1.0905    1.0000 </r>
       <r>    1.7158    1.0000 </r>
       <r>    1.7913    1.0000 </r>
       <r>    2.6415    1.0000 </r>
       <r>    2.6638    1.0000 </r>
       <r>    3.6585    1.0000 </r>
       <r>    4.9911    1.0000 </r>
       <r>    4.9978    1.0000 </r>
       <r>    6.2165    1.0000 </r>
       <r>    7.0965    0.0000 </r>
       <r>    7.4001    0.0000 </r>
       <r>    8.5029    0.0000 </r>
      </set>
      <set comment="kpoint 11">
       <r>  -25.8466    1.0000 </r>
       <r>  -25.8428    1.0000 </r>
       <r>  -25.8427    1.0000 </r>
       <r>   -4.0848    1.0000 </r>
       <r>    0.7785    1.0000 </r>
       <r>    1.6689    1.0000 </r>
       <r>    1.7779    1.0000 </r>
       <r>    2.6840    1.0000 </r>
       <r>    2.7049    1.0000 </r>
       <r>    3.1591    1.0000 </r>
       <r>    4.8319    1.0000 </r>
       <r>    4.8436    1.0000 </r>
       <r>    6.3929    1.0000 </r>
       <r>    7.2976    0.0000 </r>
       <r>    7.4366    0.0000 </r>
       <r>    8.6353    0.0000 </r>
      </set>
      <set comment="kpoint 12">
       <r>  -25.8480    1.0000 </r>
       <r>  -25.8428    1.0000 </r>
       <r>  -25.8428    1.0000 </r>
       <r>   -3.8348    1.0000 </r>
       <r>    0.4715    1.0000 </r>
       <r>    1.6504    1.0000 </r>
       <r>    1.7615    1.0000 </r>
       <r>    2.6912    1.0000 </r>
       <r>    2.7179    1.0000 </r>
       <r>    2.8070    1.0000 </r>
       <r>    4.7036    1.0000 </r>
       <r>    4.7513    1.0000 </r>
       <r>    6.5298    1.0000 </r>
       <r>    7.5530    0.0000 </r>
       <r>    7.5557    0.0000 </r>
       <r>    8.1700    0.0000 </r>
      </set>
      <set comment="kpoint 13">
       <r>  -25.8489    1.0000 </r>
       <r>  -25.8429    1.0000 </r>
       <r>  -25.8427    1.0000 </r>
       <r>   -3.6466    1.0000 </r>
       <r>    0.2447    1.0000 </r>
       <r>    1.6599    1.0000 </r>
       <r>    1.7372    1.0000 </r>
       <r>    2.5673    1.0000 </r>
       <r>    2.7169    1.0000 </r>
       <r>    2.7247    1.0000 </r>
       <r>    4.6217    1.0000 </r>
       <r>    4.7134    1.0000 </r>
       <r>    6.6713    1.0000 </r>
       <r>    7.6745    0.0000 </r>
       <r>    7.6835    0.0000 </r>
       <r>    7.8008    0.0000 </r>
      </set>
      <set comment="kpoint 14">
       <r>  -25.8492    1.0000 </r>
       <r>  -25.8429    1.0000 </r>
       <r>  -25.8427    1.0000 </r>
       <r>   -3.5924    1.0000 </r>
       <r>    0.1805    1.0000 </r>
       <r>    1.6889    1.0000 </r>
       <r>    1.7016    1.0000 </r>
       <r>    2.5178    1.0000 </r>
       <r>    2.7180    1.0000 </r>
       <r>    2.7207    1.0000 </r>
       <r>    4.5799    1.0000 </r>
       <r>    4.7248    1.0000 </r>
       <r>    6.7425    0.0000 </r>
       <r>    7.5331    0.0000 </r>
       <r>    7.7254    0.0000 </r>
       <r>    7.8614    0.0000 </r>
      </set>
      <set comment="kpoint 15">
       <r>  -25.8487    1.0000 </r>
       <r>  -25.8430    1.0000 </r>
       <r>  -25.8426    1.0000 </r>
       <r>   -3.6973    1.0000 </r>
       <r>    0.3081    1.0000 </r>
       <r>    1.6616    1.0000 </r>
       <r>    1.7275    1.0000 </r>
       <r>    2.6034    1.0000 </r>
       <r>    2.7297    1.0000 </r>
       <r>    2.7335    1.0000 </r>
       <r>    4.5692    1.0000 </r>
       <r>    4.7892    1.0000 </r>
       <r>    6.6500    1.0000 </r>
       <r>    7.6313    0.0000 </r>
       <r>    7.6844    0.0000 </r>
       <r>    7.8891    0.0000 </r>
      </set>
      <set comment="kpoint 16">
       <r>  -25.8476    1.0000 </r>
       <r>  -25.8430    1.0000 </r>
       <r>  -25.8425    1.0000 </r>
       <r>   -3.9146    1.0000 </r>
       <r>    0.5764    1.0000 </r>
       <r>    1.6322    1.0000 </r>
       <r>    1.7672    1.0000 </r>
       <r>    2.6839    1.0000 </r>
       <r>    2.7278    1.0000 </r>
       <r>    2.9099    1.0000 </r>
       <r>    4.5925    1.0000 </r>
       <r>    4.9147    1.0000 </r>
       <r>    6.5173    1.0000 </r>
       <r>    7.4574    0.0000 </r>
       <r>    7.5511    0.0000 </r>
       <r>    8.3509    0.0000 </r>
      </set>
      <set comment="kpoint 17">
       <r>  -25.8461    1.0000 </r>
       <r>  -25.8429    1.0000 </r>
       <r>  -25.8425    1.0000 </r>
       <r>   -4.1691    1.0000 </r>
       <r>    0.9037    1.0000 </r>
       <r>    1.6265    1.0000 </r>
       <r>    1.8022    1.0000 </r>
       <r>    2.6707    1.0000 </r>
       <r>    2.7013    1.0000 </r>
       <r>    3.3151    1.0000 </r>
       <r>    4.6682    1.0000 </r>
       <r>    5.0966    1.0000 </r>
       <r>    6.3700    1.0000 </r>
       <r>    7.2771    0.0000 </r>
       <r>    7.4065    0.0000 </r>
       <r>    8.5245    0.0000 </r>
      </set>
      <set comment="kpoint 18">
       <r>  -25.8446    1.0000 </r>
       <r>  -25.8428    1.0000 </r>
       <r>  -25.8425    1.0000 </r>
       <r>   -4.3992    1.0000 </r>
       <r>    1.2259    1.0000 </r>
       <r>    1.6494    1.0000 </r>
       <r>    1.8227    1.0000 </r>
       <r>    2.6267    1.0000 </r>
       <r>    2.6519    1.0000 </r>
       <r>    3.8333    1.0000 </r>
       <r>    4.8265    1.0000 </r>
       <r>    5.2997    1.0000 </r>
       <r>    6.1519    1.0000 </r>
       <r>    7.1509    0.0000 </r>
       <r>    7.3752    0.0000 </r>
       <r>    8.1550    0.0000 </r>
      </set>
      <set comment="kpoint 19">
       <r>  -25.8435    1.0000 </r>
       <r>  -25.8427    1.0000 </r>
       <r>  -25.8425    1.0000 </r>
       <r>   -4.5652    1.0000 </r>
       <r>    1.4985    1.0000 </r>
       <r>    1.6956    1.0000 </r>
       <r>    1.8075    1.0000 </r>
       <r>    2.5814    1.0000 </r>
       <r>    2.5965    1.0000 </r>
       <r>    4.3176    1.0000 </r>
       <r>    5.1203    1.0000 </r>
       <r>    5.4487    1.0000 </r>
       <r>    5.8614    1.0000 </r>
       <r>    7.1481    0.0000 </r>
       <r>    7.4406    0.0000 </r>
       <r>    7.8161    0.0000 </r>
      </set>
      <set comment="kpoint 20">
       <r>  -25.8440    1.0000 </r>
       <r>  -25.8428    1.0000 </r>
       <r>  -25.8428    1.0000 </r>
       <r>   -4.4444    1.0000 </r>
       <r>    1.1540    1.0000 </r>
       <r>    1.8589    1.0000 </r>
       <r>    1.8589    1.0000 </r>
       <r>    2.5674    1.0000 </r>
       <r>    2.6359    1.0000 </r>
       <r>    4.1429    1.0000 </r>
       <r>    4.9925    1.0000 </r>
       <r>    4.9925    1.0000 </r>
       <r>    6.0309    1.0000 </r>
       <r>    6.9517    0.0000 </r>
       <r>    7.5245    0.0000 </r>
       <r>    8.1828    0.0000 </r>
      </set>
      <set comment="kpoint 21">
       <r>  -25.8450    1.0000 </r>
       <r>  -25.8429    1.0000 </r>
       <r>  -25.8429    1.0000 </r>
       <r>   -4.2895    1.0000 </r>
       <r>    0.9295    1.0000 </r>
       <r>    1.8580    1.0000 </r>
       <r>    1.8907    1.0000 </r>
       <r>    2.5759    1.0000 </r>
       <r>    2.6911    1.0000 </r>
       <r>    3.7929    1.0000 </r>
       <r>    4.7709    1.0000 </r>
       <r>    4.8141    1.0000 </r>
       <r>    6.2941    1.0000 </r>
       <r>    6.8937    0.0000 </r>
       <r>    7.4337    0.0000 </r>
       <r>    8.4330    0.0000 </r>
      </set>
      <set comment="kpoint 22">
       <r>  -25.8463    1.0000 </r>
       <r>  -25.8430    1.0000 </r>
       <r>  -25.8430    1.0000 </r>
       <r>   -4.0769    1.0000 </r>
       <r>    0.7123    1.0000 </r>
       <r>    1.7904    1.0000 </r>
       <r>    1.8964    1.0000 </r>
       <r>    2.6187    1.0000 </r>
       <r>    2.7384    1.0000 </r>
       <r>    3.3260    1.0000 </r>
       <r>    4.5548    1.0000 </r>
       <r>    4.6796    1.0000 </r>
       <r>    6.5857    1.0000 </r>
       <r>    7.0415    0.0000 </r>
       <r>    7.4052    0.0000 </r>
       <r>    8.5425    0.0000 </r>
      </set>
      <set comment="kpoint 23">
       <r>  -25.8475    1.0000 </r>
       <r>  -25.8432    1.0000 </r>
       <r>  -25.8430    1.0000 </r>
       <r>   -3.8456    1.0000 </r>
       <r>    0.5153    1.0000 </r>
       <r>    1.7105    1.0000 </r>
       <r>    1.8795    1.0000 </r>
       <r>    2.6546    1.0000 </r>
       <r>    2.7580    1.0000 </r>
       <r>    2.9197    1.0000 </r>
       <r>    4.3916    1.0000 </r>
       <r>    4.6041    1.0000 </r>
       <r>    6.6418    1.0000 </r>
       <r>    7.4828    0.0000 </r>
       <r>    7.4929    0.0000 </r>
       <r>    8.2403    0.0000 </r>
      </set>
      <set comment="kpoint 24">
       <r>  -25.8484    1.0000 </r>
       <r>  -25.8435    1.0000 </r>
       <r>  -25.8430    1.0000 </r>
       <r>   -3.6520    1.0000 </r>
       <r>    0.3612    1.0000 </r>
       <r>    1.6575    1.0000 </r>
       <r>    1.8377    1.0000 </r>
       <r>    2.5687    1.0000 </r>
       <r>    2.7585    1.0000 </r>
       <r>    2.7602    1.0000 </r>
       <r>    4.2798    1.0000 </r>
       <r>    4.5809    1.0000 </r>
       <r>    6.7091    0.4923 </r>
       <r>    7.6331    0.0000 </r>
       <r>    7.7875    0.0000 </r>
       <r>    7.8999    0.0000 </r>
      </set>
      <set comment="kpoint 25">
       <r>  -25.8488    1.0000 </r>
       <r>  -25.8437    1.0000 </r>
       <r>  -25.8428    1.0000 </r>
       <r>   -3.5594    1.0000 </r>
       <r>    0.2902    1.0000 </r>
       <r>    1.6552    1.0000 </r>
       <r>    1.7723    1.0000 </r>
       <r>    2.4663    1.0000 </r>
       <r>    2.7640    1.0000 </r>
       <r>    2.7649    1.0000 </r>
       <r>    4.2054    1.0000 </r>
       <r>    4.6013    1.0000 </r>
       <r>    6.8222    0.0000 </r>
       <r>    7.4993    0.0000 </r>
       <r>    7.7417    0.0000 </r>
       <r>    8.1377    0.0000 </r>
      </set>
      <set comment="kpoint 26">
       <r>  -25.8485    1.0000 </r>
       <r>  -25.8438    1.0000 </r>
       <r>  -25.8427    1.0000 </r>
       <r>   -3.6053    1.0000 </r>
       <r>    0.3349    1.0000 </r>
       <r>    1.6975    1.0000 </r>
       <r>    1.7098    1.0000 </r>
       <r>    2.4981    1.0000 </r>
       <r>    2.7732    1.0000 </r>
       <r>    2.7929    1.0000 </r>
       <r>    4.1484    1.0000 </r>
       <r>    4.6699    1.0000 </r>
       <r>    6.8618    0.0000 </r>
       <r>    7.5618    0.0000 </r>
       <r>    7.6999    0.0000 </r>
       <r>    8.1589    0.0000 </r>
      </set>
      <set comment="kpoint 27">
       <r>  -25.8477    1.0000 </r>
       <r>  -25.8438    1.0000 </r>
       <r>  -25.8426    1.0000 </r>
       <r>   -3.7705    1.0000 </r>
       <r>    0.4858    1.0000 </r>
       <r>    1.6344    1.0000 </r>
       <r>    1.7977    1.0000 </r>
       <r>    2.6108    1.0000 </r>
       <r>    2.7703    1.0000 </r>
       <r>    2.8988    1.0000 </r>
       <r>    4.1077    1.0000 </r>
       <r>    4.7964    1.0000 </r>
       <r>    6.8382    0.0000 </r>
       <r>    7.5440    0.0000 </r>
       <r>    7.7653    0.0000 </r>
       <r>    8.1496    0.0000 </r>
      </set>
      <set comment="kpoint 28">
       <r>  -25.8466    1.0000 </r>
       <r>  -25.8436    1.0000 </r>
       <r>  -25.8425    1.0000 </r>
       <r>   -3.9962    1.0000 </r>
       <r>    0.7063    1.0000 </r>
       <r>    1.6008    1.0000 </r>
       <r>    1.8713    1.0000 </r>
       <r>    2.6591    1.0000 </r>
       <r>    2.7455    1.0000 </r>
       <r>    3.1977    1.0000 </r>
       <r>    4.1306    1.0000 </r>
       <r>    4.9748    1.0000 </r>
       <r>    6.8140    0.0000 </r>
       <r>    7.3557    0.0000 </r>
       <r>    7.5461    0.0000 </r>
       <r>    8.2786    0.0000 </r>
      </set>
      <set comment="kpoint 29">
       <r>  -25.8455    1.0000 </r>
       <r>  -25.8433    1.0000 </r>
       <r>  -25.8424    1.0000 </r>
       <r>   -4.2208    1.0000 </r>
       <r>    0.9636    1.0000 </r>
       <r>    1.6060    1.0000 </r>
       <r>    1.8872    1.0000 </r>
       <r>    2.6468    1.0000 </r>
       <r>    2.7016    1.0000 </r>
       <r>    3.5689    1.0000 </r>
       <r>    4.3401    1.0000 </r>
       <r>    5.1674    1.0000 </r>
       <r>    6.5974    1.0000 </r>
       <r>    7.2008    0.0000 </r>
       <r>    7.3951    0.0000 </r>
       <r>    8.1443    0.0000 </r>
      </set>
      <set comment="kpoint 30">
       <r>  -25.8456    1.0000 </r>
       <r>  -25.8431    1.0000 </r>
       <r>  -25.8431    1.0000 </r>
       <r>   -4.1755    1.0000 </r>
       <r>    0.7424    1.0000 </r>
       <r>    1.9684    1.0000 </r>
       <r>    1.9684    1.0000 </r>
       <r>    2.5074    1.0000 </r>
       <r>    2.7461    1.0000 </r>
       <r>    3.6915    1.0000 </r>
       <r>    4.6333    1.0000 </r>
       <r>    4.6333    1.0000 </r>
       <r>    6.2006    1.0000 </r>
       <r>    6.8727    0.0000 </r>
       <r>    7.3624    0.0000 </r>
       <r>    8.5206    0.0000 </r>
      </set>
      <set comment="kpoint 31">
       <r>  -25.8465    1.0000 </r>
       <r>  -25.8433    1.0000 </r>
       <r>  -25.8432    1.0000 </r>
       <r>   -4.0051    1.0000 </r>
       <r>    0.5883    1.0000 </r>
       <r>    1.9648    1.0000 </r>
       <r>    2.0110    1.0000 </r>
       <r>    2.5081    1.0000 </r>
       <r>    2.8013    1.0000 </r>
       <r>    3.3781    1.0000 </r>
       <r>    4.4051    1.0000 </r>
       <r>    4.4958    1.0000 </r>
       <r>    6.4139    1.0000 </r>
       <r>    6.9213    0.0000 </r>
       <r>    7.2987    0.0000 </r>
       <r>    8.5298    0.0000 </r>
      </set>
      <set comment="kpoint 32">
       <r>  -25.8475    1.0000 </r>
       <r>  -25.8436    1.0000 </r>
       <r>  -25.8433    1.0000 </r>
       <r>   -3.8102    1.0000 </r>
       <r>    0.4900    1.0000 </r>
       <r>    1.8650    1.0000 </r>
       <r>    2.0139    1.0000 </r>
       <r>    2.5732    1.0000 </r>
       <r>    2.8284    1.0000 </r>
       <r>    2.9960    1.0000 </r>
       <r>    4.1500    1.0000 </r>
       <r>    4.4234    1.0000 </r>
       <r>    6.5684    1.0000 </r>
       <r>    7.3065    0.0000 </r>
       <r>    7.3378    0.0000 </r>
       <r>    8.2877    0.0000 </r>
      </set>
      <set comment="kpoint 33">
       <r>  -25.8481    1.0000 </r>
       <r>  -25.8441    1.0000 </r>
       <r>  -25.8432    1.0000 </r>
       <r>   -3.6355    1.0000 </r>
       <r>    0.4517    1.0000 </r>
       <r>    1.7394    1.0000 </r>
       <r>    1.9727    1.0000 </r>
       <r>    2.5466    1.0000 </r>
       <r>    2.7727    1.0000 </r>
       <r>    2.8312    1.0000 </r>
       <r>    3.9553    1.0000 </r>
       <r>    4.4080    1.0000 </r>
       <r>    6.6173    1.0000 </r>
       <r>    7.5044    0.0000 </r>
       <r>    7.8331    0.0000 </r>
       <r>    7.9320    0.0000 </r>
      </set>
      <set comment="kpoint 34">
       <r>  -25.8483    1.0000 </r>
       <r>  -25.8445    1.0000 </r>
       <r>  -25.8431    1.0000 </r>
       <r>   -3.5293    1.0000 </r>
       <r>    0.4546    1.0000 </r>
       <r>    1.6421    1.0000 </r>
       <r>    1.8902    1.0000 </r>
       <r>    2.3910    1.0000 </r>
       <r>    2.8150    1.0000 </r>
       <r>    2.8310    1.0000 </r>
       <r>    3.8269    1.0000 </r>
       <r>    4.4346    1.0000 </r>
       <r>    6.7221    0.0319 </r>
       <r>    7.5621    0.0000 </r>
       <r>    7.7200    0.0000 </r>
       <r>    8.2408    0.0000 </r>
      </set>
      <set comment="kpoint 35">
       <r>  -25.8481    1.0000 </r>
       <r>  -25.8449    1.0000 </r>
       <r>  -25.8429    1.0000 </r>
       <r>   -3.5261    1.0000 </r>
       <r>    0.4664    1.0000 </r>
       <r>    1.6375    1.0000 </r>
       <r>    1.7865    1.0000 </r>
       <r>    2.3725    1.0000 </r>
       <r>    2.8314    1.0000 </r>
       <r>    2.8805    1.0000 </r>
       <r>    3.7458    1.0000 </r>
       <r>    4.5049    1.0000 </r>
       <r>    6.8795    0.0000 </r>
       <r>    7.4304    0.0000 </r>
       <r>    7.7805    0.0000 </r>
       <r>    8.2763    0.0000 </r>
      </set>
      <set comment="kpoint 36">
       <r>  -25.8476    1.0000 </r>
       <r>  -25.8449    1.0000 </r>
       <r>  -25.8427    1.0000 </r>
       <r>   -3.6275    1.0000 </r>
       <r>    0.4894    1.0000 </r>
       <r>    1.6898    1.0000 </r>
       <r>    1.7314    1.0000 </r>
       <r>    2.4785    1.0000 </r>
       <r>    2.8198    1.0000 </r>
       <r>    2.9595    1.0000 </r>
       <r>    3.7078    1.0000 </r>
       <r>    4.6283    1.0000 </r>
       <r>    6.9614    0.0000 </r>
       <r>    7.6386    0.0000 </r>
       <r>    7.6692    0.0000 </r>
       <r>    8.2083    0.0000 </r>
      </set>
      <set comment="kpoint 37">
       <r>  -25.8471    1.0000 </r>
       <r>  -25.8444    1.0000 </r>
       <r>  -25.8426    1.0000 </r>
       <r>   -3.8004    1.0000 </r>
       <r>    0.5625    1.0000 </r>
       <r>    1.6234    1.0000 </r>
       <r>    1.8379    1.0000 </r>
       <r>    2.6053    1.0000 </r>
       <r>    2.7892    1.0000 </r>
       <r>    3.0774    1.0000 </r>
       <r>    3.7901    1.0000 </r>
       <r>    4.7974    1.0000 </r>
       <r>    6.9711    0.0000 </r>
       <r>    7.5051    0.0000 </r>
       <r>    7.8554    0.0000 </r>
       <r>    8.1777    0.0000 </r>
      </set>
      <set comment="kpoint 38">
       <r>  -25.8472    1.0000 </r>
       <r>  -25.8434    1.0000 </r>
       <r>  -25.8434    1.0000 </r>
       <r>   -3.8834    1.0000 </r>
       <r>    0.4890    1.0000 </r>
       <r>    2.0958    1.0000 </r>
       <r>    2.0958    1.0000 </r>
       <r>    2.4001    1.0000 </r>
       <r>    2.8721    1.0000 </r>
       <r>    3.2060    1.0000 </r>
       <r>    4.3429    1.0000 </r>
       <r>    4.3429    1.0000 </r>
       <r>    6.2598    1.0000 </r>
       <r>    6.9184    0.0000 </r>
       <r>    7.1805    0.0000 </r>
       <r>    8.4900    0.0000 </r>
      </set>
      <set comment="kpoint 39">
       <r>  -25.8480    1.0000 </r>
       <r>  -25.8437    1.0000 </r>
       <r>  -25.8435    1.0000 </r>
       <r>   -3.7373    1.0000 </r>
       <r>    0.4558    1.0000 </r>
       <r>    2.0501    1.0000 </r>
       <r>    2.1341    1.0000 </r>
       <r>    2.4380    1.0000 </r>
       <r>    2.9112    1.0000 </r>
       <r>    2.9155    1.0000 </r>
       <r>    4.1272    1.0000 </r>
       <r>    4.2559    1.0000 </r>
       <r>    6.3661    1.0000 </r>
       <r>    7.0805    0.0000 </r>
       <r>    7.1507    0.0000 </r>
       <r>    8.3005    0.0000 </r>
      </set>
      <set comment="kpoint 40">
       <r>  -25.8484    1.0000 </r>
       <r>  -25.8442    1.0000 </r>
       <r>  -25.8435    1.0000 </r>
       <r>   -3.6001    1.0000 </r>
       <r>    0.5005    1.0000 </r>
       <r>    1.8969    1.0000 </r>
       <r>    2.1140    1.0000 </r>
       <r>    2.4746    1.0000 </r>
       <r>    2.6935    1.0000 </r>
       <r>    2.9208    1.0000 </r>
       <r>    3.8389    1.0000 </r>
       <r>    4.2370    1.0000 </r>
       <r>    6.4543    1.0000 </r>
       <r>    7.2771    0.0000 </r>
       <r>    7.5778    0.0000 </r>
       <r>    7.9977    0.0000 </r>
      </set>
      <set comment="kpoint 41">
       <r>  -25.8484    1.0000 </r>
       <r>  -25.8449    1.0000 </r>
       <r>  -25.8434    1.0000 </r>
       <r>   -3.5050    1.0000 </r>
       <r>    0.5946    1.0000 </r>
       <r>    1.7191    1.0000 </r>
       <r>    2.0336    1.0000 </r>
       <r>    2.2833    1.0000 </r>
       <r>    2.8056    1.0000 </r>
       <r>    2.9097    1.0000 </r>
       <r>    3.6063    1.0000 </r>
       <r>    4.2669    1.0000 </r>
       <r>    6.5429    1.0000 </r>
       <r>    7.5654    0.0000 </r>
       <r>    7.6645    0.0000 </r>
       <r>    8.1845    0.0000 </r>
      </set>
      <set comment="kpoint 42">
       <r>  -25.8479    1.0000 </r>
       <r>  -25.8455    1.0000 </r>
       <r>  -25.8432    1.0000 </r>
       <r>   -3.4759    1.0000 </r>
       <r>    0.6443    1.0000 </r>
       <r>    1.5881    1.0000 </r>
       <r>    1.9139    1.0000 </r>
       <r>    2.2323    1.0000 </r>
       <r>    2.8930    1.0000 </r>
       <r>    2.9420    1.0000 </r>
       <r>    3.4701    1.0000 </r>
       <r>    4.3408    1.0000 </r>
       <r>    6.7052    0.7007 </r>
       <r>    7.4577    0.0000 </r>
       <r>    7.8431    0.0000 </r>
       <r>    8.1526    0.0000 </r>
      </set>
      <set comment="kpoint 43">
       <r>  -25.8475    1.0000 </r>
       <r>  -25.8457    1.0000 </r>
       <r>  -25.8429    1.0000 </r>
       <r>   -3.5203    1.0000 </r>
       <r>    0.5751    1.0000 </r>
       <r>    1.6202    1.0000 </r>
       <r>    1.7893    1.0000 </r>
       <r>    2.3258    1.0000 </r>
       <r>    2.8637    1.0000 </r>
       <r>    3.0036    1.0000 </r>
       <r>    3.4836    1.0000 </r>
       <r>    4.4646    1.0000 </r>
       <r>    6.9031    0.0000 </r>
       <r>    7.4144    0.0000 </r>
       <r>    7.7977    0.0000 </r>
       <r>    8.1151    0.0000 </r>
      </set>
      <set comment="kpoint 44">
       <r>  -25.8486    1.0000 </r>
       <r>  -25.8437    1.0000 </r>
       <r>  -25.8437    1.0000 </r>
       <r>   -3.6451    1.0000 </r>
       <r>    0.4670    1.0000 </r>
       <r>    2.2122    1.0000 </r>
       <r>    2.2122    1.0000 </r>
       <r>    2.2842    1.0000 </r>
       <r>    2.6853    1.0000 </r>
       <r>    2.9851    1.0000 </r>
       <r>    4.1431    1.0000 </r>
       <r>    4.1431    1.0000 </r>
       <r>    6.2577    1.0000 </r>
       <r>    6.9566    0.0000 </r>
       <r>    7.0206    0.0000 </r>
       <r>    8.2633    0.0000 </r>
      </set>
      <set comment="kpoint 45">
       <r>  -25.8490    1.0000 </r>
       <r>  -25.8440    1.0000 </r>
       <r>  -25.8437    1.0000 </r>
       <r>   -3.5563    1.0000 </r>
       <r>    0.5425    1.0000 </r>
       <r>    2.0756    1.0000 </r>
       <r>    2.2276    1.0000 </r>
       <r>    2.3415    1.0000 </r>
       <r>    2.5069    1.0000 </r>
       <r>    3.0063    1.0000 </r>
       <r>    3.9568    1.0000 </r>
       <r>    4.1056    1.0000 </r>
       <r>    6.3076    1.0000 </r>
       <r>    7.0415    0.0000 </r>
       <r>    7.1436    0.0000 </r>
       <r>    8.0736    0.0000 </r>
      </set>
      <set comment="kpoint 46">
       <r>  -25.8489    1.0000 </r>
       <r>  -25.8445    1.0000 </r>
       <r>  -25.8437    1.0000 </r>
       <r>   -3.4915    1.0000 </r>
       <r>    0.6573    1.0000 </r>
       <r>    1.8941    1.0000 </r>
       <r>    2.1628    1.0000 </r>
       <r>    2.1702    1.0000 </r>
       <r>    2.6665    1.0000 </r>
       <r>    2.9867    1.0000 </r>
       <r>    3.6720    1.0000 </r>
       <r>    4.1327    1.0000 </r>
       <r>    6.3849    1.0000 </r>
       <r>    7.2561    0.0000 </r>
       <r>    7.6115    0.0000 </r>
       <r>    7.9155    0.0000 </r>
      </set>
      <set comment="kpoint 47">
       <r>  -25.8484    1.0000 </r>
       <r>  -25.8452    1.0000 </r>
       <r>  -25.8435    1.0000 </r>
       <r>   -3.4634    1.0000 </r>
       <r>    0.7268    1.0000 </r>
       <r>    1.6791    1.0000 </r>
       <r>    2.0538    1.0000 </r>
       <r>    2.1316    1.0000 </r>
       <r>    2.8554    1.0000 </r>
       <r>    2.9468    1.0000 </r>
       <r>    3.4606    1.0000 </r>
       <r>    4.2119    1.0000 </r>
       <r>    6.5126    1.0000 </r>
       <r>    7.5909    0.0000 </r>
       <r>    7.6330    0.0000 </r>
       <r>    8.0164    0.0000 </r>
      </set>
      <set comment="kpoint 48">
       <r>  -25.8495    1.0000 </r>
       <r>  -25.8438    1.0000 </r>
       <r>  -25.8438    1.0000 </r>
       <r>   -3.5175    1.0000 </r>
       <r>    0.5988    1.0000 </r>
       <r>    2.1525    1.0000 </r>
       <r>    2.2831    1.0000 </r>
       <r>    2.2831    1.0000 </r>
       <r>    2.3214    1.0000 </r>
       <r>    3.0530    1.0000 </r>
       <r>    4.0418    1.0000 </r>
       <r>    4.0418    1.0000 </r>
       <r>    6.2464    1.0000 </r>
       <r>    6.9260    0.0000 </r>
       <r>    6.9267    0.0000 </r>
       <r>    8.0917    0.0000 </r>
      </set>
      <set comment="kpoint 49">
       <r>  -25.8494    1.0000 </r>
       <r>  -25.8441    1.0000 </r>
       <r>  -25.8438    1.0000 </r>
       <r>   -3.4946    1.0000 </r>
       <r>    0.6494    1.0000 </r>
       <r>    2.1014    1.0000 </r>
       <r>    2.1044    1.0000 </r>
       <r>    2.2626    1.0000 </r>
       <r>    2.4750    1.0000 </r>
       <r>    3.0422    1.0000 </r>
       <r>    3.8996    1.0000 </r>
       <r>    4.0535    1.0000 </r>
       <r>    6.2850    1.0000 </r>
       <r>    7.0020    0.0000 </r>
       <r>    7.1340    0.0000 </r>
       <r>    7.9991    0.0000 </r>
      </set>
      <set comment="kpoint 50">
       <r>  -25.8445    1.0000 </r>
       <r>  -25.8429    1.0000 </r>
       <r>  -25.8426    1.0000 </r>
       <r>   -4.3856    1.0000 </r>
       <r>    1.1297    1.0000 </r>
       <r>    1.7343    1.0000 </r>
       <r>    1.8670    1.0000 </r>
       <r>    2.6069    1.0000 </r>
       <r>    2.6541    1.0000 </r>
       <r>    3.9149    1.0000 </r>
       <r>    4.7327    1.0000 </r>
       <r>    5.1612    1.0000 </r>
       <r>    6.2551    1.0000 </r>
       <r>    6.9907    0.0000 </r>
       <r>    7.4500    0.0000 </r>
       <r>    8.1423    0.0000 </r>
      </set>
      <set comment="kpoint 51">
       <r>  -25.8457    1.0000 </r>
       <r>  -25.8432    1.0000 </r>
       <r>  -25.8426    1.0000 </r>
       <r>   -4.1833    1.0000 </r>
       <r>    0.8759    1.0000 </r>
       <r>    1.6856    1.0000 </r>
       <r>    1.8814    1.0000 </r>
       <r>    2.6417    1.0000 </r>
       <r>    2.7059    1.0000 </r>
       <r>    3.4830    1.0000 </r>
       <r>    4.4534    1.0000 </r>
       <r>    5.0146    1.0000 </r>
       <r>    6.5773    1.0000 </r>
       <r>    7.0693    0.0000 </r>
       <r>    7.4247    0.0000 </r>
       <r>    8.3527    0.0000 </r>
      </set>
      <set comment="kpoint 52">
       <r>  -25.8471    1.0000 </r>
       <r>  -25.8433    1.0000 </r>
       <r>  -25.8426    1.0000 </r>
       <r>   -3.9455    1.0000 </r>
       <r>    0.6238    1.0000 </r>
       <r>    1.6560    1.0000 </r>
       <r>    1.8504    1.0000 </r>
       <r>    2.6682    1.0000 </r>
       <r>    2.7369    1.0000 </r>
       <r>    3.0511    1.0000 </r>
       <r>    4.3428    1.0000 </r>
       <r>    4.8448    1.0000 </r>
       <r>    6.6838    0.9998 </r>
       <r>    7.3502    0.0000 </r>
       <r>    7.5363    0.0000 </r>
       <r>    8.3921    0.0000 </r>
      </set>
      <set comment="kpoint 53">
       <r>  -25.8482    1.0000 </r>
       <r>  -25.8434    1.0000 </r>
       <r>  -25.8427    1.0000 </r>
       <r>   -3.7242    1.0000 </r>
       <r>    0.4050    1.0000 </r>
       <r>    1.6501    1.0000 </r>
       <r>    1.8004    1.0000 </r>
       <r>    2.6152    1.0000 </r>
       <r>    2.7419    1.0000 </r>
       <r>    2.8039    1.0000 </r>
       <r>    4.3114    1.0000 </r>
       <r>    4.7163    1.0000 </r>
       <r>    6.7356    0.0001 </r>
       <r>    7.5562    0.0000 </r>
       <r>    7.7745    0.0000 </r>
       <r>    7.9878    0.0000 </r>
      </set>
      <set comment="kpoint 54">
       <r>  -25.8488    1.0000 </r>
       <r>  -25.8435    1.0000 </r>
       <r>  -25.8428    1.0000 </r>
       <r>   -3.5864    1.0000 </r>
       <r>    0.2710    1.0000 </r>
       <r>    1.6581    1.0000 </r>
       <r>    1.7587    1.0000 </r>
       <r>    2.4998    1.0000 </r>
       <r>    2.7330    1.0000 </r>
       <r>    2.7692    1.0000 </r>
       <r>    4.3066    1.0000 </r>
       <r>    4.6517    1.0000 </r>
       <r>    6.8164    0.0000 </r>
       <r>    7.5152    0.0000 </r>
       <r>    7.7391    0.0000 </r>
       <r>    8.0410    0.0000 </r>
      </set>
      <set comment="kpoint 55">
       <r>  -25.8459    1.0000 </r>
       <r>  -25.8433    1.0000 </r>
       <r>  -25.8429    1.0000 </r>
       <r>   -4.1252    1.0000 </r>
       <r>    0.7336    1.0000 </r>
       <r>    1.8422    1.0000 </r>
       <r>    1.9554    1.0000 </r>
       <r>    2.5748    1.0000 </r>
       <r>    2.7426    1.0000 </r>
       <r>    3.5294    1.0000 </r>
       <r>    4.3894    1.0000 </r>
       <r>    4.7698    1.0000 </r>
       <r>    6.5609    1.0000 </r>
       <r>    6.8725    0.0000 </r>
       <r>    7.3865    0.0000 </r>
       <r>    8.4540    0.0000 </r>
      </set>
      <set comment="kpoint 56">
       <r>  -25.8469    1.0000 </r>
       <r>  -25.8436    1.0000 </r>
       <r>  -25.8430    1.0000 </r>
       <r>   -3.9206    1.0000 </r>
       <r>    0.5746    1.0000 </r>
       <r>    1.7838    1.0000 </r>
       <r>    1.9609    1.0000 </r>
       <r>    2.6149    1.0000 </r>
       <r>    2.7717    1.0000 </r>
       <r>    3.1671    1.0000 </r>
       <r>    4.1357    1.0000 </r>
       <r>    4.6539    1.0000 </r>
       <r>    6.7417    0.0000 </r>
       <r>    7.1178    0.0000 </r>
       <r>    7.4589    0.0000 </r>
       <r>    8.4137    0.0000 </r>
      </set>
      <set comment="kpoint 57">
       <r>  -25.8478    1.0000 </r>
       <r>  -25.8439    1.0000 </r>
       <r>  -25.8430    1.0000 </r>
       <r>   -3.7184    1.0000 </r>
       <r>    0.4654    1.0000 </r>
       <r>    1.7080    1.0000 </r>
       <r>    1.9274    1.0000 </r>
       <r>    2.6202    1.0000 </r>
       <r>    2.7487    1.0000 </r>
       <r>    2.8858    1.0000 </r>
       <r>    4.0129    1.0000 </r>
       <r>    4.5546    1.0000 </r>
       <r>    6.7412    0.0000 </r>
       <r>    7.4069    0.0000 </r>
       <r>    7.8087    0.0000 </r>
       <r>    8.0314    0.0000 </r>
      </set>
      <set comment="kpoint 58">
       <r>  -25.8483    1.0000 </r>
       <r>  -25.8442    1.0000 </r>
       <r>  -25.8430    1.0000 </r>
       <r>   -3.5725    1.0000 </r>
       <r>    0.4078    1.0000 </r>
       <r>    1.6392    1.0000 </r>
       <r>    1.8787    1.0000 </r>
       <r>    2.4710    1.0000 </r>
       <r>    2.7515    1.0000 </r>
       <r>    2.8385    1.0000 </r>
       <r>    3.9442    1.0000 </r>
       <r>    4.5134    1.0000 </r>
       <r>    6.7978    0.0000 </r>
       <r>    7.5248    0.0000 </r>
       <r>    7.7144    0.0000 </r>
       <r>    8.1598    0.0000 </r>
      </set>
      <set comment="kpoint 59">
       <r>  -25.8484    1.0000 </r>
       <r>  -25.8444    1.0000 </r>
       <r>  -25.8430    1.0000 </r>
       <r>   -3.5308    1.0000 </r>
       <r>    0.3976    1.0000 </r>
       <r>    1.6190    1.0000 </r>
       <r>    1.8296    1.0000 </r>
       <r>    2.4102    1.0000 </r>
       <r>    2.7693    1.0000 </r>
       <r>    2.8461    1.0000 </r>
       <r>    3.8998    1.0000 </r>
       <r>    4.5283    1.0000 </r>
       <r>    6.8970    0.0000 </r>
       <r>    7.3924    0.0000 </r>
       <r>    7.7560    0.0000 </r>
       <r>    8.2810    0.0000 </r>
      </set>
      <set comment="kpoint 60">
       <r>  -25.8480    1.0000 </r>
       <r>  -25.8444    1.0000 </r>
       <r>  -25.8428    1.0000 </r>
       <r>   -3.6088    1.0000 </r>
       <r>    0.4347    1.0000 </r>
       <r>    1.6477    1.0000 </r>
       <r>    1.8121    1.0000 </r>
       <r>    2.4895    1.0000 </r>
       <r>    2.7793    1.0000 </r>
       <r>    2.8785    1.0000 </r>
       <r>    3.8709    1.0000 </r>
       <r>    4.5987    1.0000 </r>
       <r>    6.9145    0.0000 </r>
       <r>    7.5124    0.0000 </r>
       <r>    7.7093    0.0000 </r>
       <r>    8.2478    0.0000 </r>
      </set>
      <set comment="kpoint 61">
       <r>  -25.8474    1.0000 </r>
       <r>  -25.8442    1.0000 </r>
       <r>  -25.8427    1.0000 </r>
       <r>   -3.7786    1.0000 </r>
       <r>    0.5267    1.0000 </r>
       <r>    1.6544    1.0000 </r>
       <r>    1.8654    1.0000 </r>
       <r>    2.6167    1.0000 </r>
       <r>    2.7695    1.0000 </r>
       <r>    3.0073    1.0000 </r>
       <r>    3.8799    1.0000 </r>
       <r>    4.7273    1.0000 </r>
       <r>    6.9234    0.0000 </r>
       <r>    7.3995    0.0000 </r>
       <r>    7.8287    0.0000 </r>
       <r>    8.1958    0.0000 </r>
      </set>
      <set comment="kpoint 62">
       <r>  -25.8465    1.0000 </r>
       <r>  -25.8437    1.0000 </r>
       <r>  -25.8426    1.0000 </r>
       <r>   -3.9873    1.0000 </r>
       <r>    0.6772    1.0000 </r>
       <r>    1.6572    1.0000 </r>
       <r>    1.9127    1.0000 </r>
       <r>    2.6509    1.0000 </r>
       <r>    2.7454    1.0000 </r>
       <r>    3.2659    1.0000 </r>
       <r>    4.0336    1.0000 </r>
       <r>    4.8898    1.0000 </r>
       <r>    6.9152    0.0000 </r>
       <r>    7.1660    0.0000 </r>
       <r>    7.5330    0.0000 </r>
       <r>    8.3002    0.0000 </r>
      </set>
      <set comment="kpoint 63">
       <r>  -25.8473    1.0000 </r>
       <r>  -25.8437    1.0000 </r>
       <r>  -25.8433    1.0000 </r>
       <r>   -3.8456    1.0000 </r>
       <r>    0.4955    1.0000 </r>
       <r>    1.9437    1.0000 </r>
       <r>    2.0670    1.0000 </r>
       <r>    2.5161    1.0000 </r>
       <r>    2.8416    1.0000 </r>
       <r>    3.1208    1.0000 </r>
       <r>    4.1153    1.0000 </r>
       <r>    4.4350    1.0000 </r>
       <r>    6.5200    1.0000 </r>
       <r>    7.0305    0.0000 </r>
       <r>    7.3090    0.0000 </r>
       <r>    8.4092    0.0000 </r>
      </set>
      <set comment="kpoint 64">
       <r>  -25.8479    1.0000 </r>
       <r>  -25.8441    1.0000 </r>
       <r>  -25.8434    1.0000 </r>
       <r>   -3.6807    1.0000 </r>
       <r>    0.4773    1.0000 </r>
       <r>    1.8363    1.0000 </r>
       <r>    2.0743    1.0000 </r>
       <r>    2.5794    1.0000 </r>
       <r>    2.7542    1.0000 </r>
       <r>    2.9187    1.0000 </r>
       <r>    3.8483    1.0000 </r>
       <r>    4.3772    1.0000 </r>
       <r>    6.6065    1.0000 </r>
       <r>    7.1938    0.0000 </r>
       <r>    7.6632    0.0000 </r>
       <r>    8.0645    0.0000 </r>
      </set>
      <set comment="kpoint 65">
       <r>  -25.8482    1.0000 </r>
       <r>  -25.8446    1.0000 </r>
       <r>  -25.8433    1.0000 </r>
       <r>   -3.5504    1.0000 </r>
       <r>    0.5248    1.0000 </r>
       <r>    1.6974    1.0000 </r>
       <r>    2.0357    1.0000 </r>
       <r>    2.4233    1.0000 </r>
       <r>    2.7487    1.0000 </r>
       <r>    2.8956    1.0000 </r>
       <r>    3.6560    1.0000 </r>
       <r>    4.3624    1.0000 </r>
       <r>    6.6623    1.0000 </r>
       <r>    7.4322    0.0000 </r>
       <r>    7.6867    0.0000 </r>
       <r>    8.1005    0.0000 </r>
      </set>
      <set comment="kpoint 66">
       <r>  -25.8480    1.0000 </r>
       <r>  -25.8452    1.0000 </r>
       <r>  -25.8432    1.0000 </r>
       <r>   -3.4896    1.0000 </r>
       <r>    0.5787    1.0000 </r>
       <r>    1.5848    1.0000 </r>
       <r>    1.9598    1.0000 </r>
       <r>    2.2946    1.0000 </r>
       <r>    2.8222    1.0000 </r>
       <r>    2.9116    1.0000 </r>
       <r>    3.5393    1.0000 </r>
       <r>    4.3898    1.0000 </r>
       <r>    6.7852    0.0000 </r>
       <r>    7.4315    0.0000 </r>
       <r>    7.6900    0.0000 </r>
       <r>    8.1535    0.0000 </r>
      </set>
      <set comment="kpoint 67">
       <r>  -25.8477    1.0000 </r>
       <r>  -25.8454    1.0000 </r>
       <r>  -25.8430    1.0000 </r>
       <r>   -3.5159    1.0000 </r>
       <r>    0.5625    1.0000 </r>
       <r>    1.5875    1.0000 </r>
       <r>    1.8738    1.0000 </r>
       <r>    2.3357    1.0000 </r>
       <r>    2.8342    1.0000 </r>
       <r>    2.9625    1.0000 </r>
       <r>    3.5068    1.0000 </r>
       <r>    4.4596    1.0000 </r>
       <r>    6.9472    0.0000 </r>
       <r>    7.3694    0.0000 </r>
       <r>    7.6745    0.0000 </r>
       <r>    8.2090    0.0000 </r>
      </set>
      <set comment="kpoint 68">
       <r>  -25.8475    1.0000 </r>
       <r>  -25.8450    1.0000 </r>
       <r>  -25.8428    1.0000 </r>
       <r>   -3.6220    1.0000 </r>
       <r>    0.5155    1.0000 </r>
       <r>    1.6496    1.0000 </r>
       <r>    1.8349    1.0000 </r>
       <r>    2.4821    1.0000 </r>
       <r>    2.8074    1.0000 </r>
       <r>    2.9984    1.0000 </r>
       <r>    3.5961    1.0000 </r>
       <r>    4.5783    1.0000 </r>
       <r>    6.9925    0.0000 </r>
       <r>    7.4978    0.0000 </r>
       <r>    7.6630    0.0000 </r>
       <r>    8.2150    0.0000 </r>
      </set>
      <set comment="kpoint 69">
       <r>  -25.8485    1.0000 </r>
       <r>  -25.8440    1.0000 </r>
       <r>  -25.8436    1.0000 </r>
       <r>   -3.6211    1.0000 </r>
       <r>    0.4897    1.0000 </r>
       <r>    1.9826    1.0000 </r>
       <r>    2.1879    1.0000 </r>
       <r>    2.4752    1.0000 </r>
       <r>    2.6459    1.0000 </r>
       <r>    2.9533    1.0000 </r>
       <r>    3.8978    1.0000 </r>
       <r>    4.2222    1.0000 </r>
       <r>    6.4110    1.0000 </r>
       <r>    7.0384    0.0000 </r>
       <r>    7.3863    0.0000 </r>
       <r>    8.0907    0.0000 </r>
      </set>
      <set comment="kpoint 70">
       <r>  -25.8486    1.0000 </r>
       <r>  -25.8445    1.0000 </r>
       <r>  -25.8436    1.0000 </r>
       <r>   -3.5243    1.0000 </r>
       <r>    0.5941    1.0000 </r>
       <r>    1.8320    1.0000 </r>
       <r>    2.1751    1.0000 </r>
       <r>    2.3469    1.0000 </r>
       <r>    2.6444    1.0000 </r>
       <r>    2.9509    1.0000 </r>
       <r>    3.6083    1.0000 </r>
       <r>    4.2338    1.0000 </r>
       <r>    6.4923    1.0000 </r>
       <r>    7.1465    0.0000 </r>
       <r>    7.7578    0.0000 </r>
       <r>    7.9813    0.0000 </r>
      </set>
      <set comment="kpoint 71">
       <r>  -25.8483    1.0000 </r>
       <r>  -25.8452    1.0000 </r>
       <r>  -25.8435    1.0000 </r>
       <r>   -3.4688    1.0000 </r>
       <r>    0.7099    1.0000 </r>
       <r>    1.6502    1.0000 </r>
       <r>    2.1073    1.0000 </r>
       <r>    2.1764    1.0000 </r>
       <r>    2.8216    1.0000 </r>
       <r>    2.9328    1.0000 </r>
       <r>    3.3828    1.0000 </r>
       <r>    4.2748    1.0000 </r>
       <r>    6.5991    1.0000 </r>
       <r>    7.4128    0.0000 </r>
       <r>    7.6198    0.0000 </r>
       <r>    7.9636    0.0000 </r>
      </set>
      <set comment="kpoint 72">
       <r>  -25.8477    1.0000 </r>
       <r>  -25.8457    1.0000 </r>
       <r>  -25.8433    1.0000 </r>
       <r>   -3.4658    1.0000 </r>
       <r>    0.7063    1.0000 </r>
       <r>    1.5430    1.0000 </r>
       <r>    1.9904    1.0000 </r>
       <r>    2.1982    1.0000 </r>
       <r>    2.8840    1.0000 </r>
       <r>    2.9829    1.0000 </r>
       <r>    3.3082    1.0000 </r>
       <r>    4.3474    1.0000 </r>
       <r>    6.7759    0.0000 </r>
       <r>    7.3914    0.0000 </r>
       <r>    7.7207    0.0000 </r>
       <r>    8.0177    0.0000 </r>
      </set>
      <set comment="kpoint 73">
       <r>  -25.8492    1.0000 </r>
       <r>  -25.8441    1.0000 </r>
       <r>  -25.8438    1.0000 </r>
       <r>   -3.5030    1.0000 </r>
       <r>    0.6339    1.0000 </r>
       <r>    1.9909    1.0000 </r>
       <r>    2.1627    1.0000 </r>
       <r>    2.3126    1.0000 </r>
       <r>    2.5050    1.0000 </r>
       <r>    3.0151    1.0000 </r>
       <r>    3.7630    1.0000 </r>
       <r>    4.1311    1.0000 </r>
       <r>    6.3483    1.0000 </r>
       <r>    6.9678    0.0000 </r>
       <r>    7.4376    0.0000 </r>
       <r>    7.9845    0.0000 </r>
      </set>
      <set comment="kpoint 74">
       <r>  -25.8489    1.0000 </r>
       <r>  -25.8446    1.0000 </r>
       <r>  -25.8437    1.0000 </r>
       <r>   -3.4726    1.0000 </r>
       <r>    0.7150    1.0000 </r>
       <r>    1.8249    1.0000 </r>
       <r>    2.0904    1.0000 </r>
       <r>    2.2595    1.0000 </r>
       <r>    2.6542    1.0000 </r>
       <r>    2.9826    1.0000 </r>
       <r>    3.5068    1.0000 </r>
       <r>    4.1930    1.0000 </r>
       <r>    6.4511    1.0000 </r>
       <r>    7.1112    0.0000 </r>
       <r>    7.7798    0.0000 </r>
       <r>    7.9392    0.0000 </r>
      </set>
      <set comment="kpoint 75">
       <r>  -25.8474    1.0000 </r>
       <r>  -25.8442    1.0000 </r>
       <r>  -25.8430    1.0000 </r>
       <r>   -3.7458    1.0000 </r>
       <r>    0.5052    1.0000 </r>
       <r>    1.7366    1.0000 </r>
       <r>    1.9773    1.0000 </r>
       <r>    2.6291    1.0000 </r>
       <r>    2.7468    1.0000 </r>
       <r>    3.0180    1.0000 </r>
       <r>    3.7886    1.0000 </r>
       <r>    4.5647    1.0000 </r>
       <r>    6.8734    0.0000 </r>
       <r>    7.1784    0.0000 </r>
       <r>    7.7825    0.0000 </r>
       <r>    8.1399    0.0000 </r>
      </set>
      <set comment="kpoint 76">
       <r>  -25.8478    1.0000 </r>
       <r>  -25.8448    1.0000 </r>
       <r>  -25.8431    1.0000 </r>
       <r>   -3.5935    1.0000 </r>
       <r>    0.5106    1.0000 </r>
       <r>    1.6552    1.0000 </r>
       <r>    1.9720    1.0000 </r>
       <r>    2.4956    1.0000 </r>
       <r>    2.7488    1.0000 </r>
       <r>    2.9394    1.0000 </r>
       <r>    3.6127    1.0000 </r>
       <r>    4.4787    1.0000 </r>
       <r>    6.8995    0.0000 </r>
       <r>    7.3432    0.0000 </r>
       <r>    7.6607    0.0000 </r>
       <r>    8.1766    0.0000 </r>
      </set>
      <set comment="kpoint 77">
       <r>  -25.8480    1.0000 </r>
       <r>  -25.8451    1.0000 </r>
       <r>  -25.8432    1.0000 </r>
       <r>   -3.5042    1.0000 </r>
       <r>    0.5511    1.0000 </r>
       <r>    1.5701    1.0000 </r>
       <r>    1.9730    1.0000 </r>
       <r>    2.3453    1.0000 </r>
       <r>    2.7737    1.0000 </r>
       <r>    2.9200    1.0000 </r>
       <r>    3.5394    1.0000 </r>
       <r>    4.4381    1.0000 </r>
       <r>    6.9482    0.0000 </r>
       <r>    7.3189    0.0000 </r>
       <r>    7.6045    0.0000 </r>
       <r>    8.1601    0.0000 </r>
      </set>
      <set comment="kpoint 78">
       <r>  -25.8481    1.0000 </r>
       <r>  -25.8447    1.0000 </r>
       <r>  -25.8435    1.0000 </r>
[...]
       <r>    7.1544    0.0000 </r>
       <r>    7.7049    0.0000 </r>
       <r>    8.0602    0.0000 </r>
      </set>
      <set comment="kpoint 79">
       <r>  -25.8480    1.0000 </r>
       <r>  -25.8452    1.0000 </r>
       <r>  -25.8435    1.0000 </r>
       <r>   -3.4827    1.0000 </r>
       <r>    0.6763    1.0000 </r>
       <r>    1.5960    1.0000 </r>
       <r>    2.1296    1.0000 </r>
       <r>    2.3001    1.0000 </r>
       <r>    2.7484    1.0000 </r>
       <r>    2.9340    1.0000 </r>
       <r>    3.2921    1.0000 </r>
       <r>    4.3617    1.0000 </r>
       <r>    6.8314    0.0000 </r>
       <r>    7.2989    0.0000 </r>
       <r>    7.4502    0.0000 </r>
       <r>    7.9814    0.0000 </r>
      </set>
      <set comment="kpoint 80">
       <r>  -25.8477    1.0000 </r>
       <r>  -25.8456    1.0000 </r>
       <r>  -25.8435    1.0000 </r>
       <r>   -3.4605    1.0000 </r>
       <r>    0.7323    1.0000 </r>
       <r>    1.5128    1.0000 </r>
       <r>    2.1023    1.0000 </r>
       <r>    2.2219    1.0000 </r>
       <r>    2.8165    1.0000 </r>
       <r>    2.9692    1.0000 </r>
       <r>    3.1836    1.0000 </r>
       <r>    4.3803    1.0000 </r>
       <r>    6.9644    0.0000 </r>
       <r>    7.2592    0.0000 </r>
       <r>    7.4828    0.0000 </r>
       <r>    7.8851    0.0000 </r>
      </set>
      <set comment="kpoint 81">
       <r>  -25.8477    1.0000 </r>
       <r>  -25.8455    1.0000 </r>
       <r>  -25.8433    1.0000 </r>
       <r>   -3.5003    1.0000 </r>
       <r>    0.6344    1.0000 </r>
       <r>    1.5628    1.0000 </r>
       <r>    2.0391    1.0000 </r>
       <r>    2.3179    1.0000 </r>
       <r>    2.7946    1.0000 </r>
       <r>    2.9777    1.0000 </r>
       <r>    3.3105    1.0000 </r>
       <r>    4.4146    1.0000 </r>
       <r>    7.0254    0.0000 </r>
       <r>    7.3100    0.0000 </r>
       <r>    7.4011    0.0000 </r>
       <r>    8.1108    0.0000 </r>
      </set>
      <set comment="kpoint 82">
       <r>  -25.8485    1.0000 </r>
       <r>  -25.8449    1.0000 </r>
       <r>  -25.8438    1.0000 </r>
       <r>   -3.4705    1.0000 </r>
       <r>    0.7284    1.0000 </r>
       <r>    1.7021    1.0000 </r>
       <r>    2.1175    1.0000 </r>
       <r>    2.3531    1.0000 </r>
       <r>    2.6502    1.0000 </r>
       <r>    2.9430    1.0000 </r>
       <r>    3.3113    1.0000 </r>
       <r>    4.2900    1.0000 </r>
       <r>    6.6387    1.0000 </r>
       <r>    7.0815    0.0000 </r>
       <r>    7.6681    0.0000 </r>
       <r>    7.8970    0.0000 </r>
      </set>
      <set comment="kpoint 83">
       <r>  -25.8480    1.0000 </r>
       <r>  -25.8454    1.0000 </r>
       <r>  -25.8437    1.0000 </r>
       <r>   -3.4484    1.0000 </r>
       <r>    0.8112    1.0000 </r>
       <r>    1.5638    1.0000 </r>
       <r>    2.0832    1.0000 </r>
       <r>    2.2979    1.0000 </r>
       <r>    2.7891    1.0000 </r>
       <r>    2.9129    1.0000 </r>
       <r>    3.1210    1.0000 </r>
       <r>    4.3387    1.0000 </r>
       <r>    6.7976    0.0000 </r>
       <r>    7.2186    0.0000 </r>
       <r>    7.5286    0.0000 </r>
       <r>    7.7538    0.0000 </r>
      </set>
      <set comment="kpoint 84">
       <r>  -25.8477    1.0000 </r>
       <r>  -25.8457    1.0000 </r>
       <r>  -25.8437    1.0000 </r>
       <r>   -3.4459    1.0000 </r>
       <r>    0.8275    1.0000 </r>
       <r>    1.5081    1.0000 </r>
       <r>    2.0907    1.0000 </r>
       <r>    2.3482    1.0000 </r>
       <r>    2.7635    1.0000 </r>
       <r>    2.9232    1.0000 </r>
       <r>    3.0246    1.0000 </r>
       <r>    4.3757    1.0000 </r>
       <r>    7.0453    0.0000 </r>
       <r>    7.1927    0.0000 </r>
       <r>    7.3135    0.0000 </r>
       <r>    7.7399    0.0000 </r>
      </set>
     </set>
    </set>
   </array>
  </eigenvalues>
  <separator name="orbital magnetization" >
   <v name="MAGDIPOLOUT">      0.00000000      0.00000000      0.00000000</v>
  </separator>
  <dos>
   <i name="efermi">      6.70895987 </i>
   <total>
    <array>
     <dimension dim="1">gridpoints</dimension>
     <dimension dim="2">spin</dimension>
     <field>energy</field>
     <field>total</field>
     <field>integrated</field>
     <set>
      <set comment="spin 1">
       <r>   -27.5846     0.0000     0.0000 </r>
       <r>   -27.4573     0.0000     0.0000 </r>
       <r>   -27.3301     0.0000     0.0000 </r>
       <r>   -27.2028     0.0000     0.0000 </r>
       <r>   -27.0756     0.0000     0.0000 </r>
       <r>   -26.9484     0.0000     0.0000 </r>
       <r>   -26.8211     0.0000     0.0000 </r>
       <r>   -26.6939     0.0000     0.0000 </r>
       <r>   -26.5666     0.0000     0.0000 </r>
       <r>   -26.4394     0.0000     0.0000 </r>
       <r>   -26.3121     0.0000     0.0000 </r>
       <r>   -26.1849     0.0000     0.0000 </r>
       <r>   -26.0577     0.0000     0.0000 </r>
       <r>   -25.9304     0.0000     0.0000 </r>
       <r>   -25.8032    47.1544     6.0000 </r>
       <r>   -25.6759     0.0000     6.0000 </r>
       <r>   -25.5487     0.0000     6.0000 </r>
       <r>   -25.4215     0.0000     6.0000 </r>
       <r>   -25.2942     0.0000     6.0000 </r>
       <r>   -25.1670     0.0000     6.0000 </r>
       <r>   -25.0397     0.0000     6.0000 </r>
       <r>   -24.9125     0.0000     6.0000 </r>
       <r>   -24.7852     0.0000     6.0000 </r>
       <r>   -24.6580     0.0000     6.0000 </r>
       <r>   -24.5308     0.0000     6.0000 </r>
       <r>   -24.4035     0.0000     6.0000 </r>
       <r>   -24.2763     0.0000     6.0000 </r>
       <r>   -24.1490     0.0000     6.0000 </r>
       <r>   -24.0218     0.0000     6.0000 </r>
       <r>   -23.8946     0.0000     6.0000 </r>
       <r>   -23.7673     0.0000     6.0000 </r>
       <r>   -23.6401     0.0000     6.0000 </r>
       <r>   -23.5128     0.0000     6.0000 </r>
       <r>   -23.3856     0.0000     6.0000 </r>
       <r>   -23.2584     0.0000     6.0000 </r>
       <r>   -23.1311     0.0000     6.0000 </r>
       <r>   -23.0039     0.0000     6.0000 </r>
       <r>   -22.8766     0.0000     6.0000 </r>
       <r>   -22.7494     0.0000     6.0000 </r>
       <r>   -22.6221     0.0000     6.0000 </r>
       <r>   -22.4949     0.0000     6.0000 </r>
       <r>   -22.3677     0.0000     6.0000 </r>
       <r>   -22.2404     0.0000     6.0000 </r>
       <r>   -22.1132     0.0000     6.0000 </r>
       <r>   -21.9859     0.0000     6.0000 </r>
       <r>   -21.8587     0.0000     6.0000 </r>
       <r>   -21.7315     0.0000     6.0000 </r>
       <r>   -21.6042     0.0000     6.0000 </r>
       <r>   -21.4770     0.0000     6.0000 </r>
       <r>   -21.3497     0.0000     6.0000 </r>
       <r>   -21.2225     0.0000     6.0000 </r>
       <r>   -21.0952     0.0000     6.0000 </r>
       <r>   -20.9680     0.0000     6.0000 </r>
       <r>   -20.8408     0.0000     6.0000 </r>
       <r>   -20.7135     0.0000     6.0000 </r>
       <r>   -20.5863     0.0000     6.0000 </r>
       <r>   -20.4590     0.0000     6.0000 </r>
       <r>   -20.3318     0.0000     6.0000 </r>
       <r>   -20.2046     0.0000     6.0000 </r>
       <r>   -20.0773     0.0000     6.0000 </r>
       <r>   -19.9501     0.0000     6.0000 </r>
       <r>   -19.8228     0.0000     6.0000 </r>
       <r>   -19.6956     0.0000     6.0000 </r>
       <r>   -19.5683     0.0000     6.0000 </r>
       <r>   -19.4411     0.0000     6.0000 </r>
       <r>   -19.3139     0.0000     6.0000 </r>
       <r>   -19.1866     0.0000     6.0000 </r>
       <r>   -19.0594     0.0000     6.0000 </r>
       <r>   -18.9321     0.0000     6.0000 </r>
       <r>   -18.8049     0.0000     6.0000 </r>
       <r>   -18.6777     0.0000     6.0000 </r>
       <r>   -18.5504     0.0000     6.0000 </r>
       <r>   -18.4232     0.0000     6.0000 </r>
       <r>   -18.2959     0.0000     6.0000 </r>
       <r>   -18.1687     0.0000     6.0000 </r>
       <r>   -18.0414     0.0000     6.0000 </r>
       <r>   -17.9142     0.0000     6.0000 </r>
       <r>   -17.7870     0.0000     6.0000 </r>
       <r>   -17.6597     0.0000     6.0000 </r>
       <r>   -17.5325     0.0000     6.0000 </r>
       <r>   -17.4052     0.0000     6.0000 </r>
       <r>   -17.2780     0.0000     6.0000 </r>
       <r>   -17.1508     0.0000     6.0000 </r>
       <r>   -17.0235     0.0000     6.0000 </r>
       <r>   -16.8963     0.0000     6.0000 </r>
       <r>   -16.7690     0.0000     6.0000 </r>
       <r>   -16.6418     0.0000     6.0000 </r>
       <r>   -16.5145     0.0000     6.0000 </r>
       <r>   -16.3873     0.0000     6.0000 </r>
       <r>   -16.2601     0.0000     6.0000 </r>
       <r>   -16.1328     0.0000     6.0000 </r>
       <r>   -16.0056     0.0000     6.0000 </r>
       <r>   -15.8783     0.0000     6.0000 </r>
       <r>   -15.7511     0.0000     6.0000 </r>
       <r>   -15.6239     0.0000     6.0000 </r>
       <r>   -15.4966     0.0000     6.0000 </r>
       <r>   -15.3694     0.0000     6.0000 </r>
       <r>   -15.2421     0.0000     6.0000 </r>
       <r>   -15.1149     0.0000     6.0000 </r>
       <r>   -14.9876     0.0000     6.0000 </r>
       <r>   -14.8604     0.0000     6.0000 </r>
       <r>   -14.7332     0.0000     6.0000 </r>
       <r>   -14.6059     0.0000     6.0000 </r>
       <r>   -14.4787     0.0000     6.0000 </r>
       <r>   -14.3514     0.0000     6.0000 </r>
       <r>   -14.2242     0.0000     6.0000 </r>
       <r>   -14.0970     0.0000     6.0000 </r>
       <r>   -13.9697     0.0000     6.0000 </r>
       <r>   -13.8425     0.0000     6.0000 </r>
       <r>   -13.7152     0.0000     6.0000 </r>
       <r>   -13.5880     0.0000     6.0000 </r>
       <r>   -13.4607     0.0000     6.0000 </r>
       <r>   -13.3335     0.0000     6.0000 </r>
       <r>   -13.2063     0.0000     6.0000 </r>
       <r>   -13.0790     0.0000     6.0000 </r>
       <r>   -12.9518     0.0000     6.0000 </r>
       <r>   -12.8245     0.0000     6.0000 </r>
       <r>   -12.6973     0.0000     6.0000 </r>
       <r>   -12.5701     0.0000     6.0000 </r>
       <r>   -12.4428     0.0000     6.0000 </r>
       <r>   -12.3156     0.0000     6.0000 </r>
       <r>   -12.1883     0.0000     6.0000 </r>
       <r>   -12.0611     0.0000     6.0000 </r>
       <r>   -11.9339     0.0000     6.0000 </r>
       <r>   -11.8066     0.0000     6.0000 </r>
       <r>   -11.6794     0.0000     6.0000 </r>
       <r>   -11.5521     0.0000     6.0000 </r>
       <r>   -11.4249     0.0000     6.0000 </r>
       <r>   -11.2976     0.0000     6.0000 </r>
       <r>   -11.1704     0.0000     6.0000 </r>
       <r>   -11.0432     0.0000     6.0000 </r>
       <r>   -10.9159     0.0000     6.0000 </r>
       <r>   -10.7887     0.0000     6.0000 </r>
       <r>   -10.6614     0.0000     6.0000 </r>
       <r>   -10.5342     0.0000     6.0000 </r>
       <r>   -10.4070     0.0000     6.0000 </r>
       <r>   -10.2797     0.0000     6.0000 </r>
       <r>   -10.1525     0.0000     6.0000 </r>
       <r>   -10.0252     0.0000     6.0000 </r>
       <r>    -9.8980     0.0000     6.0000 </r>
       <r>    -9.7707     0.0000     6.0000 </r>
       <r>    -9.6435     0.0000     6.0000 </r>
       <r>    -9.5163     0.0000     6.0000 </r>
       <r>    -9.3890     0.0000     6.0000 </r>
       <r>    -9.2618     0.0000     6.0000 </r>
       <r>    -9.1345     0.0000     6.0000 </r>
       <r>    -9.0073     0.0000     6.0000 </r>
       <r>    -8.8801     0.0000     6.0000 </r>
       <r>    -8.7528     0.0000     6.0000 </r>
       <r>    -8.6256     0.0000     6.0000 </r>
       <r>    -8.4983     0.0000     6.0000 </r>
       <r>    -8.3711     0.0000     6.0000 </r>
       <r>    -8.2438     0.0000     6.0000 </r>
       <r>    -8.1166     0.0000     6.0000 </r>
       <r>    -7.9894     0.0000     6.0000 </r>
       <r>    -7.8621     0.0000     6.0000 </r>
       <r>    -7.7349     0.0000     6.0000 </r>
       <r>    -7.6076     0.0000     6.0000 </r>
       <r>    -7.4804     0.0000     6.0000 </r>
       <r>    -7.3532     0.0000     6.0000 </r>
       <r>    -7.2259     0.0000     6.0000 </r>
       <r>    -7.0987     0.0000     6.0000 </r>
       <r>    -6.9714     0.0000     6.0000 </r>
       <r>    -6.8442     0.0000     6.0000 </r>
       <r>    -6.7169     0.0000     6.0000 </r>
       <r>    -6.5897     0.0000     6.0000 </r>
       <r>    -6.4625     0.0000     6.0000 </r>
       <r>    -6.3352     0.0000     6.0000 </r>
       <r>    -6.2080     0.0000     6.0000 </r>
       <r>    -6.0807     0.0000     6.0000 </r>
       <r>    -5.9535     0.0000     6.0000 </r>
       <r>    -5.8263     0.0000     6.0000 </r>
       <r>    -5.6990     0.0000     6.0000 </r>
       <r>    -5.5718     0.0000     6.0000 </r>
       <r>    -5.4445     0.0000     6.0000 </r>
       <r>    -5.3173     0.0000     6.0000 </r>
       <r>    -5.1900     0.0000     6.0000 </r>
       <r>    -5.0628     0.0000     6.0000 </r>
       <r>    -4.9356     0.0000     6.0000 </r>
       <r>    -4.8083     0.0000     6.0000 </r>
       <r>    -4.6811     0.0069     6.0009 </r>
       <r>    -4.5538     0.1242     6.0240 </r>
       <r>    -4.4266     0.0999     6.0591 </r>
       <r>    -4.2994     0.1875     6.1267 </r>
       <r>    -4.1721     0.4965     6.2170 </r>
       <r>    -4.0449     0.3438     6.3014 </r>
       <r>    -3.9176     0.9720     6.4541 </r>
       <r>    -3.7904     0.7872     6.5890 </r>
       <r>    -3.6631     1.3831     6.8578 </r>
       <r>    -3.5359     2.8842     7.3674 </r>
       <r>    -3.4087     2.1463     8.0000 </r>
       <r>    -3.2814     0.0000     8.0000 </r>
       <r>    -3.1542     0.0000     8.0000 </r>
       <r>    -3.0269     0.0000     8.0000 </r>
       <r>    -2.8997     0.0000     8.0000 </r>
       <r>    -2.7725     0.0000     8.0000 </r>
       <r>    -2.6452     0.0000     8.0000 </r>
       <r>    -2.5180     0.0000     8.0000 </r>
       <r>    -2.3907     0.0000     8.0000 </r>
       <r>    -2.2635     0.0000     8.0000 </r>
       <r>    -2.1362     0.0000     8.0000 </r>
       <r>    -2.0090     0.0000     8.0000 </r>
       <r>    -1.8818     0.0000     8.0000 </r>
       <r>    -1.7545     0.0000     8.0000 </r>
       <r>    -1.6273     0.0000     8.0000 </r>
       <r>    -1.5000     0.0000     8.0000 </r>
       <r>    -1.3728     0.0000     8.0000 </r>
       <r>    -1.2456     0.0000     8.0000 </r>
       <r>    -1.1183     0.0000     8.0000 </r>
       <r>    -0.9911     0.0000     8.0000 </r>
       <r>    -0.8638     0.0000     8.0000 </r>
       <r>    -0.7366     0.0000     8.0000 </r>
       <r>    -0.6094     0.0000     8.0000 </r>
       <r>    -0.4821     0.0000     8.0000 </r>
       <r>    -0.3549     0.0000     8.0000 </r>
       <r>    -0.2276     0.0000     8.0000 </r>
       <r>    -0.1004     0.0000     8.0000 </r>
       <r>     0.0269     0.0000     8.0000 </r>
       <r>     0.1541     0.0016     8.0002 </r>
       <r>     0.2813     0.5082     8.0938 </r>
       <r>     0.4086     1.1487     8.2845 </r>
       <r>     0.5358     3.6737     8.8971 </r>
       <r>     0.6631     1.8221     9.3934 </r>
       <r>     0.7903     1.3801     9.7250 </r>
       <r>     0.9175     0.5187     9.8357 </r>
       <r>     1.0448     0.0000     9.8680 </r>
       <r>     1.1720     0.2144     9.9244 </r>
       <r>     1.2993     0.1717     9.9463 </r>
       <r>     1.4265     0.2099     9.9730 </r>
       <r>     1.5538     0.7964    10.0768 </r>
       <r>     1.6810     6.0829    11.1154 </r>
       <r>     1.8082     4.3027    12.0723 </r>
       <r>     1.9355     3.9273    12.9157 </r>
       <r>     2.0627     1.6863    13.4499 </r>
       <r>     2.1900     2.4720    14.0305 </r>
       <r>     2.3172     1.6427    14.3674 </r>
       <r>     2.4444     1.2134    14.7497 </r>
       <r>     2.5717     2.8647    15.3258 </r>
       <r>     2.6989     5.2765    16.4028 </r>
       <r>     2.8262     8.8310    18.0513 </r>
       <r>     2.9534     6.0846    19.0947 </r>
       <r>     3.0807     1.7038    19.5805 </r>
       <r>     3.2079     1.0432    19.7604 </r>
       <r>     3.3351     1.3564    19.9368 </r>
       <r>     3.4624     0.4302    20.0156 </r>
       <r>     3.5896     1.1497    20.3111 </r>
       <r>     3.7169     0.8841    20.5504 </r>
       <r>     3.8441     0.9868    20.7218 </r>
       <r>     3.9713     1.4540    21.0325 </r>
       <r>     4.0986     0.4467    21.1338 </r>
       <r>     4.2258     1.1160    21.4829 </r>
       <r>     4.3531     2.5268    21.9137 </r>
       <r>     4.4803     2.3503    22.5139 </r>
       <r>     4.6076     2.5386    22.9420 </r>
       <r>     4.7348     1.7587    23.3253 </r>
       <r>     4.8620     1.5707    23.6218 </r>
       <r>     4.9893     0.5702    23.7175 </r>
       <r>     5.1165     0.3081    23.8408 </r>
       <r>     5.2438     0.4293    23.9254 </r>
       <r>     5.3710     0.3714    23.9726 </r>
       <r>     5.4982     0.2003    23.9982 </r>
       <r>     5.6255     0.0466    24.0068 </r>
       <r>     5.7527     0.0085    24.0093 </r>
       <r>     5.8800     0.1427    24.0318 </r>
       <r>     6.0072     0.1717    24.0537 </r>
       <r>     6.1345     0.0012    24.0666 </r>
       <r>     6.2617     0.5062    24.1527 </r>
       <r>     6.3889     0.6868    24.3031 </r>
       <r>     6.5162     0.9341    24.4875 </r>
       <r>     6.6434     1.9497    24.8316 </r>
       <r>     6.7707     1.9352    25.2194 </r>
       <r>     6.8979     1.8931    25.6510 </r>
       <r>     7.0251     2.1379    26.1300 </r>
       <r>     7.1524     1.8789    26.5504 </r>
       <r>     7.2796     1.1080    26.8565 </r>
       <r>     7.4069     3.6507    27.5697 </r>
       <r>     7.5341     3.6847    28.4497 </r>
       <r>     7.6614     2.2580    29.0301 </r>
       <r>     7.7886     3.8655    29.8938 </r>
       <r>     7.9158     1.3757    30.2397 </r>
       <r>     8.0431     2.6562    30.6320 </r>
       <r>     8.1703     3.2398    31.1724 </r>
       <r>     8.2976     1.6890    31.6086 </r>
       <r>     8.4248     1.3722    31.8214 </r>
       <r>     8.5520     0.7571    31.9616 </r>
       <r>     8.6793     0.2289    31.9927 </r>
       <r>     8.8065     0.0000    31.9927 </r>
       <r>     8.9338     0.0000    32.0000 </r>
       <r>     9.0610     0.0000    32.0000 </r>
       <r>     9.1883     0.0000    32.0000 </r>
       <r>     9.3155     0.0000    32.0000 </r>
       <r>     9.4427     0.0000    32.0000 </r>
       <r>     9.5700     0.0000    32.0000 </r>
       <r>     9.6972     0.0000    32.0000 </r>
       <r>     9.8245     0.0000    32.0000 </r>
       <r>     9.9517     0.0000    32.0000 </r>
       <r>    10.0789     0.0000    32.0000 </r>
       <r>    10.2062     0.0000    32.0000 </r>
       <r>    10.3334     0.0000    32.0000 </r>
       <r>    10.4607     0.0000    32.0000 </r>
       <r>    10.5879     0.0000    32.0000 </r>
      </set>
     </set>
    </array>
   </total>
  </dos>
 </calculation>
 <structure name="finalpos" >
  <crystal>
   <varray name="basis" >
    <v>       0.00000000       3.37743073       3.37743073 </v>
    <v>       3.37743073       0.00000000       3.37743073 </v>
    <v>       3.37743073       3.37743073       0.00000000 </v>
   </varray>
   <i name="volume">     77.05296348 </i>
   <varray name="rec_basis" >
    <v>      -0.14804153       0.14804153       0.14804153 </v>
    <v>       0.14804153      -0.14804153       0.14804153 </v>
    <v>       0.14804153       0.14804153      -0.14804153 </v>
   </varray>
  </crystal>
  <varray name="positions" >
   <v>       0.75000000       0.75000000       0.75000000 </v>
   <v>       0.25000000       0.25000000       0.25000000 </v>
   <v>       0.00000000       0.00000000       0.00000000 </v>
  </varray>
 </structure>
</modeling>
