unknown system
           1
     0.000000    3.377431    3.377431
     3.377431    0.000000    3.377431
     3.377431    3.377431    0.000000
   Hf   Sb   Pt
   1   1   1
Direct configuration=     1
   0.75000000  0.75000000  0.75000000
   0.25000000  0.25000000  0.25000000
   0.00000000  0.00000000  0.00000000
