unknown system                          
            1
    -1.584324    1.584324    1.584324
     1.584324   -1.584324    1.584324
     1.584324    1.584324   -1.584324
   Ti
     1
Direct configuration=     1
   0.00000000  0.00000000  0.00000000
