 ----------------------------------------------------
    OOO  PPPP  EEEEE N   N M   M PPPP
   O   O P   P E     NN  N MM MM P   P
   O   O PPPP  EEEEE N N N M M M PPPP   -- VERSION
   O   O P     E     N  NN M   M P
    OOO  P     EEEEE N   N M   M P
 ----------------------------------------------------
 running  128 mpi-ranks, with    1 threads/rank
 distrk:  each k-point on   32 cores,    4 groups
 distr:  one band on   16 cores,    2 groups
 vasp.6.3.2 27Jun22 (build Jun 30 2023 15:13:53) complex                         
 POSCAR found type information on POSCAR CuO 
 POSCAR found :  2 types and       2 ions
 Reading from existing POTCAR
 scaLAPACK will be used
 Reading from existing POTCAR
 LDA part: xc-table for Pade appr. of Perdew
 -----------------------------------------------------------------------------
|                                                                             |
|           W    W    AA    RRRRR   N    N  II  N    N   GGGG   !!!           |
|           W    W   A  A   R    R  NN   N  II  NN   N  G    G  !!!           |
|           W    W  A    A  R    R  N N  N  II  N N  N  G       !!!           |
|           W WW W  AAAAAA  RRRRR   N  N N  II  N  N N  G  GGG   !            |
|           WW  WW  A    A  R   R   N   NN  II  N   NN  G    G                |
|           W    W  A    A  R    R  N    N  II  N    N   GGGG   !!!           |
|                                                                             |
|     The requested file  could not be found or opened for reading            |
|     k-point information. Automatic k-point generation is used as a          |
|     fallback, which may lead to unwanted results.                           |
|                                                                             |
 -----------------------------------------------------------------------------

 INCAR ok, starting setup
 POSCAR ok, starting setup
 FFT: planning ... GRIDC
 FFT: planning ... GRID_SOFT
 FFT: planning ... GRID
 WAVECAR not read
 entering main loop
       N       E                     dE             d eps       ncg     rms          rms(c)
DAV:   1     0.947332600842E+02    0.94733E+02   -0.92806E+03 13856   0.181E+03
DAV:   2    -0.323920257374E+00   -0.95057E+02   -0.86216E+02 13448   0.295E+02
DAV:   3    -0.524226254654E+01   -0.49183E+01   -0.48046E+01 15352   0.670E+01
DAV:   4    -0.528760853357E+01   -0.45346E-01   -0.45339E-01 14472   0.620E+00
DAV:   5    -0.528814766802E+01   -0.53913E-03   -0.53920E-03 16072   0.705E-01    0.272E+01
DAV:   6    -0.916924076336E+01   -0.38811E+01   -0.16320E+01 16184   0.125E+02    0.107E+01
DAV:   7    -0.810709314453E+01    0.10621E+01   -0.47601E+00 15624   0.922E+01    0.150E+00
DAV:   8    -0.814006639625E+01   -0.32973E-01   -0.33826E-01 13992   0.556E+00    0.709E-01
DAV:   9    -0.813800705376E+01    0.20593E-02   -0.72684E-03 18024   0.308E+00    0.378E-01
DAV:  10    -0.813995672366E+01   -0.19497E-02   -0.18699E-03 18176   0.981E-01    0.220E-01
DAV:  11    -0.814111297489E+01   -0.11563E-02   -0.43795E-04 19280   0.859E-01    0.271E-01
DAV:  12    -0.814077931910E+01    0.33366E-03   -0.52419E-05 18840   0.257E-01    0.264E-01
DAV:  13    -0.813939878191E+01    0.13805E-02   -0.89116E-04 17048   0.132E+00    0.267E-01
DAV:  14    -0.813900118160E+01    0.39760E-03   -0.19308E-04 19552   0.417E-01    0.257E-01
DAV:  15    -0.813742878925E+01    0.15724E-02   -0.91550E-04 18656   0.122E+00    0.186E-01
DAV:  16    -0.813585290313E+01    0.15759E-02   -0.17582E-02 17792   0.605E+00    0.232E-01
DAV:  17    -0.813631622879E+01   -0.46333E-03   -0.11536E-03 14496   0.392E-01    0.213E-01
DAV:  18    -0.813546933985E+01    0.84689E-03   -0.64522E-04 16344   0.107E+00    0.121E-01
DAV:  19    -0.813527636599E+01    0.19297E-03   -0.11477E-04 18592   0.376E-01    0.849E-02
DAV:  20    -0.813510177939E+01    0.17459E-03   -0.19599E-04 17720   0.597E-01    0.219E-02
DAV:  21    -0.813513075033E+01   -0.28971E-04   -0.13358E-04 18240   0.394E-01    0.399E-02
DAV:  22    -0.813511532783E+01    0.15423E-04   -0.17141E-05 18472   0.118E-01    0.274E-02
DAV:  23    -0.813510733638E+01    0.79914E-05   -0.38631E-06 18768   0.641E-02    0.175E-02
DAV:  24    -0.813510202413E+01    0.53122E-05   -0.43446E-06 18984   0.734E-02    0.634E-03
DAV:  25    -0.813510121872E+01    0.80542E-06   -0.10191E-06 19480   0.264E-02    0.196E-03
DAV:  26    -0.813510103004E+01    0.18867E-06   -0.12296E-07  8960   0.851E-03    0.810E-04
DAV:  27    -0.813510097059E+01    0.59454E-07   -0.26480E-08  6608   0.272E-03
   1 F= -.81351010E+01 E0= -.81351010E+01  d E =0.000000E+00  mag=     0.0002
 -----------------------------------------------------------------------------
|                                                                             |
|           W    W    AA    RRRRR   N    N  II  N    N   GGGG   !!!           |
|           W    W   A  A   R    R  NN   N  II  NN   N  G    G  !!!           |
|           W    W  A    A  R    R  N N  N  II  N N  N  G       !!!           |
|           W WW W  AAAAAA  RRRRR   N  N N  II  N  N N  G  GGG   !            |
|           WW  WW  A    A  R   R   N   NN  II  N   NN  G    G                |
|           W    W  A    A  R    R  N    N  II  N    N   GGGG   !!!           |
|                                                                             |
|     Tetrahedron method does not include variations of the Fermi             |
|     occupations, so forces and stress will be inaccurate. We suggest        |
|     using a different smearing scheme ISMEAR = 1 or 2 for metals in         |
|     relaxations.                                                            |
|                                                                             |
 -----------------------------------------------------------------------------

 PROFILE, used timers:     369
