   3   3   0   0
  0.2463909E+02  0.4710717E-09  0.4710717E-09  0.4710717E-09  0.5000000E-15
  1.000000000000000E-004
  CAR
 unknown system
     14.01002324    -32.40666299  301      9.54113506      1.00000000
    -32.407  0.0000E+00  0.0000E+00
    -32.252  0.0000E+00  0.0000E+00
    -32.097  0.0000E+00  0.0000E+00
    -31.942  0.0000E+00  0.0000E+00
    -31.788  0.0000E+00  0.0000E+00
    -31.633  0.0000E+00  0.0000E+00
    -31.478  0.0000E+00  0.0000E+00
    -31.324  0.0000E+00  0.0000E+00
    -31.169  0.0000E+00  0.0000E+00
    -31.014  0.0000E+00  0.0000E+00
    -30.859  0.0000E+00  0.0000E+00
    -30.705  0.0000E+00  0.0000E+00
    -30.550  0.0000E+00  0.0000E+00
    -30.395  0.0000E+00  0.0000E+00
    -30.241  0.1293E+02  0.2000E+01
    -30.086  0.0000E+00  0.2000E+01
    -29.931  0.0000E+00  0.2000E+01
    -29.776  0.0000E+00  0.2000E+01
    -29.622  0.0000E+00  0.2000E+01
    -29.467  0.0000E+00  0.2000E+01
    -29.312  0.0000E+00  0.2000E+01
    -29.157  0.0000E+00  0.2000E+01
    -29.003  0.0000E+00  0.2000E+01
    -28.848  0.0000E+00  0.2000E+01
    -28.693  0.0000E+00  0.2000E+01
    -28.539  0.0000E+00  0.2000E+01
    -28.384  0.0000E+00  0.2000E+01
    -28.229  0.0000E+00  0.2000E+01
    -28.074  0.0000E+00  0.2000E+01
    -27.920  0.0000E+00  0.2000E+01
    -27.765  0.0000E+00  0.2000E+01
    -27.610  0.0000E+00  0.2000E+01
    -27.456  0.0000E+00  0.2000E+01
    -27.301  0.0000E+00  0.2000E+01
    -27.146  0.0000E+00  0.2000E+01
    -26.991  0.0000E+00  0.2000E+01
    -26.837  0.0000E+00  0.2000E+01
    -26.682  0.0000E+00  0.2000E+01
    -26.527  0.0000E+00  0.2000E+01
    -26.372  0.0000E+00  0.2000E+01
    -26.218  0.0000E+00  0.2000E+01
    -26.063  0.0000E+00  0.2000E+01
    -25.908  0.0000E+00  0.2000E+01
    -25.754  0.0000E+00  0.2000E+01
    -25.599  0.0000E+00  0.2000E+01
    -25.444  0.0000E+00  0.2000E+01
    -25.289  0.0000E+00  0.2000E+01
    -25.135  0.0000E+00  0.2000E+01
    -24.980  0.0000E+00  0.2000E+01
    -24.825  0.0000E+00  0.2000E+01
    -24.671  0.0000E+00  0.2000E+01
    -24.516  0.0000E+00  0.2000E+01
    -24.361  0.0000E+00  0.2000E+01
    -24.206  0.0000E+00  0.2000E+01
    -24.052  0.0000E+00  0.2000E+01
    -23.897  0.0000E+00  0.2000E+01
    -23.742  0.0000E+00  0.2000E+01
    -23.587  0.0000E+00  0.2000E+01
    -23.433  0.0000E+00  0.2000E+01
    -23.278  0.0000E+00  0.2000E+01
    -23.123  0.0000E+00  0.2000E+01
    -22.969  0.0000E+00  0.2000E+01
    -22.814  0.0000E+00  0.2000E+01
    -22.659  0.0000E+00  0.2000E+01
    -22.504  0.0000E+00  0.2000E+01
    -22.350  0.0000E+00  0.2000E+01
    -22.195  0.0000E+00  0.2000E+01
    -22.040  0.0000E+00  0.2000E+01
    -21.886  0.0000E+00  0.2000E+01
    -21.731  0.0000E+00  0.2000E+01
    -21.576  0.0000E+00  0.2000E+01
    -21.421  0.0000E+00  0.2000E+01
    -21.267  0.0000E+00  0.2000E+01
    -21.112  0.0000E+00  0.2000E+01
    -20.957  0.0000E+00  0.2000E+01
    -20.802  0.0000E+00  0.2000E+01
    -20.648  0.0000E+00  0.2000E+01
    -20.493  0.0000E+00  0.2000E+01
    -20.338  0.0000E+00  0.2000E+01
    -20.184  0.0000E+00  0.2000E+01
    -20.029  0.0000E+00  0.2000E+01
    -19.874  0.0000E+00  0.2000E+01
    -19.719  0.0000E+00  0.2000E+01
    -19.565  0.0000E+00  0.2000E+01
    -19.410  0.0000E+00  0.2000E+01
    -19.255  0.0000E+00  0.2000E+01
    -19.101  0.0000E+00  0.2000E+01
    -18.946  0.0000E+00  0.2000E+01
    -18.791  0.0000E+00  0.2000E+01
    -18.636  0.0000E+00  0.2000E+01
    -18.482  0.0000E+00  0.2000E+01
    -18.327  0.0000E+00  0.2000E+01
    -18.172  0.0000E+00  0.2000E+01
    -18.017  0.0000E+00  0.2000E+01
    -17.863  0.0000E+00  0.2000E+01
    -17.708  0.0000E+00  0.2000E+01
    -17.553  0.0000E+00  0.2000E+01
    -17.399  0.0000E+00  0.2000E+01
    -17.244  0.0000E+00  0.2000E+01
    -17.089  0.0000E+00  0.2000E+01
    -16.934  0.0000E+00  0.2000E+01
    -16.780  0.0000E+00  0.2000E+01
    -16.625  0.0000E+00  0.2000E+01
    -16.470  0.0000E+00  0.2000E+01
    -16.316  0.0000E+00  0.2000E+01
    -16.161  0.0000E+00  0.2000E+01
    -16.006  0.0000E+00  0.2000E+01
    -15.851  0.0000E+00  0.2000E+01
    -15.697  0.0000E+00  0.2000E+01
    -15.542  0.0000E+00  0.2000E+01
    -15.387  0.0000E+00  0.2000E+01
    -15.232  0.0000E+00  0.2000E+01
    -15.078  0.0000E+00  0.2000E+01
    -14.923  0.0000E+00  0.2000E+01
    -14.768  0.0000E+00  0.2000E+01
    -14.614  0.0000E+00  0.2000E+01
    -14.459  0.0000E+00  0.2000E+01
    -14.304  0.0000E+00  0.2000E+01
    -14.149  0.0000E+00  0.2000E+01
    -13.995  0.0000E+00  0.2000E+01
    -13.840  0.0000E+00  0.2000E+01
    -13.685  0.0000E+00  0.2000E+01
    -13.531  0.5024E+02  0.1200E+02
    -13.376  0.0000E+00  0.1200E+02
    -13.221  0.0000E+00  0.1200E+02
    -13.066  0.0000E+00  0.1200E+02
    -12.912  0.0000E+00  0.1200E+02
    -12.757  0.0000E+00  0.1200E+02
    -12.602  0.0000E+00  0.1200E+02
    -12.447  0.0000E+00  0.1200E+02
    -12.293  0.0000E+00  0.1200E+02
    -12.138  0.0000E+00  0.1200E+02
    -11.983  0.0000E+00  0.1200E+02
    -11.829  0.0000E+00  0.1200E+02
    -11.674  0.0000E+00  0.1200E+02
    -11.519  0.0000E+00  0.1200E+02
    -11.364  0.0000E+00  0.1200E+02
    -11.210  0.0000E+00  0.1200E+02
    -11.055  0.0000E+00  0.1200E+02
    -10.900  0.0000E+00  0.1200E+02
    -10.746  0.0000E+00  0.1200E+02
    -10.591  0.0000E+00  0.1200E+02
    -10.436  0.0000E+00  0.1200E+02
    -10.281  0.0000E+00  0.1200E+02
    -10.127  0.0000E+00  0.1200E+02
     -9.972  0.0000E+00  0.1200E+02
     -9.817  0.0000E+00  0.1200E+02
     -9.662  0.0000E+00  0.1200E+02
     -9.508  0.0000E+00  0.1200E+02
     -9.353  0.0000E+00  0.1200E+02
     -9.198  0.0000E+00  0.1200E+02
     -9.044  0.0000E+00  0.1200E+02
     -8.889  0.0000E+00  0.1200E+02
     -8.734  0.9825E+00  0.1215E+02
     -8.579  0.5576E+01  0.1385E+02
     -8.425  0.1112E+02  0.1606E+02
     -8.270  0.0000E+00  0.1800E+02
     -8.115  0.0000E+00  0.1800E+02
     -7.961  0.0000E+00  0.1800E+02
     -7.806  0.0000E+00  0.1800E+02
     -7.651  0.0000E+00  0.1800E+02
     -7.496  0.0000E+00  0.1800E+02
     -7.342  0.0000E+00  0.1800E+02
     -7.187  0.0000E+00  0.1800E+02
     -7.032  0.0000E+00  0.1800E+02
     -6.877  0.0000E+00  0.1800E+02
     -6.723  0.0000E+00  0.1800E+02
     -6.568  0.0000E+00  0.1800E+02
     -6.413  0.0000E+00  0.1800E+02
     -6.259  0.0000E+00  0.1800E+02
     -6.104  0.0000E+00  0.1800E+02
     -5.949  0.0000E+00  0.1800E+02
     -5.794  0.0000E+00  0.1800E+02
     -5.640  0.0000E+00  0.1800E+02
     -5.485  0.0000E+00  0.1800E+02
     -5.330  0.0000E+00  0.1800E+02
     -5.176  0.0000E+00  0.1800E+02
     -5.021  0.0000E+00  0.1800E+02
     -4.866  0.0000E+00  0.1800E+02
     -4.711  0.0000E+00  0.1800E+02
     -4.557  0.0000E+00  0.1800E+02
     -4.402  0.0000E+00  0.1800E+02
     -4.247  0.0000E+00  0.1800E+02
     -4.092  0.0000E+00  0.1800E+02
     -3.938  0.0000E+00  0.1800E+02
     -3.783  0.0000E+00  0.1800E+02
     -3.628  0.0000E+00  0.1800E+02
     -3.474  0.0000E+00  0.1800E+02
     -3.319  0.0000E+00  0.1800E+02
     -3.164  0.5868E-02  0.1800E+02
     -3.009  0.3530E-01  0.1801E+02
     -2.855  0.1883E+00  0.1805E+02
     -2.700  0.2824E+00  0.1810E+02
     -2.545  0.7065E-01  0.1816E+02
     -2.391  0.1120E+01  0.1843E+02
     -2.236  0.2722E+01  0.1902E+02
     -2.081  0.1891E+01  0.1964E+02
     -1.926  0.7763E+00  0.1995E+02
     -1.772  0.0000E+00  0.2000E+02
     -1.617  0.0000E+00  0.2000E+02
     -1.462  0.0000E+00  0.2000E+02
     -1.307  0.0000E+00  0.2000E+02
     -1.153  0.0000E+00  0.2000E+02
     -0.998  0.0000E+00  0.2000E+02
     -0.843  0.0000E+00  0.2000E+02
     -0.689  0.0000E+00  0.2000E+02
     -0.534  0.0000E+00  0.2000E+02
     -0.379  0.0000E+00  0.2000E+02
     -0.224  0.0000E+00  0.2000E+02
     -0.070  0.0000E+00  0.2000E+02
      0.085  0.0000E+00  0.2000E+02
      0.240  0.0000E+00  0.2000E+02
      0.394  0.0000E+00  0.2000E+02
      0.549  0.0000E+00  0.2000E+02
      0.704  0.0000E+00  0.2000E+02
      0.859  0.0000E+00  0.2000E+02
      1.013  0.0000E+00  0.2000E+02
      1.168  0.0000E+00  0.2000E+02
      1.323  0.0000E+00  0.2000E+02
      1.478  0.0000E+00  0.2000E+02
      1.632  0.0000E+00  0.2000E+02
      1.787  0.0000E+00  0.2000E+02
      1.942  0.0000E+00  0.2000E+02
      2.096  0.0000E+00  0.2000E+02
      2.251  0.0000E+00  0.2000E+02
      2.406  0.0000E+00  0.2000E+02
      2.561  0.0000E+00  0.2000E+02
      2.715  0.0000E+00  0.2000E+02
      2.870  0.0000E+00  0.2000E+02
      3.025  0.0000E+00  0.2000E+02
      3.179  0.2217E+00  0.2004E+02
      3.334  0.8892E+00  0.2022E+02
      3.489  0.1093E+01  0.2072E+02
      3.644  0.8063E+00  0.2109E+02
      3.798  0.5058E+00  0.2124E+02
      3.953  0.4295E+00  0.2150E+02
      4.108  0.3210E+01  0.2223E+02
      4.263  0.3653E+01  0.2328E+02
      4.417  0.2271E+01  0.2405E+02
      4.572  0.2257E+01  0.2492E+02
      4.727  0.1653E+01  0.2558E+02
      4.881  0.5323E+00  0.2594E+02
      5.036  0.1988E+00  0.2610E+02
      5.191  0.5715E+01  0.2720E+02
      5.346  0.2564E+01  0.2852E+02
      5.500  0.4007E+01  0.2977E+02
      5.655  0.8819E+00  0.3025E+02
      5.810  0.1095E+01  0.3060E+02
      5.964  0.1310E+01  0.3115E+02
      6.119  0.1031E+01  0.3154E+02
      6.274  0.5830E+00  0.3173E+02
      6.429  0.4062E+00  0.3194E+02
      6.583  0.1457E+00  0.3207E+02
      6.738  0.1320E+01  0.3244E+02
      6.893  0.7769E+00  0.3259E+02
      7.048  0.1450E+01  0.3295E+02
      7.202  0.1436E+00  0.3312E+02
      7.357  0.1176E+01  0.3341E+02
      7.512  0.4666E+00  0.3362E+02
      7.666  0.1980E+01  0.3404E+02
      7.821  0.3891E+01  0.3534E+02
      7.976  0.1283E+01  0.3584E+02
      8.131  0.7060E-01  0.3597E+02
      8.285  0.9494E-01  0.3600E+02
      8.440  0.0000E+00  0.3600E+02
      8.595  0.0000E+00  0.3600E+02
      8.749  0.4707E-01  0.3601E+02
      8.904  0.4782E-01  0.3602E+02
      9.059  0.1517E+00  0.3605E+02
      9.214  0.5322E+00  0.3615E+02
      9.368  0.7369E+00  0.3642E+02
      9.523  0.2469E+01  0.3696E+02
      9.678  0.1365E+01  0.3743E+02
      9.833  0.1142E+01  0.3784E+02
      9.987  0.6034E+00  0.3809E+02
     10.142  0.6591E+00  0.3824E+02
     10.297  0.3805E+00  0.3834E+02
     10.451  0.1720E+01  0.3863E+02
     10.606  0.1788E+01  0.3899E+02
     10.761  0.2378E+01  0.3965E+02
     10.916  0.2102E+01  0.4026E+02
     11.070  0.1324E+01  0.4072E+02
     11.225  0.2441E+01  0.4133E+02
     11.380  0.4446E+01  0.4248E+02
     11.534  0.4029E+01  0.4361E+02
     11.689  0.7535E+01  0.4598E+02
     11.844  0.5584E+01  0.4713E+02
     11.999  0.0000E+00  0.4800E+02
     12.153  0.0000E+00  0.4800E+02
     12.308  0.0000E+00  0.4800E+02
     12.463  0.0000E+00  0.4800E+02
     12.618  0.0000E+00  0.4800E+02
     12.772  0.0000E+00  0.4800E+02
     12.927  0.0000E+00  0.4800E+02
     13.082  0.0000E+00  0.4800E+02
     13.236  0.0000E+00  0.4800E+02
     13.391  0.0000E+00  0.4800E+02
     13.546  0.0000E+00  0.4800E+02
     13.701  0.0000E+00  0.4800E+02
     13.855  0.0000E+00  0.4800E+02
     14.010  0.0000E+00  0.4800E+02
