       N       E                     dE             d eps       ncg     rms          rms(c)
DAV:   1     0.450577867668E+03    0.45058E+03   -0.20690E+04  4032   0.206E+03
DAV:   2     0.468279413858E+02   -0.40375E+03   -0.39519E+03  4160   0.507E+02
DAV:   3    -0.183503347699E+02   -0.65178E+02   -0.64447E+02  5544   0.171E+02
DAV:   4    -0.225492872667E+02   -0.41990E+01   -0.41809E+01  7336   0.440E+01
DAV:   5    -0.226608680284E+02   -0.11158E+00   -0.11155E+00  5616   0.566E+00    0.380E+01
DAV:   6    -0.218347710920E+02    0.82610E+00   -0.15221E+00  5032   0.837E+00    0.229E+01
DAV:   7    -0.216971540527E+02    0.13762E+00   -0.19794E+00  6080   0.811E+00    0.606E+00
DAV:   8    -0.216591381113E+02    0.38016E-01   -0.32191E-01  5352   0.297E+00    0.353E+00
DAV:   9    -0.216525363093E+02    0.66018E-02   -0.13654E-01  6032   0.204E+00    0.305E+00
DAV:  10    -0.216483882250E+02    0.41481E-02   -0.23293E-02  5408   0.890E-01    0.666E-01
DAV:  11    -0.216484999906E+02   -0.11177E-03   -0.12956E-03  5632   0.214E-01    0.405E-01
DAV:  12    -0.216484413960E+02    0.58595E-04   -0.27645E-04  5728   0.975E-02    0.106E-01
DAV:  13    -0.216484421313E+02   -0.73535E-06   -0.76225E-05  6392   0.482E-02    0.313E-02
DAV:  14    -0.216484415915E+02    0.53982E-06   -0.41205E-06  5176   0.131E-02    0.212E-02
DAV:  15    -0.216484412922E+02    0.29928E-06   -0.10562E-06  6528   0.622E-03    0.133E-03
DAV:  16    -0.216484412804E+02    0.11793E-07   -0.50877E-08  3336   0.138E-03
   1 F= -.21648441E+02 E0= -.21648326E+02  d E =-.229856E-03
