 vasp.6.0.8 29Jun18 (build Jun 13 2019 12:54:44) complex

 executed on      IFC18_CrayMPICH date 2021.12.05  14:21:48
 running   64 mpi-ranks, with    1 threads/rank
 distrk:  each k-point on   16 cores,    4 groups
 distr:  one band on NCORES_PER_BAND=   4 cores,    4 groups


--------------------------------------------------------------------------------------------------------


 INCAR:
 POTCAR:    PAW_PBE Th 07Sep2000
 POTCAR:    PAW_PBE Bi_d 06Sep2000
 POTCAR:    PAW_PBE Pt 04Feb2005
 POTCAR:    PAW_PBE Th 07Sep2000
   VRHFIN =Th:  [Xe,5d,4f]
   LEXCH  = PE
   EATOM  =   984.7553 eV,   72.3775 Ry

   TITEL  = PAW_PBE Th 07Sep2000
   LULTRA =        F    use ultrasoft PP ?
   IUNSCR =        1    unscreen: 0-lin 1-nonlin 2-no
   RPACOR =    2.200    partial core radius
   POMASS =  232.039; ZVAL   =   12.000    mass and valenz
   RCORE  =    2.800    outmost cutoff radius
   RWIGS  =    3.000; RWIGS  =    1.588    wigner-seitz radius (au A)
   ENMAX  =  247.306; ENMIN  =  185.480 eV
   RCLOC  =    2.211    cutoff for local pot
   LCOR   =        T    correct aug charges
   LPAW   =        T    paw PP
   EAUG   =  535.431
   DEXC   =    0.000
   RMAX   =    2.862    core radius for proj-oper
   RAUG   =    1.300    factor for augmentation sphere
   RDEP   =    2.926    radius for radial grids
   RDEPT  =    2.250    core radius for aug-charge

   Atomic configuration
   18 entries
     n  l   j            E        occ.
     1  0  0.50   -109990.1879   2.0000
     2  0  0.50    -20388.0147   2.0000
     2  1  1.50    -17049.6156   6.0000
     3  0  0.50     -5106.5436   2.0000
     3  1  1.50     -4175.1262   6.0000
     3  2  2.50     -3342.8437  10.0000
     4  0  0.50     -1280.8211   2.0000
     4  1  1.50      -976.4859   6.0000
     4  2  2.50      -661.8358  10.0000
     4  3  3.50      -324.9124  14.0000
     5  0  0.50      -278.7726   2.0000
     5  1  1.50      -186.2212   6.0000
     5  2  2.50       -86.9031  10.0000
     6  0  0.50       -43.3059   2.0000
     7  0  0.50        -4.0783   2.0000
     6  1  1.50       -21.4071   6.0000
     6  2  1.50        -2.3664   1.0000
     5  3  2.50        -1.2804   1.0000
   Description
     l       E           TYP  RCUT    TYP  RCUT
     0    -43.3059201     23  2.800
     0     -4.0782900     23  2.800
     1    -21.4071032     23  2.500
     1    -22.7676858     23  2.500
     2     -2.3664170     23  2.500
     2      3.0546543     23  2.500
     3     -1.2803910     23  2.800
     3      0.1360583     23  2.800
  local pseudopotential read in
  partial core-charges read in
  partial kinetic energy density read in
  atomic valenz-charges read in
  non local Contribution for L=           0  read in
    real space projection operators read in
  non local Contribution for L=           0  read in
    real space projection operators read in
  non local Contribution for L=           1  read in
    real space projection operators read in
  non local Contribution for L=           1  read in
    real space projection operators read in
  non local Contribution for L=           2  read in
    real space projection operators read in
  non local Contribution for L=           2  read in
    real space projection operators read in
  non local Contribution for L=           3  read in
    real space projection operators read in
  non local Contribution for L=           3  read in
    real space projection operators read in
    PAW grid and wavefunctions read in

   number of l-projection  operators is LMAX  =           8
   number of lm-projection operators is LMMAX =          32

 POTCAR:    PAW_PBE Bi_d 06Sep2000
   VRHFIN =Bi:
   LEXCH  = PE
   EATOM  =  1959.2045 eV,  143.9975 Ry

   TITEL  = PAW_PBE Bi_d 06Sep2000
   LULTRA =        F    use ultrasoft PP ?
   IUNSCR =        1    unscreen: 0-lin 1-nonlin 2-no
   RPACOR =    2.200    partial core radius
   POMASS =  208.980; ZVAL   =   15.000    mass and valenz
   RCORE  =    2.500    outmost cutoff radius
   RWIGS  =    3.090; RWIGS  =    1.635    wigner-seitz radius (au A)
   ENMAX  =  242.839; ENMIN  =  182.129 eV
   ICORE  =        3    local potential
   LCOR   =        T    correct aug charges
   LPAW   =        T    paw PP
   EAUG   =  442.899
   DEXC   =    0.000
   RMAX   =    2.551    core radius for proj-oper
   RAUG   =    1.300    factor for augmentation sphere
   RDEP   =    2.650    radius for radial grids
   RDEPT  =    2.039    core radius for aug-charge

   Atomic configuration
   16 entries
     n  l   j            E        occ.
     1  0  0.50    -90639.6581   2.0000
     2  0  0.50    -16282.4666   2.0000
     2  1  1.50    -13922.8286   6.0000
     3  0  0.50     -3930.4763   2.0000
     3  1  1.50     -3256.7013   6.0000
     3  2  2.50     -2581.6168  10.0000
     4  0  0.50      -902.2614   2.0000
     4  1  1.50      -681.5915   6.0000
     4  2  2.50      -429.8249  10.0000
     4  3  3.50      -152.6004  14.0000
     5  0  0.50      -157.7156   2.0000
     5  1  1.50       -95.8054   6.0000
     5  2  2.50       -27.0806  10.0000
     6  0  0.50       -14.4732   2.0000
     6  1  1.50        -4.5702   3.0000
     5  3  2.50        -2.7212   0.0000
   Description
     l       E           TYP  RCUT    TYP  RCUT
     2    -27.0805982     23  2.500
     2     -1.3605826     23  2.500
     0    -14.4732271     23  2.500
     0      6.8029130     23  2.500
     1     -4.5701651     23  2.500
     1     13.6058260     23  2.500
     3     -1.3605826      7  2.500
  local pseudopotential read in
  partial core-charges read in
  partial kinetic energy density read in
  atomic valenz-charges read in
  non local Contribution for L=           2  read in
    real space projection operators read in
  non local Contribution for L=           2  read in
    real space projection operators read in
  non local Contribution for L=           0  read in
    real space projection operators read in
  non local Contribution for L=           0  read in
    real space projection operators read in
  non local Contribution for L=           1  read in
    real space projection operators read in
  non local Contribution for L=           1  read in
    real space projection operators read in
    PAW grid and wavefunctions read in

   number of l-projection  operators is LMAX  =           6
   number of lm-projection operators is LMMAX =          18

 POTCAR:    PAW_PBE Pt 04Feb2005
   VRHFIN =Pt: s1d9
   LEXCH  = PE
   EATOM  =   729.1176 eV,   53.5886 Ry

   TITEL  = PAW_PBE Pt 04Feb2005
   LULTRA =        F    use ultrasoft PP ?
   IUNSCR =        1    unscreen: 0-lin 1-nonlin 2-no
   RPACOR =    2.330    partial core radius
   POMASS =  195.080; ZVAL   =   10.000    mass and valenz
   RCORE  =    2.600    outmost cutoff radius
   RWIGS  =    2.750; RWIGS  =    1.455    wigner-seitz radius (au A)
   ENMAX  =  230.283; ENMIN  =  172.712 eV
   ICORE  =        3    local potential
   LCOR   =        T    correct aug charges
   LPAW   =        T    paw PP
   EAUG   =  358.966
   DEXC   =    0.000
   RMAX   =    2.658    core radius for proj-oper
   RAUG   =    1.300    factor for augmentation sphere
   RDEP   =    2.761    radius for radial grids
   RDEPT  =    2.203    core radius for aug-charge

   Atomic configuration
   16 entries
     n  l   j            E        occ.
     1  0  0.50    -78401.1885   2.0000
     2  0  0.50    -13770.7750   2.0000
     2  1  1.50    -11931.0468   6.0000
     3  0  0.50     -3234.7234   2.0000
     3  1  1.50     -2699.2216   6.0000
     3  2  2.50     -2119.5714  10.0000
     4  0  0.50      -695.1528   2.0000
     4  1  1.50      -519.6034   6.0000
     4  2  2.50      -306.6786  10.0000
     4  3  3.50       -70.1041  14.0000
     5  0  0.50      -101.7747   2.0000
     5  1  1.50       -55.9873   6.0000
     5  2  2.50        -6.1423   9.0000
     6  0  0.50        -5.6573   1.0000
     6  1  1.50        -6.8029   0.0000
     5  3  2.50        -1.3606   0.0000
   Description
     l       E           TYP  RCUT    TYP  RCUT
     2     -6.1423404     23  2.500
     2     -7.5029230     23  2.500
     0     -5.6573207     23  2.500
     0      0.7416693     23  2.500
     1     -2.7211652     23  2.600
     1     20.4087390     23  2.600
     3     -1.3605826     23  2.500
  local pseudopotential read in
  partial core-charges read in
  partial kinetic energy density read in
  atomic valenz-charges read in
  non local Contribution for L=           2  read in
    real space projection operators read in
  non local Contribution for L=           2  read in
    real space projection operators read in
  non local Contribution for L=           0  read in
    real space projection operators read in
  non local Contribution for L=           0  read in
    real space projection operators read in
  non local Contribution for L=           1  read in
    real space projection operators read in
  non local Contribution for L=           1  read in
    real space projection operators read in
    PAW grid and wavefunctions read in

   number of l-projection  operators is LMAX  =           6
   number of lm-projection operators is LMMAX =          18

 WARNING: PSMAXN for non-local potential too small
          PSMAXN should be >   13.5545592237991       NTYP=           1

 -----------------------------------------------------------------------------
|                                                                             |
|  ADVICE TO THIS USER RUNNING 'VASP/VAMP'   (HEAR YOUR MASTER'S VOICE ...):  |
|                                                                             |
|      You enforced a specific xc-type in the INCAR file,                     |
|      a different type was found on the POTCAR file                          |
|          I HOPE YOU KNOW, WHAT YOU ARE  DOING                               |
|                                                                             |
 -----------------------------------------------------------------------------

  PAW_PBE Th 07Sep2000                  :
 energy of atom  1       EATOM= -984.7553
 kinetic energy error for atom=    0.0005 (will be added to EATOM!!)
  PAW_PBE Bi_d 06Sep2000                :
 energy of atom  2       EATOM=-1959.2045
 kinetic energy error for atom=    0.0012 (will be added to EATOM!!)
  PAW_PBE Pt 04Feb2005                  :
 energy of atom  3       EATOM= -729.1176
 kinetic energy error for atom=    0.0010 (will be added to EATOM!!)


 POSCAR: Th1 Bi1 Pt1
  positions in direct lattice
  No initial velocities read in
 exchange correlation table for  LEXCH =       14
   RHO(1)=    0.500       N(1)  =     2000
   RHO(2)=  100.500       N(2)  =     4000



--------------------------------------------------------------------------------------------------------


 ion  position               nearest neighbor table
   1  0.250  0.250  0.250-   3 2.88   3 2.88   3 2.88   3 2.88   2 3.33   2 3.33   2 3.33   2 3.33
                             2 3.33   2 3.33
   2  0.750  0.750  0.750-   3 2.88   3 2.88   3 2.88   3 2.88   1 3.33   1 3.33   1 3.33   1 3.33
                             1 3.33   1 3.33
   3  0.000  0.000  0.000-   2 2.88   2 2.88   2 2.88   1 2.88   2 2.88   1 2.88   1 2.88   1 2.88


  LATTYP: Found a face centered cubic cell.
 ALAT       =     6.6619591896

  Lattice vectors:

 A1 = (   0.0000000000,   3.3309795948,   3.3309795948)
 A2 = (   3.3309795948,   0.0000000000,   3.3309795948)
 A3 = (   3.3309795948,   3.3309795948,   0.0000000000)


Analysis of symmetry for initial positions (statically):
=====================================================================
 Subroutine PRICEL returns:
 Original cell was already a primitive cell.


 Routine SETGRP: Setting up the symmetry group for a
 face centered cubic supercell.


 Subroutine GETGRP returns: Found 24 space group operations
 (whereof 24 operations were pure point group operations)
 out of a pool of 48 trial point group operations.


The static configuration has the point symmetry T_d .


Analysis of symmetry for dynamics (positions and initial velocities):
=====================================================================
 Subroutine PRICEL returns:
 Original cell was already a primitive cell.


 Routine SETGRP: Setting up the symmetry group for a
 face centered cubic supercell.


 Subroutine GETGRP returns: Found 24 space group operations
 (whereof 24 operations were pure point group operations)
 out of a pool of 48 trial point group operations.


The dynamic configuration has the point symmetry T_d .


 Subroutine INISYM returns: Found 24 space group operations
 (whereof 24 operations are pure point group operations),
 and found     1 'primitive' translations


----------------------------------------------------------------------------------------

                                     Primitive cell

  volume of cell :      73.9173

  direct lattice vectors                    reciprocal lattice vectors
     0.000000000  3.330979595  3.330979595    -0.150105993  0.150105993  0.150105993
     3.330979595  0.000000000  3.330979595     0.150105993 -0.150105993  0.150105993
     3.330979595  3.330979595  0.000000000     0.150105993  0.150105993 -0.150105993

  length of vectors
     4.710716519  4.710716519  4.710716519     0.259991207  0.259991207  0.259991207

  position of ions in fractional coordinates (direct lattice)
     0.250000000  0.250000000  0.250000000
     0.750000000  0.750000000  0.750000000
     0.000000000  0.000000000  0.000000000

  ion indices of the primitive-cell ions
   primitive index   ion index
                 1           1
                 2           2
                 3           3

----------------------------------------------------------------------------------------



 KPOINTS: KPOINTS

Automatic generation of k-mesh.
Space group operators:
 irot       det(A)        alpha          n_x          n_y          n_z        tau_x        tau_y        tau_z
    1     1.000000     0.000001     1.000000     0.000000     0.000000     0.000000     0.000000     0.000000
    2     1.000000   120.000000    -0.577350    -0.577350    -0.577350     0.000000     0.000000     0.000000
    3     1.000000   120.000000     0.577350     0.577350     0.577350     0.000000     0.000000     0.000000
    4    -1.000000    90.000000     0.000000     0.000000    -1.000000     0.000000     0.000000     0.000000
    5    -1.000000   180.000000    -0.000000     0.707107     0.707107     0.000000     0.000000     0.000000
    6    -1.000000    90.000000     0.000000     1.000000     0.000000     0.000000     0.000000     0.000000
    7     1.000000   180.000000     0.000000     0.000000     1.000000     0.000000     0.000000     0.000000
    8     1.000000   120.000000    -0.577350     0.577350     0.577350     0.000000     0.000000     0.000000
    9     1.000000   120.000000    -0.577350     0.577350    -0.577350     0.000000     0.000000     0.000000
   10    -1.000000    90.000000     0.000000     0.000000     1.000000     0.000000     0.000000     0.000000
   11    -1.000000    90.000000    -1.000000    -0.000000     0.000000     0.000000     0.000000     0.000000
   12    -1.000000   180.000000     0.707107     0.000000     0.707107     0.000000     0.000000     0.000000
   13     1.000000   120.000000     0.577350    -0.577350     0.577350     0.000000     0.000000     0.000000
   14     1.000000   120.000000    -0.577350    -0.577350     0.577350     0.000000     0.000000     0.000000
   15     1.000000   180.000000     1.000000     0.000000     0.000000     0.000000     0.000000     0.000000
   16    -1.000000    90.000000     0.000000    -1.000000     0.000000     0.000000     0.000000     0.000000
   17    -1.000000   180.000000     0.707107     0.707107     0.000000     0.000000     0.000000     0.000000
   18    -1.000000    90.000000     1.000000     0.000000    -0.000000     0.000000     0.000000     0.000000
   19     1.000000   120.000000     0.577350    -0.577350    -0.577350     0.000000     0.000000     0.000000
   20     1.000000   180.000000     0.000000    -1.000000    -0.000000     0.000000     0.000000     0.000000
   21     1.000000   120.000000     0.577350     0.577350    -0.577350     0.000000     0.000000     0.000000
   22    -1.000000   180.000000     0.000000    -0.707107     0.707107     0.000000     0.000000     0.000000
   23    -1.000000   180.000000     0.707107    -0.707107    -0.000000     0.000000     0.000000     0.000000
   24    -1.000000   180.000000     0.707107     0.000000    -0.707107     0.000000     0.000000     0.000000

 Subroutine IBZKPT returns following result:
 ===========================================

 Found     84 irreducible k-points:

 Following reciprocal coordinates:
            Coordinates               Weight
  0.000000  0.000000  0.000000      1.000000
  0.076923 -0.000000  0.000000      8.000000
  0.153846 -0.000000 -0.000000      8.000000
  0.230769 -0.000000  0.000000      8.000000
  0.307692 -0.000000 -0.000000      8.000000
  0.384615  0.000000 -0.000000      8.000000
  0.461538  0.000000 -0.000000      8.000000
  0.076923  0.076923  0.000000      6.000000
  0.153846  0.076923  0.000000     24.000000
  0.230769  0.076923  0.000000     24.000000
  0.307692  0.076923 -0.000000     24.000000
  0.384615  0.076923  0.000000     24.000000
  0.461538  0.076923  0.000000     24.000000
 -0.461538  0.076923 -0.000000     24.000000
 -0.384615  0.076923 -0.000000     24.000000
 -0.307692  0.076923 -0.000000     24.000000
 -0.230769  0.076923  0.000000     24.000000
 -0.153846  0.076923  0.000000     24.000000
 -0.076923  0.076923 -0.000000     12.000000
  0.153846  0.153846  0.000000      6.000000
  0.230769  0.153846  0.000000     24.000000
  0.307692  0.153846 -0.000000     24.000000
  0.384615  0.153846 -0.000000     24.000000
  0.461538  0.153846  0.000000     24.000000
 -0.461538  0.153846 -0.000000     24.000000
 -0.384615  0.153846 -0.000000     24.000000
 -0.307692  0.153846  0.000000     24.000000
 -0.230769  0.153846  0.000000     24.000000
 -0.153846  0.153846  0.000000     12.000000
  0.230769  0.230769  0.000000      6.000000
  0.307692  0.230769  0.000000     24.000000
  0.384615  0.230769  0.000000     24.000000
  0.461538  0.230769 -0.000000     24.000000
 -0.461538  0.230769  0.000000     24.000000
 -0.384615  0.230769  0.000000     24.000000
 -0.307692  0.230769  0.000000     24.000000
 -0.230769  0.230769 -0.000000     12.000000
  0.307692  0.307692  0.000000      6.000000
  0.384615  0.307692  0.000000     24.000000
  0.461538  0.307692  0.000000     24.000000
 -0.461538  0.307692  0.000000     24.000000
 -0.384615  0.307692  0.000000     24.000000
 -0.307692  0.307692  0.000000     12.000000
  0.384615  0.384615  0.000000      6.000000
  0.461538  0.384615  0.000000     24.000000
 -0.461538  0.384615  0.000000     24.000000
 -0.384615  0.384615  0.000000     12.000000
  0.461538  0.461538  0.000000      6.000000
 -0.461538  0.461538  0.000000     12.000000
  0.230769  0.153846  0.076923     24.000000
  0.307692  0.153846  0.076923     48.000000
  0.384615  0.153846  0.076923     48.000000
  0.461538  0.153846  0.076923     48.000000
 -0.461538  0.153846  0.076923     48.000000
  0.307692  0.230769  0.076923     24.000000
  0.384615  0.230769  0.076923     48.000000
  0.461538  0.230769  0.076923     48.000000
 -0.461538  0.230769  0.076923     48.000000
 -0.384615  0.230769  0.076923     48.000000
 -0.307692  0.230769  0.076923     48.000000
 -0.230769  0.230769  0.076923     48.000000
 -0.153846  0.230769  0.076923     24.000000
  0.384615  0.307692  0.076923     24.000000
  0.461538  0.307692  0.076923     48.000000
 -0.461538  0.307692  0.076923     48.000000
 -0.384615  0.307692  0.076923     48.000000
 -0.307692  0.307692  0.076923     48.000000
 -0.230769  0.307692  0.076923     24.000000
  0.461538  0.384615  0.076923     24.000000
 -0.461538  0.384615  0.076923     48.000000
 -0.384615  0.384615  0.076923     48.000000
 -0.307692  0.384615  0.076923     24.000000
 -0.461538  0.461538  0.076923     24.000000
 -0.384615  0.461538  0.076923     24.000000
  0.461538  0.307692  0.153846     24.000000
 -0.461538  0.307692  0.153846     48.000000
 -0.384615  0.307692  0.153846     48.000000
 -0.461538  0.384615  0.153846     24.000000
 -0.384615  0.384615  0.153846     48.000000
 -0.307692  0.384615  0.153846     48.000000
 -0.230769  0.384615  0.153846     24.000000
 -0.384615  0.461538  0.153846     24.000000
 -0.307692  0.461538  0.153846     24.000000
 -0.307692  0.461538  0.230769     24.000000

 Following cartesian coordinates:
            Coordinates               Weight
  0.000000  0.000000  0.000000      1.000000
 -0.011230  0.011230  0.011230      8.000000
 -0.022460  0.022460  0.022460      8.000000
 -0.033690  0.033690  0.033690      8.000000
 -0.044920  0.044920  0.044920      8.000000
 -0.056151  0.056151  0.056151      8.000000
 -0.067381  0.067381  0.067381      8.000000
  0.000000 -0.000000  0.022460      6.000000
 -0.011230  0.011230  0.033690     24.000000
 -0.022460  0.022460  0.044920     24.000000
 -0.033690  0.033690  0.056151     24.000000
 -0.044920  0.044920  0.067381     24.000000
 -0.056151  0.056151  0.078611     24.000000
  0.078611 -0.078611 -0.056151     24.000000
  0.067381 -0.067381 -0.044920     24.000000
  0.056151 -0.056151 -0.033690     24.000000
  0.044920 -0.044920 -0.022460     24.000000
  0.033690 -0.033690 -0.011230     24.000000
  0.022460 -0.022460  0.000000     12.000000
  0.000000  0.000000  0.044920      6.000000
 -0.011230  0.011230  0.056151     24.000000
 -0.022460  0.022460  0.067381     24.000000
 -0.033690  0.033690  0.078611     24.000000
 -0.044920  0.044920  0.089841     24.000000
  0.089841 -0.089841 -0.044920     24.000000
  0.078611 -0.078611 -0.033690     24.000000
  0.067381 -0.067381 -0.022460     24.000000
  0.056151 -0.056151 -0.011230     24.000000
  0.044920 -0.044920 -0.000000     12.000000
 -0.000000  0.000000  0.067381      6.000000
 -0.011230  0.011230  0.078611     24.000000
 -0.022460  0.022460  0.089841     24.000000
 -0.033690  0.033690  0.101071     24.000000
  0.101071 -0.101071 -0.033690     24.000000
  0.089841 -0.089841 -0.022460     24.000000
  0.078611 -0.078611 -0.011230     24.000000
  0.067381 -0.067381  0.000000     12.000000
  0.000000  0.000000  0.089841      6.000000
 -0.011230  0.011230  0.101071     24.000000
 -0.022460  0.022460  0.112301     24.000000
  0.112301 -0.112301 -0.022460     24.000000
  0.101071 -0.101071 -0.011230     24.000000
  0.089841 -0.089841 -0.000000     12.000000
 -0.000000  0.000000  0.112301      6.000000
 -0.011230  0.011230  0.123531     24.000000
  0.123531 -0.123531 -0.011230     24.000000
  0.112301 -0.112301 -0.000000     12.000000
 -0.000000  0.000000  0.134761      6.000000
  0.134761 -0.134761 -0.000000     12.000000
 -0.000000  0.022460  0.044920     24.000000
 -0.011230  0.033690  0.056151     48.000000
 -0.022460  0.044920  0.067381     48.000000
 -0.033690  0.056151  0.078611     48.000000
  0.101071 -0.078611 -0.056151     48.000000
  0.000000  0.022460  0.067381     24.000000
 -0.011230  0.033690  0.078611     48.000000
 -0.022460  0.044920  0.089841     48.000000
  0.112301 -0.089841 -0.044920     48.000000
  0.101071 -0.078611 -0.033690     48.000000
  0.089841 -0.067381 -0.022460     48.000000
  0.078611 -0.056151 -0.011230     48.000000
  0.067381 -0.044920  0.000000     24.000000
 -0.000000  0.022460  0.089841     24.000000
 -0.011230  0.033690  0.101071     48.000000
  0.123531 -0.101071 -0.033690     48.000000
  0.112301 -0.089841 -0.022460     48.000000
  0.101071 -0.078611 -0.011230     48.000000
  0.089841 -0.067381 -0.000000     24.000000
  0.000000  0.022460  0.112301     24.000000
  0.134761 -0.112301 -0.022460     48.000000
  0.123531 -0.101071 -0.011230     48.000000
  0.112301 -0.089841 -0.000000     24.000000
  0.145991 -0.123531 -0.011230     24.000000
  0.134761 -0.112301 -0.000000     24.000000
 -0.000000  0.044920  0.089841     24.000000
  0.134761 -0.089841 -0.044920     48.000000
  0.123531 -0.078611 -0.033690     48.000000
  0.145991 -0.101071 -0.033690     24.000000
  0.134761 -0.089841 -0.022460     48.000000
  0.123531 -0.078611 -0.011230     48.000000
  0.112301 -0.067381 -0.000000     24.000000
  0.145991 -0.101071 -0.011230     24.000000
  0.134761 -0.089841  0.000000     24.000000
  0.145991 -0.078611 -0.011230     24.000000



--------------------------------------------------------------------------------------------------------




 Dimension of arrays:
   k-points           NKPTS =     84   k-points in BZ     NKDIM =     84   number of bands    NBANDS=     24
   number of dos      NEDOS =    301   number of ions     NIONS =      3
   non local maximal  LDIM  =      8   non local SUM 2l+1 LMDIM =     32
   total plane-waves  NPLWV =  74088
   max r-space proj   IRMAX =      1   max aug-charges    IRDMAX= 485801
   dimension x,y,z NGX =    42 NGY =   42 NGZ =   42
   dimension x,y,z NGXF=    84 NGYF=   84 NGZF=   84
   support grid    NGXF=   168 NGYF=  168 NGZF=  168
   ions per type =               1   1   1
   NGX,Y,Z   is equivalent  to a cutoff of  14.82, 14.82, 14.82 a.u.
   NGXF,Y,Z  is equivalent  to a cutoff of  29.64, 29.64, 29.64 a.u.

 SYSTEM =  unknown system
 POSCAR =  Th1 Bi1 Pt1

 Startparameter for this run:
   NWRITE =      2    write-flag & timer
   PREC   = acc       normal or accurate (medium, high low for compatibility)
   ISTART =      0    job   : 0-new  1-cont  2-samecut
   ICHARG =      2    charge: 1-file 2-atom 10-const
   ISPIN  =      1    spin polarized calculation?
   LNONCOLLINEAR =      F non collinear calculations
   LSORBIT =      F    spin-orbit coupling
   INIWAV =      1    electr: 0-lowe 1-rand  2-diag
   LASPH  =      F    aspherical Exc in radial PAW
   METAGGA=      F    non-selfconsistent MetaGGA calc.

 Electronic Relaxation 1
   ENCUT  =  700.0 eV  51.45 Ry    7.17 a.u.  10.16 10.16 10.16*2*pi/ulx,y,z
   ENINI  =  700.0     initial cutoff
   ENAUG  =  535.4 eV  augmentation charge cutoff
   NELM   =     60;   NELMIN=  5; NELMDL= -5     # of ELM steps
   EDIFF  = 0.1E-06   stopping-criterion for ELM
   LREAL  =      F    real-space projection
   NLSPLINE    = F    spline interpolate recip. space projectors
   LCOMPAT=      F    compatible to vasp.4.4
   GGA_COMPAT  = T    GGA compatible to vasp.4.4-vasp.4.6
   LMAXPAW     = -100 max onsite density
   LMAXMIX     =    2 max onsite mixed and CHGCAR
   VOSKOWN=      0    Vosko Wilk Nusair interpolation
   ROPT   =    0.00000   0.00000   0.00000
 Ionic relaxation
   EDIFFG = 0.1E-05   stopping-criterion for IOM
   NSW    =      0    number of steps for IOM
   NBLOCK =      1;   KBLOCK =      1    inner block; outer block
   IBRION =     -1    ionic relax: 0-MD 1-quasi-New 2-CG
   NFREE  =      0    steps in history (QN), initial steepest desc. (CG)
   ISIF   =      3    stress and relaxation
   IWAVPR =     10    prediction:  0-non 1-charg 2-wave 3-comb
   ISYM   =      2    0-nonsym 1-usesym 2-fastsym
   LCORR  =      T    Harris-Foulkes like correction to forces

   POTIM  = 0.5000    time-step for ionic-motion
   TEIN   =    0.0    initial temperature
   TEBEG  =    0.0;   TEEND  =   0.0 temperature during run
   SMASS  =  -3.00    Nose mass-parameter (am)
   estimated Nose-frequenzy (Omega)   =  0.10E-29 period in steps = 0.13E+47 mass=  -0.507E-27a.u.
   SCALEE = 1.0000    scale energy and forces
   NPACO  =    256;   APACO  = 16.0  distance and # of slots for P.C.
   PSTRESS=    0.0 pullay stress

  Mass of Ions in am
   POMASS = 232.04208.98195.08
  Ionic Valenz
   ZVAL   =  12.00 15.00 10.00
  Atomic Wigner-Seitz radii
   RWIGS  =  -1.00 -1.00 -1.00
  virtual crystal weights
   VCA    =   1.00  1.00  1.00
   NELECT =      37.0000    total number of electrons
   NUPDOWN=      -1.0000    fix difference up-down

 DOS related values:
   EMIN   =  10.00;   EMAX   =-10.00  energy-range for DOS
   EFERMI =   0.00
   ISMEAR =     0;   SIGMA  =   0.01  broadening in eV -4-tet -1-fermi 0-gaus

 Electronic relaxation 2 (details)
   IALGO  =     38    algorithm
   LDIAG  =      T    sub-space diagonalisation (order eigenvalues)
   LSUBROT=      F    optimize rotation matrix (better conditioning)
   TURBO    =      0    0=normal 1=particle mesh
   IRESTART =      0    0=no restart 2=restart with 2 vectors
   NREBOOT  =      0    no. of reboots
   NMIN     =      0    reboot dimension
   EREF     =   0.00    reference energy to select bands
   IMIX   =      4    mixing-type and parameters
     AMIX     =   0.40;   BMIX     =  1.00
     AMIX_MAG =   1.60;   BMIX_MAG =  1.00
     AMIN     =   0.10
     WC   =   100.;   INIMIX=   1;  MIXPRE=   1;  MAXMIX= -45

 Intra band minimization:
   WEIMIN = 0.0000     energy-eigenvalue tresh-hold
   EBREAK =  0.10E-08  absolut break condition
   DEPER  =   0.30     relativ break condition

   TIME   =   0.40     timestep for ELM

  volume/ion in A,a.u.               =      24.64       166.27
  Fermi-wavevector in a.u.,A,eV,Ry     =   1.299851  2.456361 22.988561  1.689612
  Thomas-Fermi vector in A             =   2.431088

 Write flags
   LWAVE        =      F    write WAVECAR
   LDOWNSAMPLE  =      F    k-point downsampling of WAVECAR
   LCHARG       =      F    write CHGCAR
   LVTOT        =      F    write LOCPOT, total local potential
   LVHAR        =      F    write LOCPOT, Hartree potential only
   LELF         =      F    write electronic localiz. function (ELF)
   LORBIT       =      0    0 simple, 1 ext, 2 COOP (PROOUT), +10 PAW based schemes


 Dipole corrections
   LMONO  =      F    monopole corrections only (constant potential shift)
   LDIPOL =      F    correct potential (dipole corrections)
   IDIPOL =      0    1-x, 2-y, 3-z, 4-all directions
   EPSILON=  1.0000000 bulk dielectric constant

 Exchange correlation treatment:
   GGA     =    PS    GGA type
   LEXCH   =    14    internal setting for exchange type
   VOSKOWN=      0    Vosko Wilk Nusair interpolation
   LHFCALC =     F    Hartree Fock is set to
   LHFONE  =     F    Hartree Fock one center treatment
   AEXX    =    0.0000 exact exchange contribution

 Linear response parameters
   LEPSILON=     F    determine dielectric tensor
   LRPA    =     F    only Hartree local field effects (RPA)
   LNABLA  =     F    use nabla operator in PAW spheres
   LVEL    =     F    velocity operator in full k-point grid
   LINTERFAST=   F  fast interpolation
   KINTER  =     0    interpolate to denser k-point grid
   CSHIFT  =0.1000    complex shift for real part using Kramers Kronig
   OMEGAMAX=  -1.0    maximum frequency
   DEG_THRESHOLD= 0.2000000E-02 threshold for treating states as degnerate
   RTIME   =   -0.100 relaxation time in fs
  (WPLASMAI=    0.000 imaginary part of plasma frequency in eV, 0.658/RTIME)
   DFIELD  = 0.0000000 0.0000000 0.0000000 field for delta impulse in time

 Orbital magnetization related:
   ORBITALMAG=     F  switch on orbital magnetization
   LCHIMAG   =     F  perturbation theory with respect to B field
   DQ        =  0.001000  dq finite difference perturbation B field
   LLRAUG    =     F  two centre corrections for induced B field



--------------------------------------------------------------------------------------------------------


 Static calculation
 charge density and potential will be updated during run
 non-spin polarized calculation
 Variant of blocked Davidson
 Davidson routine will perform the subspace rotation
 perform sub-space diagonalisation
    after iterative eigenvector-optimisation
 modified Broyden-mixing scheme, WC =      100.0
 initial mixing is a Kerker type mixing with AMIX =  0.4000 and BMIX =      1.0000
 Hartree-type preconditioning will be used
 using additional bands            5
 reciprocal scheme for non local part
 use partial core corrections
 calculate Harris-corrections to forces
   (improved forces if not selfconsistent)
 use gradient corrections
 use of overlap-Matrix (Vanderbilt PP)
 Gauss-broadening in eV      SIGMA  =   0.01


--------------------------------------------------------------------------------------------------------


  energy-cutoff  :      700.00
  volume of cell :       73.92
      direct lattice vectors                 reciprocal lattice vectors
     0.000000000  3.330979595  3.330979595    -0.150105993  0.150105993  0.150105993
     3.330979595  0.000000000  3.330979595     0.150105993 -0.150105993  0.150105993
     3.330979595  3.330979595  0.000000000     0.150105993  0.150105993 -0.150105993

  length of vectors
     4.710716519  4.710716519  4.710716519     0.259991207  0.259991207  0.259991207



 k-points in units of 2pi/SCALE and weight: KPOINTS
   0.00000000  0.00000000  0.00000000       0.000
  -0.01123011  0.01123011  0.01123011       0.004
  -0.02246022  0.02246022  0.02246022       0.004
  -0.03369033  0.03369033  0.03369033       0.004
  -0.04492043  0.04492043  0.04492043       0.004
  -0.05615054  0.05615054  0.05615054       0.004
  -0.06738065  0.06738065  0.06738065       0.004
   0.00000000 -0.00000000  0.02246022       0.003
  -0.01123011  0.01123011  0.03369033       0.011
  -0.02246022  0.02246022  0.04492043       0.011
  -0.03369033  0.03369033  0.05615054       0.011
  -0.04492043  0.04492043  0.06738065       0.011
  -0.05615054  0.05615054  0.07861076       0.011
   0.07861076 -0.07861076 -0.05615054       0.011
   0.06738065 -0.06738065 -0.04492043       0.011
   0.05615054 -0.05615054 -0.03369033       0.011
   0.04492043 -0.04492043 -0.02246022       0.011
   0.03369033 -0.03369033 -0.01123011       0.011
   0.02246022 -0.02246022  0.00000000       0.005
   0.00000000  0.00000000  0.04492043       0.003
  -0.01123011  0.01123011  0.05615054       0.011
  -0.02246022  0.02246022  0.06738065       0.011
  -0.03369033  0.03369033  0.07861076       0.011
  -0.04492043  0.04492043  0.08984087       0.011
   0.08984087 -0.08984087 -0.04492043       0.011
   0.07861076 -0.07861076 -0.03369033       0.011
   0.06738065 -0.06738065 -0.02246022       0.011
   0.05615054 -0.05615054 -0.01123011       0.011
   0.04492043 -0.04492043 -0.00000000       0.005
  -0.00000000  0.00000000  0.06738065       0.003
  -0.01123011  0.01123011  0.07861076       0.011
  -0.02246022  0.02246022  0.08984087       0.011
  -0.03369033  0.03369033  0.10107098       0.011
   0.10107098 -0.10107098 -0.03369033       0.011
   0.08984087 -0.08984087 -0.02246022       0.011
   0.07861076 -0.07861076 -0.01123011       0.011
   0.06738065 -0.06738065  0.00000000       0.005
   0.00000000  0.00000000  0.08984087       0.003
  -0.01123011  0.01123011  0.10107098       0.011
  -0.02246022  0.02246022  0.11230109       0.011
   0.11230109 -0.11230109 -0.02246022       0.011
   0.10107098 -0.10107098 -0.01123011       0.011
   0.08984087 -0.08984087 -0.00000000       0.005
  -0.00000000  0.00000000  0.11230109       0.003
  -0.01123011  0.01123011  0.12353119       0.011
   0.12353119 -0.12353119 -0.01123011       0.011
   0.11230109 -0.11230109 -0.00000000       0.005
  -0.00000000  0.00000000  0.13476130       0.003
   0.13476130 -0.13476130 -0.00000000       0.005
  -0.00000000  0.02246022  0.04492043       0.011
  -0.01123011  0.03369033  0.05615054       0.022
  -0.02246022  0.04492043  0.06738065       0.022
  -0.03369033  0.05615054  0.07861076       0.022
   0.10107098 -0.07861076 -0.05615054       0.022
   0.00000000  0.02246022  0.06738065       0.011
  -0.01123011  0.03369033  0.07861076       0.022
  -0.02246022  0.04492043  0.08984087       0.022
   0.11230109 -0.08984087 -0.04492043       0.022
   0.10107098 -0.07861076 -0.03369033       0.022
   0.08984087 -0.06738065 -0.02246022       0.022
   0.07861076 -0.05615054 -0.01123011       0.022
   0.06738065 -0.04492043  0.00000000       0.011
  -0.00000000  0.02246022  0.08984087       0.011
  -0.01123011  0.03369033  0.10107098       0.022
   0.12353119 -0.10107098 -0.03369033       0.022
   0.11230109 -0.08984087 -0.02246022       0.022
   0.10107098 -0.07861076 -0.01123011       0.022
   0.08984087 -0.06738065 -0.00000000       0.011
   0.00000000  0.02246022  0.11230109       0.011
   0.13476130 -0.11230109 -0.02246022       0.022
   0.12353119 -0.10107098 -0.01123011       0.022
   0.11230109 -0.08984087 -0.00000000       0.011
   0.14599141 -0.12353119 -0.01123011       0.011
   0.13476130 -0.11230109 -0.00000000       0.011
  -0.00000000  0.04492043  0.08984087       0.011
   0.13476130 -0.08984087 -0.04492043       0.022
   0.12353119 -0.07861076 -0.03369033       0.022
   0.14599141 -0.10107098 -0.03369033       0.011
   0.13476130 -0.08984087 -0.02246022       0.022
   0.12353119 -0.07861076 -0.01123011       0.022
   0.11230109 -0.06738065 -0.00000000       0.011
   0.14599141 -0.10107098 -0.01123011       0.011
   0.13476130 -0.08984087  0.00000000       0.011
   0.14599141 -0.07861076 -0.01123011       0.011

 k-points in reciprocal lattice and weights: KPOINTS
   0.00000000  0.00000000  0.00000000       0.000
   0.07692308 -0.00000000  0.00000000       0.004
   0.15384615 -0.00000000 -0.00000000       0.004
   0.23076923 -0.00000000  0.00000000       0.004
   0.30769231 -0.00000000 -0.00000000       0.004
   0.38461538  0.00000000 -0.00000000       0.004
   0.46153846  0.00000000 -0.00000000       0.004
   0.07692308  0.07692308  0.00000000       0.003
   0.15384615  0.07692308  0.00000000       0.011
   0.23076923  0.07692308  0.00000000       0.011
   0.30769231  0.07692308 -0.00000000       0.011
   0.38461538  0.07692308  0.00000000       0.011
   0.46153846  0.07692308  0.00000000       0.011
  -0.46153846  0.07692308 -0.00000000       0.011
  -0.38461538  0.07692308 -0.00000000       0.011
  -0.30769231  0.07692308 -0.00000000       0.011
  -0.23076923  0.07692308  0.00000000       0.011
  -0.15384615  0.07692308  0.00000000       0.011
  -0.07692308  0.07692308 -0.00000000       0.005
   0.15384615  0.15384615  0.00000000       0.003
   0.23076923  0.15384615  0.00000000       0.011
   0.30769231  0.15384615 -0.00000000       0.011
   0.38461538  0.15384615 -0.00000000       0.011
   0.46153846  0.15384615  0.00000000       0.011
  -0.46153846  0.15384615 -0.00000000       0.011
  -0.38461538  0.15384615 -0.00000000       0.011
  -0.30769231  0.15384615  0.00000000       0.011
  -0.23076923  0.15384615  0.00000000       0.011
  -0.15384615  0.15384615  0.00000000       0.005
   0.23076923  0.23076923  0.00000000       0.003
   0.30769231  0.23076923  0.00000000       0.011
   0.38461538  0.23076923  0.00000000       0.011
   0.46153846  0.23076923 -0.00000000       0.011
  -0.46153846  0.23076923  0.00000000       0.011
  -0.38461538  0.23076923  0.00000000       0.011
  -0.30769231  0.23076923  0.00000000       0.011
  -0.23076923  0.23076923 -0.00000000       0.005
   0.30769231  0.30769231  0.00000000       0.003
   0.38461538  0.30769231  0.00000000       0.011
   0.46153846  0.30769231  0.00000000       0.011
  -0.46153846  0.30769231  0.00000000       0.011
  -0.38461538  0.30769231  0.00000000       0.011
  -0.30769231  0.30769231  0.00000000       0.005
   0.38461538  0.38461538  0.00000000       0.003
   0.46153846  0.38461538  0.00000000       0.011
  -0.46153846  0.38461538  0.00000000       0.011
  -0.38461538  0.38461538  0.00000000       0.005
   0.46153846  0.46153846  0.00000000       0.003
  -0.46153846  0.46153846  0.00000000       0.005
   0.23076923  0.15384615  0.07692308       0.011
   0.30769231  0.15384615  0.07692308       0.022
   0.38461538  0.15384615  0.07692308       0.022
   0.46153846  0.15384615  0.07692308       0.022
  -0.46153846  0.15384615  0.07692308       0.022
   0.30769231  0.23076923  0.07692308       0.011
   0.38461538  0.23076923  0.07692308       0.022
   0.46153846  0.23076923  0.07692308       0.022
  -0.46153846  0.23076923  0.07692308       0.022
  -0.38461538  0.23076923  0.07692308       0.022
  -0.30769231  0.23076923  0.07692308       0.022
  -0.23076923  0.23076923  0.07692308       0.022
  -0.15384615  0.23076923  0.07692308       0.011
   0.38461538  0.30769231  0.07692308       0.011
   0.46153846  0.30769231  0.07692308       0.022
  -0.46153846  0.30769231  0.07692308       0.022
  -0.38461538  0.30769231  0.07692308       0.022
  -0.30769231  0.30769231  0.07692308       0.022
  -0.23076923  0.30769231  0.07692308       0.011
   0.46153846  0.38461538  0.07692308       0.011
  -0.46153846  0.38461538  0.07692308       0.022
  -0.38461538  0.38461538  0.07692308       0.022
  -0.30769231  0.38461538  0.07692308       0.011
  -0.46153846  0.46153846  0.07692308       0.011
  -0.38461538  0.46153846  0.07692308       0.011
   0.46153846  0.30769231  0.15384615       0.011
  -0.46153846  0.30769231  0.15384615       0.022
  -0.38461538  0.30769231  0.15384615       0.022
  -0.46153846  0.38461538  0.15384615       0.011
  -0.38461538  0.38461538  0.15384615       0.022
  -0.30769231  0.38461538  0.15384615       0.022
  -0.23076923  0.38461538  0.15384615       0.011
  -0.38461538  0.46153846  0.15384615       0.011
  -0.30769231  0.46153846  0.15384615       0.011
  -0.30769231  0.46153846  0.23076923       0.011

 position of ions in fractional coordinates (direct lattice)
   0.25000000  0.25000000  0.25000000
   0.75000000  0.75000000  0.75000000
   0.00000000  0.00000000  0.00000000

 position of ions in cartesian coordinates  (Angst):
   1.66548980  1.66548980  1.66548980
   4.99646939  4.99646939  4.99646939
   0.00000000  0.00000000  0.00000000



--------------------------------------------------------------------------------------------------------


 k-point  1 :   0.0000 0.0000 0.0000  plane waves:    3119
 k-point  2 :   0.0769-0.0000 0.0000  plane waves:    3116
 k-point  3 :   0.1538-0.0000-0.0000  plane waves:    3110
 k-point  4 :   0.2308-0.0000 0.0000  plane waves:    3110
 k-point  5 :   0.3077-0.0000-0.0000  plane waves:    3112
 k-point  6 :   0.3846 0.0000-0.0000  plane waves:    3103
 k-point  7 :   0.4615 0.0000-0.0000  plane waves:    3121
 k-point  8 :   0.0769 0.0769 0.0000  plane waves:    3107
 k-point  9 :   0.1538 0.0769 0.0000  plane waves:    3101
 k-point 10 :   0.2308 0.0769 0.0000  plane waves:    3095
 k-point 11 :   0.3077 0.0769-0.0000  plane waves:    3104
 k-point 12 :   0.3846 0.0769 0.0000  plane waves:    3101
 k-point 13 :   0.4615 0.0769 0.0000  plane waves:    3113
 k-point 14 :  -0.4615 0.0769-0.0000  plane waves:    3111
 k-point 15 :  -0.3846 0.0769-0.0000  plane waves:    3105
 k-point 16 :  -0.3077 0.0769-0.0000  plane waves:    3098
 k-point 17 :  -0.2308 0.0769 0.0000  plane waves:    3102
 k-point 18 :  -0.1538 0.0769 0.0000  plane waves:    3106
 k-point 19 :  -0.0769 0.0769-0.0000  plane waves:    3115
 k-point 20 :   0.1538 0.1538 0.0000  plane waves:    3123
 k-point 21 :   0.2308 0.1538 0.0000  plane waves:    3111
 k-point 22 :   0.3077 0.1538-0.0000  plane waves:    3107
 k-point 23 :   0.3846 0.1538-0.0000  plane waves:    3097
 k-point 24 :   0.4615 0.1538 0.0000  plane waves:    3098
 k-point 25 :  -0.4615 0.1538-0.0000  plane waves:    3108
 k-point 26 :  -0.3846 0.1538-0.0000  plane waves:    3111
 k-point 27 :  -0.3077 0.1538 0.0000  plane waves:    3093
 k-point 28 :  -0.2308 0.1538 0.0000  plane waves:    3106
 k-point 29 :  -0.1538 0.1538 0.0000  plane waves:    3106
 k-point 30 :   0.2308 0.2308 0.0000  plane waves:    3102
 k-point 31 :   0.3077 0.2308 0.0000  plane waves:    3109
 k-point 32 :   0.3846 0.2308 0.0000  plane waves:    3101
 k-point 33 :   0.4615 0.2308-0.0000  plane waves:    3116
 k-point 34 :  -0.4615 0.2308 0.0000  plane waves:    3111
 k-point 35 :  -0.3846 0.2308 0.0000  plane waves:    3117
 k-point 36 :  -0.3077 0.2308 0.0000  plane waves:    3115
 k-point 37 :  -0.2308 0.2308-0.0000  plane waves:    3114
 k-point 38 :   0.3077 0.3077 0.0000  plane waves:    3090
 k-point 39 :   0.3846 0.3077 0.0000  plane waves:    3106
 k-point 40 :   0.4615 0.3077 0.0000  plane waves:    3114
 k-point 41 :  -0.4615 0.3077 0.0000  plane waves:    3117
 k-point 42 :  -0.3846 0.3077 0.0000  plane waves:    3122
 k-point 43 :  -0.3077 0.3077 0.0000  plane waves:    3112
 k-point 44 :   0.3846 0.3846 0.0000  plane waves:    3102
 k-point 45 :   0.4615 0.3846 0.0000  plane waves:    3120
 k-point 46 :  -0.4615 0.3846 0.0000  plane waves:    3122
 k-point 47 :  -0.3846 0.3846 0.0000  plane waves:    3110
 k-point 48 :   0.4615 0.4615 0.0000  plane waves:    3102
 k-point 49 :  -0.4615 0.4615 0.0000  plane waves:    3104
 k-point 50 :   0.2308 0.1538 0.0769  plane waves:    3104
 k-point 51 :   0.3077 0.1538 0.0769  plane waves:    3105
 k-point 52 :   0.3846 0.1538 0.0769  plane waves:    3101
 k-point 53 :   0.4615 0.1538 0.0769  plane waves:    3100
 k-point 54 :  -0.4615 0.1538 0.0769  plane waves:    3112
 k-point 55 :   0.3077 0.2308 0.0769  plane waves:    3102
 k-point 56 :   0.3846 0.2308 0.0769  plane waves:    3104
 k-point 57 :   0.4615 0.2308 0.0769  plane waves:    3107
 k-point 58 :  -0.4615 0.2308 0.0769  plane waves:    3102
 k-point 59 :  -0.3846 0.2308 0.0769  plane waves:    3115
 k-point 60 :  -0.3077 0.2308 0.0769  plane waves:    3104
 k-point 61 :  -0.2308 0.2308 0.0769  plane waves:    3101
 k-point 62 :  -0.1538 0.2308 0.0769  plane waves:    3097
 k-point 63 :   0.3846 0.3077 0.0769  plane waves:    3106
 k-point 64 :   0.4615 0.3077 0.0769  plane waves:    3102
 k-point 65 :  -0.4615 0.3077 0.0769  plane waves:    3114
 k-point 66 :  -0.3846 0.3077 0.0769  plane waves:    3121
 k-point 67 :  -0.3077 0.3077 0.0769  plane waves:    3113
 k-point 68 :  -0.2308 0.3077 0.0769  plane waves:    3105
 k-point 69 :   0.4615 0.3846 0.0769  plane waves:    3108
 k-point 70 :  -0.4615 0.3846 0.0769  plane waves:    3112
 k-point 71 :  -0.3846 0.3846 0.0769  plane waves:    3125
 k-point 72 :  -0.3077 0.3846 0.0769  plane waves:    3125
 k-point 73 :  -0.4615 0.4615 0.0769  plane waves:    3117
 k-point 74 :  -0.3846 0.4615 0.0769  plane waves:    3120
 k-point 75 :   0.4615 0.3077 0.1538  plane waves:    3095
 k-point 76 :  -0.4615 0.3077 0.1538  plane waves:    3105
 k-point 77 :  -0.3846 0.3077 0.1538  plane waves:    3113
 k-point 78 :  -0.4615 0.3846 0.1538  plane waves:    3110
 k-point 79 :  -0.3846 0.3846 0.1538  plane waves:    3112
 k-point 80 :  -0.3077 0.3846 0.1538  plane waves:    3109
 k-point 81 :  -0.2308 0.3846 0.1538  plane waves:    3115
 k-point 82 :  -0.3846 0.4615 0.1538  plane waves:    3122
 k-point 83 :  -0.3077 0.4615 0.1538  plane waves:    3114
 k-point 84 :  -0.3077 0.4615 0.2308  plane waves:    3108

 maximum and minimum number of plane-waves per node :       791      761

 maximum number of plane-waves:      3125
 maximum index in each direction:
   IXMAX=   10   IYMAX=   10   IZMAX=   10
   IXMIN=  -10   IYMIN=  -10   IZMIN=  -10


 parallel 3D FFT for wavefunctions:
    minimum data exchange during FFTs selected (reduces bandwidth)
 parallel 3D FFT for charge:
    minimum data exchange during FFTs selected (reduces bandwidth)


 total amount of memory used by VASP MPI-rank0    97356. kBytes
=======================================================================

   base      :      30000. kBytes
   nonl-proj :      50873. kBytes
   fftplans  :       6281. kBytes
   grid      :       3541. kBytes
   one-center:         49. kBytes
   wavefun   :       6612. kBytes

     INWAV:  cpu time    0.0003: real time    0.0104
 Broyden mixing: mesh for mixing (old mesh)
   NGX = 21   NGY = 21   NGZ = 21
  (NGX  = 84   NGY  = 84   NGZ  = 84)
  gives a total of   9261 points

 initial charge density was supplied:
 charge density of overlapping atoms calculated
 number of electron      37.0000000 magnetization
 keeping initial charge density in first step


--------------------------------------------------------------------------------------------------------


 Maximum index for augmentation-charges        32865 (set IRDMAX)


--------------------------------------------------------------------------------------------------------


 First call to EWALD:  gamma=   0.422
 Maximum number of real-space cells 3x 3x 3
 Maximum number of reciprocal cells 3x 3x 3

    FEWALD:  cpu time    0.0053: real time    0.0058


--------------------------------------- Iteration      1(   1)  ---------------------------------------


    POTLOK:  cpu time    0.0553: real time    0.1157
    SETDIJ:  cpu time    0.1065: real time    0.1071
     EDDAV:  cpu time    1.5102: real time    1.5221
       DOS:  cpu time    0.0038: real time    0.0049
    --------------------------------------------
      LOOP:  cpu time    1.6761: real time    1.7506

 eigenvalue-minimisations  :  4032
 total energy-change (2. order) : 0.4505779E+03  (-0.2068961E+04)
 number of electron      37.0000000 magnetization
 augmentation part       37.0000000 magnetization

 Free energy of the ion-electron system (eV)
  ---------------------------------------------------
  alpha Z        PSCENC =       232.44315197
  Ewald energy   TEWEN  =     -3215.92493248
  -Hartree energ DENC   =      -719.36877319
  -exchange      EXHF   =         0.00000000
  -V(xc)+E(xc)   XCENC  =        69.24043281
  PAW double counting   =      3147.30828992    -3070.62761383
  entropy T*S    EENTRO =        -0.00017053
  eigenvalues    EBANDS =       332.83406036
  atomic energy  EATOM  =      3674.67342263
  Solvation  Ediel_sol  =         0.00000000
  ---------------------------------------------------
  free energy    TOTEN  =       450.57786767 eV

  energy without entropy =      450.57803819  energy(sigma->0) =      450.57795293


--------------------------------------------------------------------------------------------------------




--------------------------------------- Iteration      1(   2)  ---------------------------------------


     EDDAV:  cpu time    1.5515: real time    1.5842
       DOS:  cpu time    0.0031: real time    0.0037
    --------------------------------------------
      LOOP:  cpu time    1.5546: real time    1.5892

 eigenvalue-minimisations  :  4160
 total energy-change (2. order) :-0.4037499E+03  (-0.3951858E+03)
 number of electron      37.0000000 magnetization
 augmentation part       37.0000000 magnetization

 Free energy of the ion-electron system (eV)
  ---------------------------------------------------
  alpha Z        PSCENC =       232.44315197
  Ewald energy   TEWEN  =     -3215.92493248
  -Hartree energ DENC   =      -719.36877319
  -exchange      EXHF   =         0.00000000
  -V(xc)+E(xc)   XCENC  =        69.24043281
  PAW double counting   =      3147.30828992    -3070.62761383
  entropy T*S    EENTRO =        -0.00027183
  eigenvalues    EBANDS =       -70.91576462
  atomic energy  EATOM  =      3674.67342263
  Solvation  Ediel_sol  =         0.00000000
  ---------------------------------------------------
  free energy    TOTEN  =        46.82794139 eV

  energy without entropy =       46.82821322  energy(sigma->0) =       46.82807730


--------------------------------------------------------------------------------------------------------




--------------------------------------- Iteration      1(   3)  ---------------------------------------


     EDDAV:  cpu time    1.9297: real time    1.9701
       DOS:  cpu time    0.0032: real time    0.0038
    --------------------------------------------
      LOOP:  cpu time    1.9329: real time    1.9731

 eigenvalue-minimisations  :  5544
 total energy-change (2. order) :-0.6517828E+02  (-0.6444748E+02)
 number of electron      37.0000000 magnetization
 augmentation part       37.0000000 magnetization

 Free energy of the ion-electron system (eV)
  ---------------------------------------------------
  alpha Z        PSCENC =       232.44315197
  Ewald energy   TEWEN  =     -3215.92493248
  -Hartree energ DENC   =      -719.36877319
  -exchange      EXHF   =         0.00000000
  -V(xc)+E(xc)   XCENC  =        69.24043281
  PAW double counting   =      3147.30828992    -3070.62761383
  entropy T*S    EENTRO =        -0.00030601
  eigenvalues    EBANDS =      -136.09400659
  atomic energy  EATOM  =      3674.67342263
  Solvation  Ediel_sol  =         0.00000000
  ---------------------------------------------------
  free energy    TOTEN  =       -18.35033477 eV

  energy without entropy =      -18.35002876  energy(sigma->0) =      -18.35018176


--------------------------------------------------------------------------------------------------------




--------------------------------------- Iteration      1(   4)  ---------------------------------------


     EDDAV:  cpu time    2.4160: real time    2.4345
       DOS:  cpu time    0.0029: real time    0.0044
    --------------------------------------------
      LOOP:  cpu time    2.4189: real time    2.4393

 eigenvalue-minimisations  :  7336
 total energy-change (2. order) :-0.4198952E+01  (-0.4180936E+01)
 number of electron      37.0000000 magnetization
 augmentation part       37.0000000 magnetization

 Free energy of the ion-electron system (eV)
  ---------------------------------------------------
  alpha Z        PSCENC =       232.44315197
  Ewald energy   TEWEN  =     -3215.92493248
  -Hartree energ DENC   =      -719.36877319
  -exchange      EXHF   =         0.00000000
  -V(xc)+E(xc)   XCENC  =        69.24043281
  PAW double counting   =      3147.30828992    -3070.62761383
  entropy T*S    EENTRO =        -0.00026586
  eigenvalues    EBANDS =      -140.29299924
  atomic energy  EATOM  =      3674.67342263
  Solvation  Ediel_sol  =         0.00000000
  ---------------------------------------------------
  free energy    TOTEN  =       -22.54928727 eV

  energy without entropy =      -22.54902141  energy(sigma->0) =      -22.54915434


--------------------------------------------------------------------------------------------------------




--------------------------------------- Iteration      1(   5)  ---------------------------------------


     EDDAV:  cpu time    1.9514: real time    1.9779
       DOS:  cpu time    0.0030: real time    0.0034
    CHARGE:  cpu time    0.3550: real time    0.3563
    MIXING:  cpu time    0.0059: real time    0.0066
    --------------------------------------------
      LOOP:  cpu time    2.3153: real time    2.3432

 eigenvalue-minimisations  :  5616
 total energy-change (2. order) :-0.1115808E+00  (-0.1115516E+00)
 number of electron      37.0000000 magnetization
 augmentation part        5.9518406 magnetization

 Broyden mixing:
  rms(total) = 0.37964E+01    rms(broyden)= 0.37964E+01
  rms(prec ) = 0.40643E+01
  weight for this iteration     100.00

 Free energy of the ion-electron system (eV)
  ---------------------------------------------------
  alpha Z        PSCENC =       232.44315197
  Ewald energy   TEWEN  =     -3215.92493248
  -Hartree energ DENC   =      -719.36877319
  -exchange      EXHF   =         0.00000000
  -V(xc)+E(xc)   XCENC  =        69.24043281
  PAW double counting   =      3147.30828992    -3070.62761383
  entropy T*S    EENTRO =        -0.00026639
  eigenvalues    EBANDS =      -140.40457947
  atomic energy  EATOM  =      3674.67342263
  Solvation  Ediel_sol  =         0.00000000
  ---------------------------------------------------
  free energy    TOTEN  =       -22.66086803 eV

  energy without entropy =      -22.66060164  energy(sigma->0) =      -22.66073483


--------------------------------------------------------------------------------------------------------




--------------------------------------- Iteration      1(   6)  ---------------------------------------


    POTLOK:  cpu time    0.0578: real time    0.0797
    SETDIJ:  cpu time    0.0981: real time    0.0982
     EDDAV:  cpu time    1.7684: real time    1.7689
       DOS:  cpu time    0.0030: real time    0.0038
    CHARGE:  cpu time    0.3194: real time    0.3195
    MIXING:  cpu time    0.0048: real time    0.0051
    --------------------------------------------
      LOOP:  cpu time    2.2515: real time    2.2773

 eigenvalue-minimisations  :  5032
 total energy-change (2. order) : 0.8260969E+00  (-0.1522089E+00)
 number of electron      37.0000000 magnetization
 augmentation part        6.0351171 magnetization

 Broyden mixing:
  rms(total) = 0.22908E+01    rms(broyden)= 0.22908E+01
  rms(prec ) = 0.23875E+01
  weight for this iteration     100.00

 eigenvalues of (default mixing * dielectric matrix)
  average eigenvalue GAMMA=   2.4732
  2.4732

 Free energy of the ion-electron system (eV)
  ---------------------------------------------------
  alpha Z        PSCENC =       232.44315197
  Ewald energy   TEWEN  =     -3215.92493248
  -Hartree energ DENC   =      -703.54063234
  -exchange      EXHF   =         0.00000000
  -V(xc)+E(xc)   XCENC  =        68.77979306
  PAW double counting   =      3537.70581119    -3465.94157807
  entropy T*S    EENTRO =        -0.00024746
  eigenvalues    EBANDS =      -150.02955959
  atomic energy  EATOM  =      3674.67342263
  Solvation  Ediel_sol  =         0.00000000
  ---------------------------------------------------
  free energy    TOTEN  =       -21.83477109 eV

  energy without entropy =      -21.83452363  energy(sigma->0) =      -21.83464736


--------------------------------------------------------------------------------------------------------




--------------------------------------- Iteration      1(   7)  ---------------------------------------


    POTLOK:  cpu time    0.0480: real time    0.0729
    SETDIJ:  cpu time    0.0973: real time    0.0975
     EDDAV:  cpu time    2.0917: real time    2.0923
       DOS:  cpu time    0.0029: real time    0.0032
    CHARGE:  cpu time    0.2947: real time    0.2947
    MIXING:  cpu time    0.0056: real time    0.0058
    --------------------------------------------
      LOOP:  cpu time    2.5404: real time    2.5642

 eigenvalue-minimisations  :  6080
 total energy-change (2. order) : 0.1376170E+00  (-0.1979381E+00)
 number of electron      37.0000000 magnetization
 augmentation part        5.9706143 magnetization

 Broyden mixing:
  rms(total) = 0.60620E+00    rms(broyden)= 0.60620E+00
  rms(prec ) = 0.70746E+00
  weight for this iteration     100.00

 eigenvalues of (default mixing * dielectric matrix)
  average eigenvalue GAMMA=   2.0885
  1.0956  3.0814

 Free energy of the ion-electron system (eV)
  ---------------------------------------------------
  alpha Z        PSCENC =       232.44315197
  Ewald energy   TEWEN  =     -3215.92493248
  -Hartree energ DENC   =      -690.93832606
  -exchange      EXHF   =         0.00000000
  -V(xc)+E(xc)   XCENC  =        68.57089948
  PAW double counting   =      4074.99595311    -4008.84351255
  entropy T*S    EENTRO =        -0.00020754
  eigenvalues    EBANDS =      -156.67360261
  atomic energy  EATOM  =      3674.67342263
  Solvation  Ediel_sol  =         0.00000000
  ---------------------------------------------------
  free energy    TOTEN  =       -21.69715405 eV

  energy without entropy =      -21.69694651  energy(sigma->0) =      -21.69705028


--------------------------------------------------------------------------------------------------------




--------------------------------------- Iteration      1(   8)  ---------------------------------------


    POTLOK:  cpu time    0.0445: real time    0.0707
    SETDIJ:  cpu time    0.0966: real time    0.0970
     EDDAV:  cpu time    1.8251: real time    1.8253
       DOS:  cpu time    0.0030: real time    0.0042
    CHARGE:  cpu time    0.2951: real time    0.2951
    MIXING:  cpu time    0.0058: real time    0.0058
    --------------------------------------------
      LOOP:  cpu time    2.2699: real time    2.2977

 eigenvalue-minimisations  :  5352
 total energy-change (2. order) : 0.3801594E-01  (-0.3219108E-01)
 number of electron      37.0000000 magnetization
 augmentation part        5.9408161 magnetization

 Broyden mixing:
  rms(total) = 0.35300E+00    rms(broyden)= 0.35300E+00
  rms(prec ) = 0.39523E+00
  weight for this iteration     100.00

 eigenvalues of (default mixing * dielectric matrix)
  average eigenvalue GAMMA=   1.9213
  3.5068  1.5249  0.7323

 Free energy of the ion-electron system (eV)
  ---------------------------------------------------
  alpha Z        PSCENC =       232.44315197
  Ewald energy   TEWEN  =     -3215.92493248
  -Hartree energ DENC   =      -690.63243881
  -exchange      EXHF   =         0.00000000
  -V(xc)+E(xc)   XCENC  =        68.56946822
  PAW double counting   =      4126.78248615    -4060.87558035
  entropy T*S    EENTRO =        -0.00017718
  eigenvalues    EBANDS =      -156.69453826
  atomic energy  EATOM  =      3674.67342263
  Solvation  Ediel_sol  =         0.00000000
  ---------------------------------------------------
  free energy    TOTEN  =       -21.65913811 eV

  energy without entropy =      -21.65896093  energy(sigma->0) =      -21.65904952


--------------------------------------------------------------------------------------------------------




--------------------------------------- Iteration      1(   9)  ---------------------------------------


    POTLOK:  cpu time    0.0439: real time    0.0633
    SETDIJ:  cpu time    0.0981: real time    0.0983
     EDDAV:  cpu time    2.0347: real time    2.0351
       DOS:  cpu time    0.0030: real time    0.0033
    CHARGE:  cpu time    0.2969: real time    0.2972
    MIXING:  cpu time    0.0043: real time    0.0044
    --------------------------------------------
      LOOP:  cpu time    2.4811: real time    2.5057

 eigenvalue-minimisations  :  6032
 total energy-change (2. order) : 0.6601802E-02  (-0.1365381E-01)
 number of electron      37.0000000 magnetization
 augmentation part        5.9400896 magnetization

 Broyden mixing:
  rms(total) = 0.30497E+00    rms(broyden)= 0.30497E+00
  rms(prec ) = 0.31451E+00
  weight for this iteration     100.00

 eigenvalues of (default mixing * dielectric matrix)
  average eigenvalue GAMMA=   1.4387
  2.4229  1.3118  1.3118  0.7083

 Free energy of the ion-electron system (eV)
  ---------------------------------------------------
  alpha Z        PSCENC =       232.44315197
  Ewald energy   TEWEN  =     -3215.92493248
  -Hartree energ DENC   =      -692.86213201
  -exchange      EXHF   =         0.00000000
  -V(xc)+E(xc)   XCENC  =        68.59747285
  PAW double counting   =      4194.32286554    -4128.29681817
  entropy T*S    EENTRO =        -0.00021137
  eigenvalues    EBANDS =      -154.60535527
  atomic energy  EATOM  =      3674.67342263
  Solvation  Ediel_sol  =         0.00000000
  ---------------------------------------------------
  free energy    TOTEN  =       -21.65253631 eV

  energy without entropy =      -21.65232494  energy(sigma->0) =      -21.65243062


--------------------------------------------------------------------------------------------------------




--------------------------------------- Iteration      1(  10)  ---------------------------------------


    POTLOK:  cpu time    0.0480: real time    0.0672
    SETDIJ:  cpu time    0.0944: real time    0.0945
     EDDAV:  cpu time    1.8321: real time    1.8323
       DOS:  cpu time    0.0029: real time    0.0031
    CHARGE:  cpu time    0.2963: real time    0.2964
    MIXING:  cpu time    0.0061: real time    0.0062
    --------------------------------------------
      LOOP:  cpu time    2.2797: real time    2.2983

 eigenvalue-minimisations  :  5408
 total energy-change (2. order) : 0.4148084E-02  (-0.2329298E-02)
 number of electron      37.0000000 magnetization
 augmentation part        5.9430079 magnetization

 Broyden mixing:
  rms(total) = 0.66596E-01    rms(broyden)= 0.66596E-01
  rms(prec ) = 0.68440E-01
  weight for this iteration     100.00

 eigenvalues of (default mixing * dielectric matrix)
  average eigenvalue GAMMA=   1.4438
  2.3269  1.7872  1.5489  0.8401  0.7160

 Free energy of the ion-electron system (eV)
  ---------------------------------------------------
  alpha Z        PSCENC =       232.44315197
  Ewald energy   TEWEN  =     -3215.92493248
  -Hartree energ DENC   =      -693.03653844
  -exchange      EXHF   =         0.00000000
  -V(xc)+E(xc)   XCENC  =        68.58781262
  PAW double counting   =      4127.41384876    -4060.97169642
  entropy T*S    EENTRO =        -0.00023081
  eigenvalues    EBANDS =      -154.83322605
  atomic energy  EATOM  =      3674.67342263
  Solvation  Ediel_sol  =         0.00000000
  ---------------------------------------------------
  free energy    TOTEN  =       -21.64838823 eV

  energy without entropy =      -21.64815742  energy(sigma->0) =      -21.64827282


--------------------------------------------------------------------------------------------------------




--------------------------------------- Iteration      1(  11)  ---------------------------------------


    POTLOK:  cpu time    0.0373: real time    0.0645
    SETDIJ:  cpu time    0.0968: real time    0.0969
     EDDAV:  cpu time    1.9193: real time    1.9196
       DOS:  cpu time    0.0030: real time    0.0032
    CHARGE:  cpu time    0.2950: real time    0.2950
    MIXING:  cpu time    0.0055: real time    0.0056
    --------------------------------------------
      LOOP:  cpu time    2.3568: real time    2.3822

 eigenvalue-minimisations  :  5632
 total energy-change (2. order) :-0.1117656E-03  (-0.1295564E-03)
 number of electron      37.0000000 magnetization
 augmentation part        5.9434639 magnetization

 Broyden mixing:
  rms(total) = 0.40457E-01    rms(broyden)= 0.40457E-01
  rms(prec ) = 0.42544E-01
  weight for this iteration     100.00

 eigenvalues of (default mixing * dielectric matrix)
  average eigenvalue GAMMA=   1.4063
  2.6000  2.0195  1.2743  0.6824  0.9308  0.9308

 Free energy of the ion-electron system (eV)
  ---------------------------------------------------
  alpha Z        PSCENC =       232.44315197
  Ewald energy   TEWEN  =     -3215.92493248
  -Hartree energ DENC   =      -693.12249981
  -exchange      EXHF   =         0.00000000
  -V(xc)+E(xc)   XCENC  =        68.58096348
  PAW double counting   =      4136.67653414    -4070.18898000
  entropy T*S    EENTRO =        -0.00023243
  eigenvalues    EBANDS =      -154.78592750
  atomic energy  EATOM  =      3674.67342263
  Solvation  Ediel_sol  =         0.00000000
  ---------------------------------------------------
  free energy    TOTEN  =       -21.64849999 eV

  energy without entropy =      -21.64826756  energy(sigma->0) =      -21.64838378


--------------------------------------------------------------------------------------------------------




--------------------------------------- Iteration      1(  12)  ---------------------------------------


    POTLOK:  cpu time    0.0464: real time    0.0635
    SETDIJ:  cpu time    0.0943: real time    0.0961
     EDDAV:  cpu time    1.9547: real time    1.9549
       DOS:  cpu time    0.0031: real time    0.0040
    CHARGE:  cpu time    0.2975: real time    0.2976
    MIXING:  cpu time    0.0047: real time    0.0048
    --------------------------------------------
      LOOP:  cpu time    2.4007: real time    2.4226

 eigenvalue-minimisations  :  5728
 total energy-change (2. order) : 0.5859465E-04  (-0.2764459E-04)
 number of electron      37.0000000 magnetization
 augmentation part        5.9440786 magnetization

 Broyden mixing:
  rms(total) = 0.10641E-01    rms(broyden)= 0.10641E-01
  rms(prec ) = 0.11352E-01
  weight for this iteration     100.00

 eigenvalues of (default mixing * dielectric matrix)
  average eigenvalue GAMMA=   1.4461
  2.5643  2.2852  1.3846  0.6904  1.1152  1.0413  1.0413

 Free energy of the ion-electron system (eV)
  ---------------------------------------------------
  alpha Z        PSCENC =       232.44315197
  Ewald energy   TEWEN  =     -3215.92493248
  -Hartree energ DENC   =      -693.11967511
  -exchange      EXHF   =         0.00000000
  -V(xc)+E(xc)   XCENC  =        68.57892283
  PAW double counting   =      4140.92308170    -4074.41433376
  entropy T*S    EENTRO =        -0.00023060
  eigenvalues    EBANDS =      -154.80784858
  atomic energy  EATOM  =      3674.67342263
  Solvation  Ediel_sol  =         0.00000000
  ---------------------------------------------------
  free energy    TOTEN  =       -21.64844140 eV

  energy without entropy =      -21.64821080  energy(sigma->0) =      -21.64832610


--------------------------------------------------------------------------------------------------------




--------------------------------------- Iteration      1(  13)  ---------------------------------------


    POTLOK:  cpu time    0.0365: real time    0.0645
    SETDIJ:  cpu time    0.0959: real time    0.0961
     EDDAV:  cpu time    2.1040: real time    2.1053
       DOS:  cpu time    0.0031: real time    0.0038
    CHARGE:  cpu time    0.2968: real time    0.2969
    MIXING:  cpu time    0.0050: real time    0.0050
    --------------------------------------------
      LOOP:  cpu time    2.5413: real time    2.5714

 eigenvalue-minimisations  :  6392
 total energy-change (2. order) :-0.7353501E-06  (-0.7622507E-05)
 number of electron      37.0000000 magnetization
 augmentation part        5.9450116 magnetization

 Broyden mixing:
  rms(total) = 0.31260E-02    rms(broyden)= 0.31260E-02
  rms(prec ) = 0.34132E-02
  weight for this iteration     100.00

 eigenvalues of (default mixing * dielectric matrix)
  average eigenvalue GAMMA=   1.3981
  2.6261  2.0547  1.4793  1.4793  0.6955  0.9187  0.9656  0.9656

 Free energy of the ion-electron system (eV)
  ---------------------------------------------------
  alpha Z        PSCENC =       232.44315197
  Ewald energy   TEWEN  =     -3215.92493248
  -Hartree energ DENC   =      -693.11415865
  -exchange      EXHF   =         0.00000000
  -V(xc)+E(xc)   XCENC  =        68.57640756
  PAW double counting   =      4142.79102526    -4076.24963929
  entropy T*S    EENTRO =        -0.00022967
  eigenvalues    EBANDS =      -154.84348946
  atomic energy  EATOM  =      3674.67342263
  Solvation  Ediel_sol  =         0.00000000
  ---------------------------------------------------
  free energy    TOTEN  =       -21.64844213 eV

  energy without entropy =      -21.64821246  energy(sigma->0) =      -21.64832730


--------------------------------------------------------------------------------------------------------




--------------------------------------- Iteration      1(  14)  ---------------------------------------


    POTLOK:  cpu time    0.0383: real time    0.0734
    SETDIJ:  cpu time    0.0957: real time    0.0958
     EDDAV:  cpu time    1.7877: real time    1.7879
       DOS:  cpu time    0.0031: real time    0.0050
    CHARGE:  cpu time    0.2965: real time    0.2967
    MIXING:  cpu time    0.0050: real time    0.0051
    --------------------------------------------
      LOOP:  cpu time    2.2263: real time    2.2650

 eigenvalue-minimisations  :  5176
 total energy-change (2. order) : 0.5398160E-06  (-0.4120461E-06)
 number of electron      37.0000000 magnetization
 augmentation part        5.9451604 magnetization

 Broyden mixing:
  rms(total) = 0.21217E-02    rms(broyden)= 0.21217E-02
  rms(prec ) = 0.22309E-02
  weight for this iteration     100.00

 eigenvalues of (default mixing * dielectric matrix)
  average eigenvalue GAMMA=   1.4718
  2.5994  2.1133  1.8140  1.8140  0.6930  1.0791  1.0791  1.0274  1.0274

 Free energy of the ion-electron system (eV)
  ---------------------------------------------------
  alpha Z        PSCENC =       232.44315197
  Ewald energy   TEWEN  =     -3215.92493248
  -Hartree energ DENC   =      -693.11387232
  -exchange      EXHF   =         0.00000000
  -V(xc)+E(xc)   XCENC  =        68.57667296
  PAW double counting   =      4142.70480761    -4076.16426099
  entropy T*S    EENTRO =        -0.00022979
  eigenvalues    EBANDS =      -154.84320119
  atomic energy  EATOM  =      3674.67342263
  Solvation  Ediel_sol  =         0.00000000
  ---------------------------------------------------
  free energy    TOTEN  =       -21.64844159 eV

  energy without entropy =      -21.64821181  energy(sigma->0) =      -21.64832670


--------------------------------------------------------------------------------------------------------




--------------------------------------- Iteration      1(  15)  ---------------------------------------


    POTLOK:  cpu time    0.0367: real time    0.0723
    SETDIJ:  cpu time    0.0971: real time    0.0973
     EDDAV:  cpu time    2.1464: real time    2.1466
       DOS:  cpu time    0.0032: real time    0.0034
    CHARGE:  cpu time    0.2965: real time    0.2971
    MIXING:  cpu time    0.0055: real time    0.0060
    --------------------------------------------
      LOOP:  cpu time    2.5854: real time    2.6242

 eigenvalue-minimisations  :  6528
 total energy-change (2. order) : 0.2992838E-06  (-0.1056210E-06)
 number of electron      37.0000000 magnetization
 augmentation part        5.9450394 magnetization

 Broyden mixing:
  rms(total) = 0.13259E-03    rms(broyden)= 0.13237E-03
  rms(prec ) = 0.15904E-03
  weight for this iteration     100.00

 eigenvalues of (default mixing * dielectric matrix)
  average eigenvalue GAMMA=   1.4466
  2.6455  2.3150  2.1625  1.4890  1.0726  1.0726  0.6929  1.0928  0.9615  0.9615

 Free energy of the ion-electron system (eV)
  ---------------------------------------------------
  alpha Z        PSCENC =       232.44315197
  Ewald energy   TEWEN  =     -3215.92493248
  -Hartree energ DENC   =      -693.11524136
  -exchange      EXHF   =         0.00000000
  -V(xc)+E(xc)   XCENC  =        68.57697211
  PAW double counting   =      4142.51657373    -4075.97569185
  entropy T*S    EENTRO =        -0.00022984
  eigenvalues    EBANDS =      -154.84246621
  atomic energy  EATOM  =      3674.67342263
  Solvation  Ediel_sol  =         0.00000000
  ---------------------------------------------------
  free energy    TOTEN  =       -21.64844129 eV

  energy without entropy =      -21.64821145  energy(sigma->0) =      -21.64832637


--------------------------------------------------------------------------------------------------------




--------------------------------------- Iteration      1(  16)  ---------------------------------------


    POTLOK:  cpu time    0.0403: real time    0.0772
    SETDIJ:  cpu time    0.0960: real time    0.0961
     EDDAV:  cpu time    1.3699: real time    1.3701
       DOS:  cpu time    0.0030: real time    0.0035
    --------------------------------------------
      LOOP:  cpu time    1.5092: real time    1.5434

 eigenvalue-minimisations  :  3336
 total energy-change (2. order) : 0.1179251E-07  (-0.5087735E-08)
 number of electron      37.0000000 magnetization
 augmentation part        5.9450394 magnetization

 Free energy of the ion-electron system (eV)
  ---------------------------------------------------
  alpha Z        PSCENC =       232.44315197
  Ewald energy   TEWEN  =     -3215.92493248
  -Hartree energ DENC   =      -693.11543856
  -exchange      EXHF   =         0.00000000
  -V(xc)+E(xc)   XCENC  =        68.57697987
  PAW double counting   =      4142.51100528    -4075.96988748
  entropy T*S    EENTRO =        -0.00022986
  eigenvalues    EBANDS =      -154.84251267
  atomic energy  EATOM  =      3674.67342263
  Solvation  Ediel_sol  =         0.00000000
  ---------------------------------------------------
  free energy    TOTEN  =       -21.64844128 eV

  energy without entropy =      -21.64821142  energy(sigma->0) =      -21.64832635


--------------------------------------------------------------------------------------------------------




 average (electrostatic) potential at core
  the test charge radii are     1.1985  1.0856  1.2059
  (the norm of the test charge is              1.0000)
       1 -55.8043       2-101.4268       3 -65.0129



 E-fermi :   9.5411     XC(G=0): -11.4507     alpha+bet :-15.2201


 k-point     1 :       0.0000    0.0000    0.0000
  band No.  band energies     occupation
      1     -30.2968      2.00000
      2     -13.6051      2.00000
      3     -13.6051      2.00000
      4     -13.5654      2.00000
      5     -13.5654      2.00000
      6     -13.5654      2.00000
      7      -8.4196      2.00000
      8      -8.4196      2.00000
      9      -8.4196      2.00000
     10      -3.1839      2.00000
     11       4.8795      2.00000
     12       4.8795      2.00000
     13       4.8795      2.00000
     14       5.0042      2.00000
     15       5.0042      2.00000
     16       7.9738      2.00000
     17       8.2973      2.00000
     18       8.2973      2.00000
     19       8.2973      2.00000
     20       9.7390      0.00000
     21       9.7390      0.00000
     22       9.7390      0.00000
     23      10.6522      0.00000
     24      11.7629      0.00000

 k-point     2 :       0.0769   -0.0000    0.0000
  band No.  band energies     occupation
      1     -30.2963      2.00000
      2     -13.6061      2.00000
      3     -13.6061      2.00000
      4     -13.5656      2.00000
      5     -13.5652      2.00000
      6     -13.5652      2.00000
      7      -8.4455      2.00000
      8      -8.4160      2.00000
      9      -8.4160      2.00000
     10      -3.1044      2.00000
     11       4.6957      2.00000
     12       4.6957      2.00000
     13       4.7466      2.00000
     14       5.1775      2.00000
     15       5.1775      2.00000
     16       7.3849      2.00000
     17       8.2117      2.00000
     18       8.2117      2.00000
     19       8.7182      2.00000
     20       9.8435      0.00000
     21       9.8435      0.00000
     22       9.8700      0.00000
     23      10.9165      0.00000
     24      11.7677      0.00000

 k-point     3 :       0.1538   -0.0000   -0.0000
  band No.  band energies     occupation
      1     -30.2948      2.00000
      2     -13.6092      2.00000
      3     -13.6092      2.00000
      4     -13.5664      2.00000
      5     -13.5646      2.00000
      6     -13.5646      2.00000
      7      -8.5133      2.00000
      8      -8.4061      2.00000
      9      -8.4061      2.00000
     10      -2.8859      2.00000
     11       4.4028      2.00000
     12       4.4910      2.00000
     13       4.4910      2.00000
     14       5.3380      2.00000
     15       5.3380      2.00000
     16       6.7184      2.00000
     17       8.0391      2.00000
     18       8.0391      2.00000
     19       8.8726      2.00000
     20      10.0910      0.00000
     21      10.0910      0.00000
     22      10.4524      0.00000
     23      11.4043      0.00000
     24      11.7770      0.00000

 k-point     4 :       0.2308   -0.0000    0.0000
  band No.  band energies     occupation
      1     -30.2927      2.00000
      2     -13.6135      2.00000
      3     -13.6135      2.00000
      4     -13.5676      2.00000
      5     -13.5637      2.00000
      6     -13.5637      2.00000
      7      -8.6007      2.00000
      8      -8.3922      2.00000
      9      -8.3922      2.00000
     10      -2.5815      2.00000
     11       3.9676      2.00000
     12       4.3384      2.00000
     13       4.3384      2.00000
     14       5.3894      2.00000
     15       5.3894      2.00000
     16       6.1818      2.00000
     17       7.9011      2.00000
     18       7.9011      2.00000
     19       8.9194      2.00000
     20      10.3917      0.00000
     21      10.3917      0.00000
     22      11.1694      0.00000
     23      11.7627      0.00000
     24      11.7649      0.00000

 k-point     5 :       0.3077   -0.0000   -0.0000
  band No.  band energies     occupation
      1     -30.2905      2.00000
      2     -13.6181      2.00000
      3     -13.6181      2.00000
      4     -13.5690      2.00000
      5     -13.5628      2.00000
      6     -13.5628      2.00000
      7      -8.6842      2.00000
      8      -8.3776      2.00000
      9      -8.3776      2.00000
     10      -2.2621      2.00000
     11       3.5564      2.00000
[...]
  212              fftbas_plan_mpi                       0.081341                     12   6
  213                dfftw_execute                         0.035604                   36   7
  214                map_backward                          0.004738                   12   7
  215                  map_gather                            0.001249                  6   8
  216                  m_alltoallv_z                         0.002094                  6   8
  217                  map_scatter                           0.001083                  6   8
  218                map_forward                           0.037788                   12   7
  219                  map_gather                            0.019361                  6   8
  220                  m_alltoallv_z                         0.006300                  6   8
  221                  map_scatter                           0.011833                  6   8
  222            M_sumb_d                              0.010704                        6   5
  223          M_sumb_d                              0.000033                          1   4
  224        setdij_                               1.612485                           20   3
  225          fft3d_mpi                             0.290569                         40   4
  226            fftbas_plan_mpi                       0.266622                       40   5
  227              dfftw_execute                         0.119410                    120   6
  228              map_backward                          0.016814                     40   6
  229                map_gather                            0.004190                   20   7
  230                m_alltoallv_z                         0.008077                   20   7
  231                map_scatter                           0.003626                   20   7
  232              map_forward                           0.120026                     40   6
  233                map_gather                            0.058684                   20   7
  234                m_alltoallv_z                         0.020448                   20   7
  235                map_scatter                           0.039907                   20   7
  236          M_sumb_d                              0.017823                         20   4
  237        set_dd_magatom                        0.000004                            1   3
  238        set_dd_paw                            0.008045                            1   3
  239          set_rsgf_all                          0.000004                          1   4
  240          M_sumb_d                              0.007859                          8   4
  241        strkin                                0.000672                            1   3
  242          M_sumb_d                              0.000051                          1   4
  243        strelo                                0.003170                            1   3
  244          M_sumb_d                              0.000358                          2   4
  245        strenl                                1.079629                            1   3
  246          spher                                 0.804480                         19   4
  247          phase                                 0.012717                        189   4
  248          proj1                                 0.238761                       1134   4
  249            crexp_mul_wave                        0.032443                     3402   5
  250            M_sumb_d                              0.066297                     1134   5
  251          M_sumb_d                              0.000515                          1   4
  252        M_sumb_d                              0.000211                            6   3
  253        fft3d_mpi                             0.017821                           11   3
  254          fftbas_plan_mpi                       0.016516                         11   4
  255            dfftw_execute                         0.006180                       33   5
  256            map_forward                           0.003310                       10   5
  257              map_gather                            0.000629                      5   6
  258              m_alltoallv_z                         0.001389                      5   6
  259              map_scatter                           0.001053                      5   6
  260            map_backward                          0.004703                       12   5
  261              map_gather                            0.001204                      6   6
  262              m_alltoallv_z                         0.002124                      6   6
  263              map_scatter                           0.001090                      6   6
  264        ggaall_grid                           0.002050                            1   3
  265        forhar                                0.008069                            2   3
  266          M_sumb_d                              0.000144                          2   4
  267        strehar                               0.003075                            1   3
  268          M_sumb_d                              0.000048                          1   4
  269        chggra                                0.007231                            1   3
  270          fft3d_mpi                             0.004813                          3   4
  271            fftbas_plan_mpi                       0.004450                        3   5
  272              dfftw_execute                         0.001846                      9   6
  273              map_backward                          0.000685                      2   6
  274                map_gather                            0.000182                    1   7
  275                m_alltoallv_z                         0.000270                    1   7
  276                map_scatter                           0.000175                    1   7
  277              map_forward                           0.001255                      4   6
  278                map_gather                            0.000261                    2   7
  279                m_alltoallv_z                         0.000476                    2   7
  280                map_scatter                           0.000422                    2   7
  281          M_sumb_d                              0.000130                          3   4
  282        brmix                                 0.009008                            1   3
  283          M_sumb_d                              0.000259                          6   4
  284          brpre                                 0.000053                          1   4
  285          setg0                                 0.001684                          1   4
  286          broyd                                 0.005667                          1   4
  287            M_sumb_d                              0.000717                       18   5
  288            brget                                 0.000353                       64   5
  289            brsav                                 0.000080                       16   5
  290          M_bcast_z                             0.000157                          1   4
  291          M_bcast_d                             0.000050                          1   4
  292        M_bcast_d                             0.000373                            2   3
  293      potlok                                0.031158                              1   2
  294        fft3d_mpi                             0.021129                           13   3
  295          fftbas_plan_mpi                       0.019609                         13   4
  296            dfftw_execute                         0.007208                       39   5
  297            map_forward                           0.004681                       14   5
  298              map_gather                            0.000814                      8   6
  299              m_alltoallv_z                         0.001956                      8   6
  300              map_scatter                           0.001557                      8   6
  301            map_backward                          0.005040                       12   5
  302              map_gather                            0.001404                      6   6
  303              m_alltoallv_z                         0.001827                      6   6
  304              map_scatter                           0.001417                      6   6
  305        ggaall_grid                           0.002015                            1   3
  306        M_sumb_d                              0.000252                            6   3
  307        M_bcast_d                             0.000118                            1   3
  308      potlok_metagga                        0.000004                              1   2
  309      set_dd_magatom                        0.000003                              1   2
  310      set_dd_paw                            0.000478                              1   2
  311        set_rsgf_all                          0.000004                            1   3
  312        M_sumb_d                              0.000290                            8   3
  313      densta                                0.002330                              1   2
  314        M_sumb_d                              0.000805                           41   3
  315      lprj_proall                           0.000008                              1   2

 Flat profile
 ============

             routine name                   CPU           calls
 ---------------------------------------------------------------
 total_time                             13.736259           1
 dfftw_execute                           5.952881       49428
 eddav                                   5.217923          16
 fftbas_plan_mpi                         3.658238       16478
 setdij_                                 2.720311          40
 M_sumb_d                                2.670564       45896
 set_charge                              2.192158          12
 m_alltoallv_z                           1.699449       16501
 pdssyex_zheevx                          1.487359         336
 M_alltoall_d                            1.247800       54894
 elmin                                   1.213577           1
 proj1                                   0.929798        6708
 orth1                                   0.924873       11217
 vhamil                                  0.899657        7464
 spher                                   0.889009          20
 gemm                                    0.835493       22392
 fftwav_mpi                              0.736915        8724
 map_forward                             0.730381       17726
 map_gather                              0.685121       16501
 map_scatter                             0.670435       16501
 vnlac0                                  0.498341        7464
 M_bcast_z                               0.472203        6283
 redis_pw                                0.461169       21090
 hamiltmu                                0.409777        3732
 redis_proj                              0.407760       26559
 w1_copy                                 0.328312       22392
 fft3d_mpi                               0.288364       16476
 map_backward                            0.268831       15226
 work_mul_crexp                          0.255765       22392
 fftext_mpi                              0.248194        7464
 crpa_reader                             0.226155           1
 eccp                                    0.208380        2016
 crexp_mul_wave                          0.206360       20124
 kinhamil                                0.152235        7464
 overl                                   0.145235       12933
 M_bcast_d                               0.123113        3764
 potlok                                  0.104324          13
 pw_charge                               0.098173        1260
 overl1                                  0.088014        7464
 apply_precond                           0.078382        5448
 setup_precond                           0.069881        2016
 lincom                                  0.064387         357
 w1_projall                              0.059800        2724
 force_and_stress                        0.059390           1
 fornl                                   0.047823           1
 phase                                   0.038215         568
 soft_charge                             0.033509          12
 truncate_high_frequency_w1              0.032190        9480
 ggaall_grid                             0.028690          14
 densta                                  0.025720          17
 strenl                                  0.023156           1
 setg0                                   0.017116          13
 brmix                                   0.015853          12
 broyd                                   0.012245          12
 forhar                                  0.007925           2
 depsum                                  0.005083          12
 brgrid                                  0.004647           1
 forloc                                  0.003479           1
 set_dd_paw                              0.003048          14
 strehar                                 0.003027           1
 strelo                                  0.002812           1
 brget                                   0.002362         432
 chggra                                  0.002288           1
 orthch                                  0.002065           1
 choleski                                0.001858          21
 proj                                    0.001629          21
 brsav                                   0.001157         128
 brpre                                   0.000874          12
 strkin                                  0.000621           1
 fordep                                  0.000131           1
 vectorpot                               0.000066          13
 set_rsgf_all                            0.000063          14
 potlok_metagga                          0.000052          13
 set_dd_magatom                          0.000051          14
 set_kineden                             0.000040          11
 rotate_active_occupied_orbital          0.000015           1
 lprj_proall                             0.000008           1
 redis_pw_over_bands                     0.000004           1
 ---------------------------------------------------------------
  summed up times    54.7385718822479

 Accumulative profile
 ====================

             routine name                   CPU           calls
 ---------------------------------------------------------------
 total_time                             54.738572           1
 elmin                                  36.325613           1
 eddav                                  30.139838          16
 fft3d_mpi                              13.909319       16476
 fftbas_plan_mpi                        13.665336       16478
 hamiltmu                                9.516505        3732
 fftwav_mpi                              7.882052        8724
 kinhamil                                6.063182        7464
 dfftw_execute                           5.952881       49428
 fftext_mpi                              5.910947        7464
 force_and_stress                        3.678628           1
 set_charge                              3.639525          12
 setdij_                                 3.390543          40
 M_sumb_d                                2.670564       45896
 map_forward                             2.488217       17726
 vnlac0                                  2.055875        7464
 m_alltoallv_z                           1.699449       16501
 proj1                                   1.576295        6708
 map_backward                            1.566000       15226
 pdssyex_zheevx                          1.487359         336
 w1_projall                              1.370051        2724
 M_alltoall_d                            1.247800       54894
 soft_charge                             1.236896          12
 redis_pw                                1.151288       21090
 strenl                                  1.079629           1
 redis_proj                              0.965442       26559
 orth1                                   0.924873       11217
 vhamil                                  0.899657        7464
 spher                                   0.889009          20
 gemm                                    0.835493       22392
 map_gather                              0.685121       16501
 map_scatter                             0.670435       16501
 fordep                                  0.496647           1
 M_bcast_z                               0.472203        6283
 potlok                                  0.404358          13
 w1_copy                                 0.328312       22392
 eccp                                    0.324264        2016
 work_mul_crexp                          0.255765       22392
 crpa_reader                             0.226155           1
 crexp_mul_wave                          0.206360       20124
 set_dd_paw                              0.150003          14
 overl                                   0.145235       12933
 M_bcast_d                               0.123113        3764
 setup_precond                           0.120152        2016
 pw_charge                               0.098173        1260
 overl1                                  0.088014        7464
 apply_precond                           0.078382        5448
 brmix                                   0.065249          12
 lincom                                  0.064387         357
 fornl                                   0.063316           1
 densta                                  0.038785          17
 orthch                                  0.038654           1
 phase                                   0.038215         568
 truncate_high_frequency_w1              0.032190        9480
 proj                                    0.028911          21
 ggaall_grid                             0.028690          14
 broyd                                   0.020424          12
 setg0                                   0.017116          13
 forhar                                  0.008069           2
 depsum                                  0.007757          12
 chggra                                  0.007231           1
 brgrid                                  0.004647           1
 forloc                                  0.003557           1
 strelo                                  0.003170           1
 strehar                                 0.003075           1
 brget                                   0.002362         432
 choleski                                0.001858          21
 brsav                                   0.001157         128
 brpre                                   0.000874          12
 strkin                                  0.000672           1
 vectorpot                               0.000066          13
 set_rsgf_all                            0.000063          14
 potlok_metagga                          0.000052          13
 set_dd_magatom                          0.000051          14
 set_kineden                             0.000040          11
 rotate_active_occupied_orbital          0.000015           1
 lprj_proall                             0.000008           1
 redis_pw_over_bands                     0.000004           1
 ---------------------------------------------------------------

Profiling took   1.314142  1.577181  0.006132  0.004724 seconds
Profiling took   1.283206 seconds
