<?xml version="1.0" encoding="ISO-8859-1"?>
<modeling>
 <generator>
  <i name="program" type="string">vasp </i>
  <i name="version" type="string">6.0.8  </i>
  <i name="subversion" type="string">29Jun18 (build Jun 13 2019 12:54:44) complex                          parallel </i>
  <i name="platform" type="string">IFC18_CrayMPICH </i>
  <i name="date" type="string">2021 12 05 </i>
  <i name="time" type="string">14:21:48 </i>
 </generator>
 <incar>
  <i type="int" name="KPAR">     4</i>
  <i type="int" name="NPAR">     4</i>
  <i type="int" name="ISTART">     0</i>
  <i type="string" name="PREC"> ACC</i>
  <i type="string" name="ALGO"> Normal</i>
  <i type="logical" name="ADDGRID"> T  </i>
  <i type="int" name="ISPIN">     1</i>
  <i type="int" name="NELMIN">     5</i>
  <i type="int" name="IBRION">    -1</i>
  <i name="EDIFF">      0.00000010</i>
  <i type="int" name="NSW">     0</i>
  <i type="int" name="ISIF">     3</i>
  <i name="ENCUT">    700.00000000</i>
  <i type="logical" name="LREAL"> F  </i>
  <i type="int" name="ISMEAR">     0</i>
  <i name="SIGMA">      0.01000000</i>
  <i type="logical" name="LWAVE"> F  </i>
  <i type="logical" name="LCHARG"> F  </i>
  <i type="logical" name="LVTOT"> F  </i>
  <i type="string" name="ALGO"> Normal</i>
  <i type="string" name="GGA"> PS</i>
  <i name="EDIFF">      0.00000010</i>
  <i type="int" name="ISPIN">     1</i>
 </incar>
 <structure name="primitive_cell" >
  <crystal>
   <varray name="basis" >
    <v>       0.00000000       3.33097959       3.33097959 </v>
    <v>       3.33097959       0.00000000       3.33097959 </v>
    <v>       3.33097959       3.33097959       0.00000000 </v>
   </varray>
   <i name="volume">     73.91726895 </i>
   <varray name="rec_basis" >
    <v>      -0.15010599       0.15010599       0.15010599 </v>
    <v>       0.15010599      -0.15010599       0.15010599 </v>
    <v>       0.15010599       0.15010599      -0.15010599 </v>
   </varray>
  </crystal>
  <varray name="positions" >
   <v>       0.25000000       0.25000000       0.25000000 </v>
   <v>       0.75000000       0.75000000       0.75000000 </v>
   <v>       0.00000000       0.00000000       0.00000000 </v>
  </varray>
 </structure>
 <varray name="primitive_index" >
  <v type="int" >        1 </v>
  <v type="int" >        2 </v>
  <v type="int" >        3 </v>
 </varray>
 <kpoints>
  <generation param="Gamma">
   <v type="int" name="divisions">      13       13       13 </v>
   <v name="usershift">      0.00000000       0.00000000       0.00000000 </v>
   <v name="genvec1">      0.07692308      -0.00000000       0.00000000 </v>
   <v name="genvec2">     -0.00000000       0.07692308      -0.00000000 </v>
   <v name="genvec3">      0.00000000       0.00000000       0.07692308 </v>
   <v name="shift">      0.00000000       0.00000000       0.00000000 </v>
  </generation>
  <varray name="kpointlist" >
   <v>       0.00000000       0.00000000       0.00000000 </v>
   <v>       0.07692308      -0.00000000       0.00000000 </v>
   <v>       0.15384615      -0.00000000      -0.00000000 </v>
   <v>       0.23076923      -0.00000000       0.00000000 </v>
   <v>       0.30769231      -0.00000000      -0.00000000 </v>
   <v>       0.38461538       0.00000000      -0.00000000 </v>
   <v>       0.46153846       0.00000000      -0.00000000 </v>
   <v>       0.07692308       0.07692308       0.00000000 </v>
   <v>       0.15384615       0.07692308       0.00000000 </v>
   <v>       0.23076923       0.07692308       0.00000000 </v>
   <v>       0.30769231       0.07692308      -0.00000000 </v>
   <v>       0.38461538       0.07692308       0.00000000 </v>
   <v>       0.46153846       0.07692308       0.00000000 </v>
   <v>      -0.46153846       0.07692308      -0.00000000 </v>
   <v>      -0.38461538       0.07692308      -0.00000000 </v>
   <v>      -0.30769231       0.07692308      -0.00000000 </v>
   <v>      -0.23076923       0.07692308       0.00000000 </v>
   <v>      -0.15384615       0.07692308       0.00000000 </v>
   <v>      -0.07692308       0.07692308      -0.00000000 </v>
   <v>       0.15384615       0.15384615       0.00000000 </v>
   <v>       0.23076923       0.15384615       0.00000000 </v>
   <v>       0.30769231       0.15384615      -0.00000000 </v>
   <v>       0.38461538       0.15384615      -0.00000000 </v>
   <v>       0.46153846       0.15384615       0.00000000 </v>
   <v>      -0.46153846       0.15384615      -0.00000000 </v>
   <v>      -0.38461538       0.15384615      -0.00000000 </v>
   <v>      -0.30769231       0.15384615       0.00000000 </v>
   <v>      -0.23076923       0.15384615       0.00000000 </v>
   <v>      -0.15384615       0.15384615       0.00000000 </v>
   <v>       0.23076923       0.23076923       0.00000000 </v>
   <v>       0.30769231       0.23076923       0.00000000 </v>
   <v>       0.38461538       0.23076923       0.00000000 </v>
   <v>       0.46153846       0.23076923      -0.00000000 </v>
   <v>      -0.46153846       0.23076923       0.00000000 </v>
   <v>      -0.38461538       0.23076923       0.00000000 </v>
   <v>      -0.30769231       0.23076923       0.00000000 </v>
   <v>      -0.23076923       0.23076923      -0.00000000 </v>
   <v>       0.30769231       0.30769231       0.00000000 </v>
   <v>       0.38461538       0.30769231       0.00000000 </v>
   <v>       0.46153846       0.30769231       0.00000000 </v>
   <v>      -0.46153846       0.30769231       0.00000000 </v>
   <v>      -0.38461538       0.30769231       0.00000000 </v>
   <v>      -0.30769231       0.30769231       0.00000000 </v>
   <v>       0.38461538       0.38461538       0.00000000 </v>
   <v>       0.46153846       0.38461538       0.00000000 </v>
   <v>      -0.46153846       0.38461538       0.00000000 </v>
   <v>      -0.38461538       0.38461538       0.00000000 </v>
   <v>       0.46153846       0.46153846       0.00000000 </v>
   <v>      -0.46153846       0.46153846       0.00000000 </v>
   <v>       0.23076923       0.15384615       0.07692308 </v>
   <v>       0.30769231       0.15384615       0.07692308 </v>
   <v>       0.38461538       0.15384615       0.07692308 </v>
   <v>       0.46153846       0.15384615       0.07692308 </v>
   <v>      -0.46153846       0.15384615       0.07692308 </v>
   <v>       0.30769231       0.23076923       0.07692308 </v>
   <v>       0.38461538       0.23076923       0.07692308 </v>
   <v>       0.46153846       0.23076923       0.07692308 </v>
   <v>      -0.46153846       0.23076923       0.07692308 </v>
   <v>      -0.38461538       0.23076923       0.07692308 </v>
   <v>      -0.30769231       0.23076923       0.07692308 </v>
   <v>      -0.23076923       0.23076923       0.07692308 </v>
   <v>      -0.15384615       0.23076923       0.07692308 </v>
   <v>       0.38461538       0.30769231       0.07692308 </v>
   <v>       0.46153846       0.30769231       0.07692308 </v>
   <v>      -0.46153846       0.30769231       0.07692308 </v>
   <v>      -0.38461538       0.30769231       0.07692308 </v>
   <v>      -0.30769231       0.30769231       0.07692308 </v>
   <v>      -0.23076923       0.30769231       0.07692308 </v>
   <v>       0.46153846       0.38461538       0.07692308 </v>
   <v>      -0.46153846       0.38461538       0.07692308 </v>
   <v>      -0.38461538       0.38461538       0.07692308 </v>
   <v>      -0.30769231       0.38461538       0.07692308 </v>
   <v>      -0.46153846       0.46153846       0.07692308 </v>
   <v>      -0.38461538       0.46153846       0.07692308 </v>
   <v>       0.46153846       0.30769231       0.15384615 </v>
   <v>      -0.46153846       0.30769231       0.15384615 </v>
   <v>      -0.38461538       0.30769231       0.15384615 </v>
   <v>      -0.46153846       0.38461538       0.15384615 </v>
   <v>      -0.38461538       0.38461538       0.15384615 </v>
   <v>      -0.30769231       0.38461538       0.15384615 </v>
   <v>      -0.23076923       0.38461538       0.15384615 </v>
   <v>      -0.38461538       0.46153846       0.15384615 </v>
   <v>      -0.30769231       0.46153846       0.15384615 </v>
   <v>      -0.30769231       0.46153846       0.23076923 </v>
  </varray>
  <varray name="weights" >
   <v>       0.00045517 </v>
   <v>       0.00364133 </v>
   <v>       0.00364133 </v>
   <v>       0.00364133 </v>
   <v>       0.00364133 </v>
   <v>       0.00364133 </v>
   <v>       0.00364133 </v>
   <v>       0.00273100 </v>
   <v>       0.01092399 </v>
   <v>       0.01092399 </v>
   <v>       0.01092399 </v>
   <v>       0.01092399 </v>
   <v>       0.01092399 </v>
   <v>       0.01092399 </v>
   <v>       0.01092399 </v>
   <v>       0.01092399 </v>
   <v>       0.01092399 </v>
   <v>       0.01092399 </v>
   <v>       0.00546199 </v>
   <v>       0.00273100 </v>
   <v>       0.01092399 </v>
   <v>       0.01092399 </v>
   <v>       0.01092399 </v>
   <v>       0.01092399 </v>
   <v>       0.01092399 </v>
   <v>       0.01092399 </v>
   <v>       0.01092399 </v>
   <v>       0.01092399 </v>
   <v>       0.00546199 </v>
   <v>       0.00273100 </v>
   <v>       0.01092399 </v>
   <v>       0.01092399 </v>
   <v>       0.01092399 </v>
   <v>       0.01092399 </v>
   <v>       0.01092399 </v>
   <v>       0.01092399 </v>
   <v>       0.00546199 </v>
   <v>       0.00273100 </v>
   <v>       0.01092399 </v>
   <v>       0.01092399 </v>
   <v>       0.01092399 </v>
   <v>       0.01092399 </v>
   <v>       0.00546199 </v>
   <v>       0.00273100 </v>
   <v>       0.01092399 </v>
   <v>       0.01092399 </v>
   <v>       0.00546199 </v>
   <v>       0.00273100 </v>
   <v>       0.00546199 </v>
   <v>       0.01092399 </v>
   <v>       0.02184797 </v>
   <v>       0.02184797 </v>
   <v>       0.02184797 </v>
   <v>       0.02184797 </v>
   <v>       0.01092399 </v>
   <v>       0.02184797 </v>
   <v>       0.02184797 </v>
   <v>       0.02184797 </v>
   <v>       0.02184797 </v>
   <v>       0.02184797 </v>
   <v>       0.02184797 </v>
   <v>       0.01092399 </v>
   <v>       0.01092399 </v>
   <v>       0.02184797 </v>
   <v>       0.02184797 </v>
   <v>       0.02184797 </v>
   <v>       0.02184797 </v>
   <v>       0.01092399 </v>
   <v>       0.01092399 </v>
   <v>       0.02184797 </v>
   <v>       0.02184797 </v>
   <v>       0.01092399 </v>
   <v>       0.01092399 </v>
   <v>       0.01092399 </v>
   <v>       0.01092399 </v>
   <v>       0.02184797 </v>
   <v>       0.02184797 </v>
   <v>       0.01092399 </v>
   <v>       0.02184797 </v>
   <v>       0.02184797 </v>
   <v>       0.01092399 </v>
   <v>       0.01092399 </v>
   <v>       0.01092399 </v>
   <v>       0.01092399 </v>
  </varray>
 </kpoints>
 <parameters>
  <separator name="general" >
   <i type="string" name="SYSTEM">unknown system</i>
   <i type="logical" name="LCOMPAT"> F  </i>
  </separator>
  <separator name="electronic" >
   <i type="string" name="PREC">acc</i>
   <i name="ENMAX">    700.00000000</i>
   <i name="ENAUG">    535.43100000</i>
   <i name="EDIFF">      0.00000010</i>
   <i type="int" name="IALGO">    38</i>
   <i type="int" name="IWAVPR">    10</i>
   <i type="int" name="NBANDS">    24</i>
   <i type="int" name="NBANDSLOW">    -1</i>
   <i type="int" name="NBANDSHIGH">    -1</i>
   <i name="NELECT">     37.00000000</i>
   <i type="int" name="TURBO">     0</i>
   <i type="int" name="IRESTART">     0</i>
   <i type="int" name="NREBOOT">     0</i>
   <i type="int" name="NMIN">     0</i>
   <i name="EREF">      0.00000000</i>
   <separator name="electronic smearing" >
    <i type="int" name="ISMEAR">     0</i>
    <i name="SIGMA">      0.01000000</i>
    <i name="KSPACING">      0.50000000</i>
    <i type="logical" name="KGAMMA"> T  </i>
    <i type="logical" name="KBLOWUP"> T  </i>
   </separator>
   <separator name="electronic projectors" >
    <i type="logical" name="LREAL"> F  </i>
    <v name="ROPT">      0.00000000      0.00000000      0.00000000</v>
    <i type="int" name="LMAXPAW">  -100</i>
    <i type="int" name="LMAXMIX">     2</i>
    <i type="logical" name="NLSPLINE"> F  </i>
   </separator>
   <separator name="electronic startup" >
    <i type="int" name="ISTART">     0</i>
    <i type="int" name="ICHARG">     2</i>
    <i type="int" name="INIWAV">     1</i>
   </separator>
   <separator name="electronic spin" >
    <i type="int" name="ISPIN">     1</i>
    <i type="logical" name="LNONCOLLINEAR"> F  </i>
    <v name="MAGMOM">      1.00000000      1.00000000      1.00000000</v>
    <i name="NUPDOWN">     -1.00000000</i>
    <i type="logical" name="LSORBIT"> F  </i>
    <v name="SAXIS">      0.00000000      0.00000000      1.00000000</v>
    <i type="logical" name="LSPIRAL"> F  </i>
    <v name="QSPIRAL">      0.00000000      0.00000000      0.00000000</v>
    <i type="logical" name="LZEROZ"> F  </i>
   </separator>
   <separator name="electronic exchange-correlation" >
    <i type="logical" name="LASPH"> F  </i>
    <i type="logical" name="LMETAGGA"> F  </i>
   </separator>
   <separator name="electronic convergence" >
    <i type="int" name="NELM">    60</i>
    <i type="int" name="NELMDL">    -5</i>
    <i type="int" name="NELMIN">     5</i>
    <i name="ENINI">    700.00000000</i>
    <separator name="electronic convergence detail" >
     <i type="logical" name="LDIAG"> T  </i>
     <i type="logical" name="LSUBROT"> F  </i>
     <i name="WEIMIN">      0.00000000</i>
     <i name="EBREAK">      0.00000000</i>
     <i name="DEPER">      0.30000000</i>
     <i type="int" name="NRMM">     4</i>
     <i name="TIME">      0.40000000</i>
    </separator>
   </separator>
   <separator name="electronic mixer" >
    <i name="AMIX">      0.40000000</i>
    <i name="BMIX">      1.00000000</i>
    <i name="AMIN">      0.10000000</i>
    <i name="AMIX_MAG">      1.60000000</i>
    <i name="BMIX_MAG">      1.00000000</i>
    <separator name="electronic mixer details" >
     <i type="int" name="IMIX">     4</i>
     <i type="logical" name="MIXFIRST"> F  </i>
     <i type="int" name="MAXMIX">   -45</i>
     <i name="WC">    100.00000000</i>
     <i type="int" name="INIMIX">     1</i>
     <i type="int" name="MIXPRE">     1</i>
     <i type="int" name="MREMOVE">     5</i>
    </separator>
   </separator>
   <separator name="electronic dipolcorrection" >
    <i type="logical" name="LDIPOL"> F  </i>
    <i type="logical" name="LMONO"> F  </i>
    <i type="int" name="IDIPOL">     0</i>
    <i name="EPSILON">      1.00000000</i>
    <v name="DIPOL">   -100.00000000   -100.00000000   -100.00000000</v>
    <i name="EFIELD">      0.00000000</i>
   </separator>
  </separator>
  <separator name="grids" >
   <i type="int" name="NGX">    42</i>
   <i type="int" name="NGY">    42</i>
   <i type="int" name="NGZ">    42</i>
   <i type="int" name="NGXF">    84</i>
   <i type="int" name="NGYF">    84</i>
   <i type="int" name="NGZF">    84</i>
   <i type="logical" name="ADDGRID"> T  </i>
  </separator>
  <separator name="ionic" >
   <i type="int" name="NSW">     0</i>
   <i type="int" name="IBRION">    -1</i>
   <i type="int" name="MDALGO">     0</i>
   <i type="int" name="ISIF">     3</i>
   <i name="PSTRESS">      0.00000000</i>
   <i name="EDIFFG">      0.00000100</i>
   <i type="int" name="NFREE">     0</i>
   <i name="POTIM">      0.50000000</i>
   <i name="SMASS">     -3.00000000</i>
   <i name="SCALEE">      1.00000000</i>
  </separator>
  <separator name="ionic md" >
   <i name="TEBEG">      0.00010000</i>
   <i name="TEEND">      0.00010000</i>
   <i type="int" name="NBLOCK">     1</i>
   <i type="int" name="KBLOCK">     1</i>
   <i type="int" name="NPACO">   256</i>
   <i name="APACO">     16.00000000</i>
  </separator>
  <separator name="symmetry" >
   <i type="int" name="ISYM">     2</i>
   <i name="SYMPREC">      0.00001000</i>
  </separator>
  <separator name="dos" >
   <i type="int" name="LORBIT">     0</i>
   <v name="RWIGS">     -1.00000000     -1.00000000     -1.00000000</v>
   <i type="int" name="NEDOS">   301</i>
   <i name="EMIN">     10.00000000</i>
   <i name="EMAX">    -10.00000000</i>
   <i name="EFERMI">      0.00000000</i>
  </separator>
  <separator name="writing" >
   <i type="int" name="NWRITE">     2</i>
   <i type="logical" name="LWAVE"> F  </i>
   <i type="logical" name="LDOWNSAMPLE"> F  </i>
   <i type="logical" name="LCHARG"> F  </i>
   <i type="logical" name="LPARD"> F  </i>
   <i type="logical" name="LVTOT"> F  </i>
   <i type="logical" name="LVHAR"> F  </i>
   <i type="logical" name="LELF"> F  </i>
   <i type="logical" name="LOPTICS"> F  </i>
   <v name="STM">      0.00000000      0.00000000      0.00000000      0.00000000      0.00000000      0.00000000      0.00000000</v>
  </separator>
  <separator name="performance" >
   <i type="int" name="NPAR">     4</i>
   <i type="int" name="NSIM">     4</i>
   <i type="int" name="NBLK">    -1</i>
   <i type="logical" name="LPLANE"> T  </i>
   <i type="logical" name="LSCALAPACK"> T  </i>
   <i type="logical" name="LSCAAWARE"> F  </i>
   <i type="logical" name="LSCALU"> F  </i>
   <i type="logical" name="LASYNC"> F  </i>
   <i type="logical" name="LORBITALREAL"> F  </i>
  </separator>
  <separator name="miscellaneous" >
   <i type="int" name="IDIOT">     3</i>
   <i type="int" name="PHON_NSTRUCT">    -1</i>
   <i type="logical" name="LMUSIC"> F  </i>
   <v name="POMASS">    232.03900000    208.98000000    195.08000000</v>
   <v name="DARWINR">      0.00000000      0.00000000      0.00000000</v>
   <v name="DARWINV">      1.00000000      1.00000000      1.00000000</v>
   <i type="logical" name="LCORR"> T  </i>
  </separator>
  <i type="logical" name="GGA_COMPAT"> T  </i>
  <i type="logical" name="LBERRY"> F  </i>
  <i type="int" name="ICORELEVEL">     0</i>
  <i type="logical" name="LDAU"> F  </i>
  <i type="int" name="I_CONSTRAINED_M">     0</i>
  <separator name="electronic exchange-correlation" >
   <i type="string" name="GGA">PS</i>
   <i type="int" name="VOSKOWN">     0</i>
   <i type="logical" name="LHFCALC"> F  </i>
   <i type="string" name="PRECFOCK"></i>
   <i type="logical" name="LSYMGRAD"> F  </i>
   <i type="logical" name="LHFONE"> F  </i>
   <i type="logical" name="LRHFCALC"> F  </i>
   <i type="logical" name="LTHOMAS"> F  </i>
   <i type="logical" name="LMODELHF"> F  </i>
   <i type="logical" name="LFOCKACE"> F  </i>
   <i name="ENCUT4O">     -1.00000000</i>
   <i type="int" name="EXXOEP">     0</i>
   <i type="int" name="FOURORBIT">     0</i>
   <i name="AEXX">      0.00000000</i>
   <i name="HFALPHA">      0.00000000</i>
   <i name="MCALPHA">      0.00000000</i>
   <i name="ALDAX">      1.00000000</i>
   <i name="AGGAX">      1.00000000</i>
   <i name="ALDAC">      1.00000000</i>
   <i name="AGGAC">      1.00000000</i>
   <i type="int" name="NKREDX">     1</i>
   <i type="int" name="NKREDY">     1</i>
   <i type="int" name="NKREDZ">     1</i>
   <i type="logical" name="SHIFTRED"> F  </i>
   <i type="logical" name="ODDONLY"> F  </i>
   <i type="logical" name="EVENONLY"> F  </i>
   <i type="int" name="LMAXFOCK">     0</i>
   <i type="int" name="NMAXFOCKAE">     0</i>
   <i type="logical" name="LFOCKAEDFT"> F  </i>
   <i name="HFSCREEN">      0.00000000</i>
   <i name="HFSCREENC">      0.00000000</i>
   <i type="int" name="NBANDSGWLOW">     0</i>
  </separator>
  <separator name="vdW DFT" >
   <i type="logical" name="LUSE_VDW"> F  </i>
   <i name="Zab_VDW">     -0.84910000</i>
   <i name="PARAM1">      0.12340000</i>
   <i name="PARAM2">      1.00000000</i>
   <i name="PARAM3">      0.00000000</i>
  </separator>
  <separator name="model GW" >
   <i type="int" name="MODEL_GW">     0</i>
   <i name="MODEL_EPS0">     14.78345379</i>
   <i name="MODEL_ALPHA">      1.00000000</i>
  </separator>
  <separator name="linear response parameters" >
   <i type="logical" name="LEPSILON"> F  </i>
   <i type="logical" name="LRPA"> F  </i>
   <i type="logical" name="LNABLA"> F  </i>
   <i type="logical" name="LVEL"> F  </i>
   <i type="int" name="KINTER">     0</i>
   <i name="CSHIFT">      0.10000000</i>
   <i name="OMEGAMAX">     -1.00000000</i>
   <i name="DEG_THRESHOLD">      0.00200000</i>
   <i name="RTIME">     -0.10000000</i>
   <i name="WPLASMAI">      0.00000000</i>
   <v name="DFIELD">      0.00000000      0.00000000      0.00000000</v>
   <v name="WPLASMA">      0.00000000      0.00000000      0.00000000      0.00000000      0.00000000      0.00000000      0.00000000      0.00000000      0.00000000</v>
  </separator>
  <separator name="orbital magnetization" >
   <i type="logical" name="NUCIND"> F  </i>
   <v name="MAGPOS">      0.00000000      0.00000000      0.00000000</v>
   <i type="logical" name="LNICSALL"> T  </i>
   <i type="logical" name="ORBITALMAG"> F  </i>
   <i type="logical" name="LMAGBLOCH"> F  </i>
   <i type="logical" name="LCHIMAG"> F  </i>
   <i type="logical" name="LGAUGE"> T  </i>
   <i type="int" name="MAGATOM">     0</i>
   <v name="MAGDIPOL">      0.00000000      0.00000000      0.00000000</v>
   <v name="AVECCONST">      0.00000000      0.00000000      0.00000000</v>
  </separator>
  <separator name="response functions" >
   <i type="logical" name="LFINITE_TEMPERATURE"> F  </i>
   <i type="logical" name="LADDER"> F  </i>
   <i type="logical" name="LRPAFORCE"> F  </i>
   <i type="logical" name="LFXC"> F  </i>
   <i type="logical" name="LHARTREE"> T  </i>
   <i type="int" name="IBSE">     0</i>
   <v type="int" name="KPOINT">    -1     0     0     0</v>
   <i type="logical" name="LTCTC"> F  </i>
   <i type="logical" name="LTCTE"> F  </i>
   <i type="logical" name="LTETE"> F  </i>
   <i type="logical" name="LTRIPLET"> F  </i>
   <i type="logical" name="LFXCEPS"> F  </i>
   <i type="logical" name="LFXHEG"> F  </i>
   <i type="int" name="NATURALO">     2</i>
   <i type="logical" name="L2ORDER"> F  </i>
   <i type="logical" name="LDMP1"> F  </i>
   <i type="logical" name="LMP2LT"> F  </i>
   <i type="logical" name="LSMP2LT"> F  </i>
   <i type="logical" name="LUSEW"> F  </i>
   <i name="ENCUTGW">     -2.00000000</i>
   <i name="ENCUTGWSOFT">     -2.00000000</i>
   <i name="ENCUTLF">     -1.00000000</i>
   <i type="int" name="LMAXMP2">    -1</i>
   <i name="SCISSOR">      0.00000000</i>
   <i type="int" name="NOMEGA">     0</i>
   <i type="int" name="NOMEGAR">     0</i>
   <i type="int" name="NBANDSGW">    -1</i>
   <i type="int" name="NBANDSO">    -1</i>
   <i type="int" name="NBANDSV">    -1</i>
   <i type="int" name="NELM">     1</i>
   <i type="int" name="NELMHF">     1</i>
   <i type="int" name="DIM">     3</i>
   <i type="int" name="IESPILON">     4</i>
   <i type="int" name="ANTIRES">     0</i>
   <i name="OMEGAMAX">    -30.00000000</i>
   <i name="OMEGAMIN">    -30.00000000</i>
   <i name="OMEGATL">   -200.00000000</i>
   <i type="int" name="OMEGAGRID">   145</i>
   <i name="CSHIFT">     -0.10000000</i>
   <i type="logical" name="LSELFENERGY"> F  </i>
   <i type="logical" name="LSPECTRAL"> F  </i>
   <i type="logical" name="LSPECTRALGW"> F  </i>
   <i type="logical" name="LSINGLES"> F  </i>
   <i type="logical" name="LFERMIGW"> F  </i>
   <i type="logical" name="ODDONLYGW"> F  </i>
   <i type="logical" name="EVENONLYGW"> F  </i>
   <i type="int" name="NKREDLFX">     1</i>
   <i type="int" name="NKREDLFY">     1</i>
   <i type="int" name="NKREDLFZ">     1</i>
   <i type="int" name="MAXMEM">  2800</i>
   <i type="int" name="TELESCOPE">     0</i>
   <i type="int" name="NTAUPAR">     1</i>
   <i type="int" name="NOMEGAPAR">    -1</i>
   <i name="LAMBDA">      1.00000000</i>
  </separator>
  <separator name="External order field" >
   <i name="OFIELD_KAPPA">      0.00000000</i>
   <v name="OFIELD_K">      0.00000000      0.00000000      0.00000000</v>
   <i name="OFIELD_Q6_NEAR">      0.00000000</i>
   <i name="OFIELD_Q6_FAR">      0.00000000</i>
   <i name="OFIELD_A">      0.00000000</i>
  </separator>
 </parameters>
 <atominfo>
  <atoms>       3 </atoms>
  <types>       3 </types>
  <array name="atoms" >
   <dimension dim="1">ion</dimension>
   <field type="string">element</field>
   <field type="int">atomtype</field>
   <set>
    <rc><c>Th</c><c>   1</c></rc>
    <rc><c>Bi</c><c>   2</c></rc>
    <rc><c>Pt</c><c>   3</c></rc>
   </set>
  </array>
  <array name="atomtypes" >
   <dimension dim="1">type</dimension>
   <field type="int">atomspertype</field>
   <field type="string">element</field>
   <field>mass</field>
   <field>valence</field>
   <field type="string">pseudopotential</field>
   <set>
    <rc><c>   1</c><c>Th</c><c>    232.03900000</c><c>     12.00000000</c><c>  PAW_PBE Th 07Sep2000                  </c></rc>
    <rc><c>   1</c><c>Bi</c><c>    208.98000000</c><c>     15.00000000</c><c>  PAW_PBE Bi_d 06Sep2000                </c></rc>
    <rc><c>   1</c><c>Pt</c><c>    195.08000000</c><c>     10.00000000</c><c>  PAW_PBE Pt 04Feb2005                  </c></rc>
   </set>
  </array>
 </atominfo>
 <structure name="initialpos" >
  <crystal>
   <varray name="basis" >
    <v>       0.00000000       3.33097959       3.33097959 </v>
    <v>       3.33097959       0.00000000       3.33097959 </v>
    <v>       3.33097959       3.33097959       0.00000000 </v>
   </varray>
   <i name="volume">     73.91726895 </i>
   <varray name="rec_basis" >
    <v>      -0.15010599       0.15010599       0.15010599 </v>
    <v>       0.15010599      -0.15010599       0.15010599 </v>
    <v>       0.15010599       0.15010599      -0.15010599 </v>
   </varray>
  </crystal>
  <varray name="positions" >
   <v>       0.25000000       0.25000000       0.25000000 </v>
   <v>       0.75000000       0.75000000       0.75000000 </v>
   <v>       0.00000000       0.00000000       0.00000000 </v>
  </varray>
 </structure>
 <calculation>
  <scstep>
   <time name="dav">    1.51    1.52</time>
   <time name="total">    1.68    1.75</time>
   <energy>
    <i name="alphaZ">    232.44315197 </i>
    <i name="ewald">  -3215.92493248 </i>
    <i name="hartreedc">   -719.36877319 </i>
    <i name="XCdc">     69.24043281 </i>
    <i name="pawpsdc">   3147.30828992 </i>
    <i name="pawaedc">  -3070.62761383 </i>
    <i name="eentropy">     -0.00017053 </i>
    <i name="bandstr">    332.83406036 </i>
    <i name="atom">   3674.67342263 </i>
    <i name="e_fr_energy">    450.57786767 </i>
    <i name="e_wo_entrp">    450.57803819 </i>
    <i name="e_0_energy">    450.57795293 </i>
   </energy>
  </scstep>
  <scstep>
   <time name="dav">    1.55    1.58</time>
   <time name="total">    1.55    1.59</time>
   <energy>
    <i name="e_fr_energy">     46.82794139 </i>
    <i name="e_wo_entrp">     46.82821322 </i>
    <i name="e_0_energy">     46.82807730 </i>
   </energy>
  </scstep>
  <scstep>
   <time name="dav">    1.93    1.97</time>
   <time name="total">    1.93    1.97</time>
   <energy>
    <i name="e_fr_energy">    -18.35033477 </i>
    <i name="e_wo_entrp">    -18.35002876 </i>
    <i name="e_0_energy">    -18.35018176 </i>
   </energy>
  </scstep>
  <scstep>
   <time name="dav">    2.42    2.43</time>
   <time name="total">    2.42    2.44</time>
   <energy>
    <i name="e_fr_energy">    -22.54928727 </i>
    <i name="e_wo_entrp">    -22.54902141 </i>
    <i name="e_0_energy">    -22.54915434 </i>
   </energy>
  </scstep>
  <scstep>
   <time name="dav">    1.95    1.98</time>
   <time name="total">    2.32    2.34</time>
   <energy>
    <i name="e_fr_energy">    -22.66086803 </i>
    <i name="e_wo_entrp">    -22.66060164 </i>
    <i name="e_0_energy">    -22.66073483 </i>
   </energy>
  </scstep>
  <scstep>
   <time name="dav">    1.77    1.77</time>
   <time name="total">    2.25    2.28</time>
   <energy>
    <i name="e_fr_energy">    -21.83477109 </i>
    <i name="e_wo_entrp">    -21.83452363 </i>
    <i name="e_0_energy">    -21.83464736 </i>
   </energy>
  </scstep>
  <scstep>
   <time name="dav">    2.09    2.09</time>
   <time name="total">    2.54    2.56</time>
   <energy>
    <i name="e_fr_energy">    -21.69715405 </i>
    <i name="e_wo_entrp">    -21.69694651 </i>
    <i name="e_0_energy">    -21.69705028 </i>
   </energy>
  </scstep>
  <scstep>
   <time name="dav">    1.83    1.83</time>
   <time name="total">    2.27    2.30</time>
   <energy>
    <i name="e_fr_energy">    -21.65913811 </i>
    <i name="e_wo_entrp">    -21.65896093 </i>
    <i name="e_0_energy">    -21.65904952 </i>
   </energy>
  </scstep>
  <scstep>
   <time name="dav">    2.03    2.04</time>
   <time name="total">    2.48    2.51</time>
   <energy>
    <i name="e_fr_energy">    -21.65253631 </i>
    <i name="e_wo_entrp">    -21.65232494 </i>
    <i name="e_0_energy">    -21.65243062 </i>
   </energy>
  </scstep>
  <scstep>
   <time name="dav">    1.83    1.83</time>
   <time name="total">    2.28    2.30</time>
   <energy>
    <i name="e_fr_energy">    -21.64838823 </i>
    <i name="e_wo_entrp">    -21.64815742 </i>
    <i name="e_0_energy">    -21.64827282 </i>
   </energy>
  </scstep>
  <scstep>
   <time name="dav">    1.92    1.92</time>
   <time name="total">    2.36    2.38</time>
   <energy>
    <i name="e_fr_energy">    -21.64849999 </i>
    <i name="e_wo_entrp">    -21.64826756 </i>
    <i name="e_0_energy">    -21.64838378 </i>
   </energy>
  </scstep>
  <scstep>
   <time name="dav">    1.95    1.95</time>
   <time name="total">    2.40    2.42</time>
   <energy>
    <i name="e_fr_energy">    -21.64844140 </i>
    <i name="e_wo_entrp">    -21.64821080 </i>
    <i name="e_0_energy">    -21.64832610 </i>
   </energy>
  </scstep>
  <scstep>
   <time name="dav">    2.10    2.11</time>
   <time name="total">    2.54    2.57</time>
   <energy>
    <i name="e_fr_energy">    -21.64844213 </i>
    <i name="e_wo_entrp">    -21.64821246 </i>
    <i name="e_0_energy">    -21.64832730 </i>
   </energy>
  </scstep>
  <scstep>
   <time name="dav">    1.79    1.79</time>
   <time name="total">    2.23    2.26</time>
   <energy>
    <i name="e_fr_energy">    -21.64844159 </i>
    <i name="e_wo_entrp">    -21.64821181 </i>
    <i name="e_0_energy">    -21.64832670 </i>
   </energy>
  </scstep>
  <scstep>
   <time name="dav">    2.15    2.15</time>
   <time name="total">    2.59    2.62</time>
   <energy>
    <i name="e_fr_energy">    -21.64844129 </i>
    <i name="e_wo_entrp">    -21.64821145 </i>
    <i name="e_0_energy">    -21.64832637 </i>
   </energy>
  </scstep>
  <scstep>
   <time name="dav">    1.37    1.37</time>
   <time name="total">    1.51    1.54</time>
   <energy>
    <i name="alphaZ">    232.44315197 </i>
    <i name="ewald">  -3215.92493248 </i>
    <i name="hartreedc">   -693.11543856 </i>
    <i name="XCdc">     68.57697987 </i>
    <i name="pawpsdc">   4142.51100528 </i>
    <i name="pawaedc">  -4075.96988748 </i>
    <i name="eentropy">     -0.00022986 </i>
    <i name="bandstr">   -154.84251267 </i>
    <i name="atom">   3674.67342263 </i>
    <i name="e_fr_energy">    -21.64844128 </i>
    <i name="e_wo_entrp">    -21.64821142 </i>
    <i name="e_0_energy">    -21.64832635 </i>
   </energy>
  </scstep>
  <structure>
   <crystal>
    <varray name="basis" >
     <v>       0.00000000       3.33097959       3.33097959 </v>
     <v>       3.33097959       0.00000000       3.33097959 </v>
     <v>       3.33097959       3.33097959       0.00000000 </v>
    </varray>
    <i name="volume">     73.91726895 </i>
    <varray name="rec_basis" >
     <v>      -0.15010599       0.15010599       0.15010599 </v>
     <v>       0.15010599      -0.15010599       0.15010599 </v>
     <v>       0.15010599       0.15010599      -0.15010599 </v>
    </varray>
   </crystal>
   <varray name="positions" >
    <v>       0.25000000       0.25000000       0.25000000 </v>
    <v>       0.75000000       0.75000000       0.75000000 </v>
    <v>       0.00000000       0.00000000       0.00000000 </v>
   </varray>
  </structure>
  <varray name="forces" >
   <v>       0.00000000       0.00000000      -0.00000000 </v>
   <v>       0.00000000       0.00000000      -0.00000000 </v>
   <v>      -0.00000000      -0.00000000       0.00000000 </v>
  </varray>
  <varray name="stress" >
   <v>     107.86247098      -0.00000000       0.00000000 </v>
   <v>      -0.00000000     107.86247098       0.00000000 </v>
   <v>       0.00000000      -0.00000000     107.86247098 </v>
  </varray>
  <energy>
   <i name="e_fr_energy">    -21.64844128 </i>
   <i name="e_wo_entrp">    -21.64832635 </i>
   <i name="e_0_energy">     -0.00022986 </i>
  </energy>
  <time name="totalsc">   39.28   40.21</time>
  <eigenvalues>
   <array>
    <dimension dim="1">band</dimension>
    <dimension dim="2">kpoint</dimension>
    <dimension dim="3">spin</dimension>
    <field>eigene</field>
    <field>occ</field>
    <set>
     <set comment="spin 1">
      <set comment="kpoint 1">
       <r>  -30.2968    1.0000 </r>
       <r>  -13.6051    1.0000 </r>
       <r>  -13.6051    1.0000 </r>
       <r>  -13.5654    1.0000 </r>
       <r>  -13.5654    1.0000 </r>
       <r>  -13.5654    1.0000 </r>
       <r>   -8.4196    1.0000 </r>
       <r>   -8.4196    1.0000 </r>
       <r>   -8.4196    1.0000 </r>
       <r>   -3.1839    1.0000 </r>
       <r>    4.8795    1.0000 </r>
       <r>    4.8795    1.0000 </r>
       <r>    4.8795    1.0000 </r>
       <r>    5.0042    1.0000 </r>
       <r>    5.0042    1.0000 </r>
       <r>    7.9738    1.0000 </r>
       <r>    8.2973    1.0000 </r>
       <r>    8.2973    1.0000 </r>
       <r>    8.2973    1.0000 </r>
       <r>    9.7390    0.0000 </r>
       <r>    9.7390    0.0000 </r>
       <r>    9.7390    0.0000 </r>
       <r>   10.6522    0.0000 </r>
       <r>   11.7629    0.0000 </r>
      </set>
      <set comment="kpoint 2">
       <r>  -30.2963    1.0000 </r>
       <r>  -13.6061    1.0000 </r>
       <r>  -13.6061    1.0000 </r>
       <r>  -13.5656    1.0000 </r>
       <r>  -13.5652    1.0000 </r>
       <r>  -13.5652    1.0000 </r>
       <r>   -8.4455    1.0000 </r>
       <r>   -8.4160    1.0000 </r>
       <r>   -8.4160    1.0000 </r>
       <r>   -3.1044    1.0000 </r>
       <r>    4.6957    1.0000 </r>
       <r>    4.6957    1.0000 </r>
       <r>    4.7466    1.0000 </r>
       <r>    5.1775    1.0000 </r>
       <r>    5.1775    1.0000 </r>
       <r>    7.3849    1.0000 </r>
       <r>    8.2117    1.0000 </r>
       <r>    8.2117    1.0000 </r>
       <r>    8.7182    1.0000 </r>
       <r>    9.8435    0.0000 </r>
       <r>    9.8435    0.0000 </r>
       <r>    9.8700    0.0000 </r>
       <r>   10.9165    0.0000 </r>
       <r>   11.7677    0.0000 </r>
      </set>
      <set comment="kpoint 3">
       <r>  -30.2948    1.0000 </r>
       <r>  -13.6092    1.0000 </r>
       <r>  -13.6092    1.0000 </r>
       <r>  -13.5664    1.0000 </r>
       <r>  -13.5646    1.0000 </r>
       <r>  -13.5646    1.0000 </r>
       <r>   -8.5133    1.0000 </r>
       <r>   -8.4061    1.0000 </r>
       <r>   -8.4061    1.0000 </r>
       <r>   -2.8859    1.0000 </r>
       <r>    4.4028    1.0000 </r>
       <r>    4.4910    1.0000 </r>
       <r>    4.4910    1.0000 </r>
       <r>    5.3380    1.0000 </r>
       <r>    5.3380    1.0000 </r>
       <r>    6.7184    1.0000 </r>
       <r>    8.0391    1.0000 </r>
       <r>    8.0391    1.0000 </r>
       <r>    8.8726    1.0000 </r>
       <r>   10.0910    0.0000 </r>
       <r>   10.0910    0.0000 </r>
       <r>   10.4524    0.0000 </r>
       <r>   11.4043    0.0000 </r>
       <r>   11.7770    0.0000 </r>
      </set>
      <set comment="kpoint 4">
       <r>  -30.2927    1.0000 </r>
       <r>  -13.6135    1.0000 </r>
       <r>  -13.6135    1.0000 </r>
       <r>  -13.5676    1.0000 </r>
       <r>  -13.5637    1.0000 </r>
       <r>  -13.5637    1.0000 </r>
       <r>   -8.6007    1.0000 </r>
       <r>   -8.3922    1.0000 </r>
       <r>   -8.3922    1.0000 </r>
       <r>   -2.5815    1.0000 </r>
       <r>    3.9676    1.0000 </r>
       <r>    4.3384    1.0000 </r>
       <r>    4.3384    1.0000 </r>
       <r>    5.3894    1.0000 </r>
       <r>    5.3894    1.0000 </r>
       <r>    6.1818    1.0000 </r>
       <r>    7.9011    1.0000 </r>
       <r>    7.9011    1.0000 </r>
       <r>    8.9194    1.0000 </r>
       <r>   10.3917    0.0000 </r>
       <r>   10.3917    0.0000 </r>
       <r>   11.1694    0.0000 </r>
       <r>   11.7627    0.0000 </r>
       <r>   11.7649    0.0000 </r>
      </set>
      <set comment="kpoint 5">
       <r>  -30.2905    1.0000 </r>
       <r>  -13.6181    1.0000 </r>
       <r>  -13.6181    1.0000 </r>
       <r>  -13.5690    1.0000 </r>
       <r>  -13.5628    1.0000 </r>
       <r>  -13.5628    1.0000 </r>
       <r>   -8.6842    1.0000 </r>
       <r>   -8.3776    1.0000 </r>
       <r>   -8.3776    1.0000 </r>
       <r>   -2.2621    1.0000 </r>
       <r>    3.5564    1.0000 </r>
       <r>    4.2500    1.0000 </r>
       <r>    4.2500    1.0000 </r>
       <r>    5.3253    1.0000 </r>
       <r>    5.3253    1.0000 </r>
       <r>    5.8007    1.0000 </r>
       <r>    7.8444    1.0000 </r>
       <r>    7.8444    1.0000 </r>
       <r>    9.0203    1.0000 </r>
       <r>   10.6891    0.0000 </r>
       <r>   10.6891    0.0000 </r>
       <r>   11.6571    0.0000 </r>
       <r>   11.7303    0.0000 </r>
       <r>   11.7304    0.0000 </r>
      </set>
      <set comment="kpoint 6">
       <r>  -30.2886    1.0000 </r>
       <r>  -13.6219    1.0000 </r>
       <r>  -13.6219    1.0000 </r>
       <r>  -13.5704    1.0000 </r>
       <r>  -13.5620    1.0000 </r>
       <r>  -13.5620    1.0000 </r>
       <r>   -8.7472    1.0000 </r>
       <r>   -8.3655    1.0000 </r>
       <r>   -8.3655    1.0000 </r>
       <r>   -2.0004    1.0000 </r>
       <r>    3.2493    1.0000 </r>
       <r>    4.2195    1.0000 </r>
       <r>    4.2195    1.0000 </r>
       <r>    5.2026    1.0000 </r>
       <r>    5.2026    1.0000 </r>
       <r>    5.5674    1.0000 </r>
       <r>    7.8444    1.0000 </r>
       <r>    7.8444    1.0000 </r>
       <r>    9.1887    1.0000 </r>
       <r>   10.9301    0.0000 </r>
       <r>   10.9301    0.0000 </r>
       <r>   11.6979    0.0000 </r>
       <r>   11.6979    0.0000 </r>
       <r>   11.7808    0.0000 </r>
      </set>
      <set comment="kpoint 7">
       <r>  -30.2876    1.0000 </r>
       <r>  -13.6240    1.0000 </r>
       <r>  -13.6240    1.0000 </r>
       <r>  -13.5712    1.0000 </r>
       <r>  -13.5615    1.0000 </r>
       <r>  -13.5615    1.0000 </r>
       <r>   -8.7805    1.0000 </r>
       <r>   -8.3587    1.0000 </r>
       <r>   -8.3587    1.0000 </r>
       <r>   -1.8541    1.0000 </r>
       <r>    3.0885    1.0000 </r>
       <r>    4.2209    1.0000 </r>
       <r>    4.2209    1.0000 </r>
       <r>    5.1075    1.0000 </r>
       <r>    5.1075    1.0000 </r>
       <r>    5.4602    1.0000 </r>
       <r>    7.8574    1.0000 </r>
       <r>    7.8574    1.0000 </r>
       <r>    9.3532    1.0000 </r>
       <r>   11.0648    0.0000 </r>
       <r>   11.0648    0.0000 </r>
       <r>   11.6000    0.0000 </r>
       <r>   11.6757    0.0000 </r>
       <r>   11.6757    0.0000 </r>
      </set>
      <set comment="kpoint 8">
       <r>  -30.2961    1.0000 </r>
       <r>  -13.6082    1.0000 </r>
       <r>  -13.6047    1.0000 </r>
       <r>  -13.5659    1.0000 </r>
       <r>  -13.5650    1.0000 </r>
       <r>  -13.5650    1.0000 </r>
       <r>   -8.4400    1.0000 </r>
       <r>   -8.4219    1.0000 </r>
       <r>   -8.4219    1.0000 </r>
       <r>   -3.0800    1.0000 </r>
       <r>    4.4152    1.0000 </r>
       <r>    4.8917    1.0000 </r>
       <r>    4.8917    1.0000 </r>
       <r>    5.0214    1.0000 </r>
       <r>    5.2275    1.0000 </r>
       <r>    7.3706    1.0000 </r>
       <r>    8.0820    1.0000 </r>
       <r>    8.0820    1.0000 </r>
       <r>    8.9834    1.0000 </r>
       <r>    9.5464    0.2268 </r>
       <r>   10.0238    0.0000 </r>
       <r>   10.0238    0.0000 </r>
       <r>   10.9641    0.0000 </r>
       <r>   11.7350    0.0000 </r>
      </set>
      <set comment="kpoint 9">
       <r>  -30.2949    1.0000 </r>
       <r>  -13.6116    1.0000 </r>
       <r>  -13.6054    1.0000 </r>
       <r>  -13.5665    1.0000 </r>
       <r>  -13.5646    1.0000 </r>
       <r>  -13.5645    1.0000 </r>
       <r>   -8.4902    1.0000 </r>
       <r>   -8.4204    1.0000 </r>
       <r>   -8.4115    1.0000 </r>
       <r>   -2.9145    1.0000 </r>
       <r>    4.1143    1.0000 </r>
       <r>    4.7456    1.0000 </r>
       <r>    4.7460    1.0000 </r>
       <r>    5.1710    1.0000 </r>
       <r>    5.3507    1.0000 </r>
       <r>    6.9143    1.0000 </r>
       <r>    7.9095    1.0000 </r>
       <r>    7.9098    1.0000 </r>
       <r>    9.2459    1.0000 </r>
       <r>    9.5928    0.0000 </r>
       <r>   10.2853    0.0000 </r>
       <r>   10.4239    0.0000 </r>
       <r>   11.3206    0.0000 </r>
       <r>   11.7095    0.0000 </r>
      </set>
      <set comment="kpoint 10">
       <r>  -30.2931    1.0000 </r>
       <r>  -13.6156    1.0000 </r>
       <r>  -13.6083    1.0000 </r>
       <r>  -13.5674    1.0000 </r>
       <r>  -13.5640    1.0000 </r>
       <r>  -13.5636    1.0000 </r>
       <r>   -8.5700    1.0000 </r>
       <r>   -8.4119    1.0000 </r>
       <r>   -8.3958    1.0000 </r>
       <r>   -2.6503    1.0000 </r>
       <r>    3.8264    1.0000 </r>
       <r>    4.4698    1.0000 </r>
       <r>    4.5871    1.0000 </r>
       <r>    5.2626    1.0000 </r>
       <r>    5.4506    1.0000 </r>
       <r>    6.3996    1.0000 </r>
       <r>    7.7477    1.0000 </r>
       <r>    7.7945    1.0000 </r>
       <r>    9.2212    1.0000 </r>
       <r>    9.9920    0.0000 </r>
       <r>   10.5541    0.0000 </r>
       <r>   11.0082    0.0000 </r>
       <r>   11.6887    0.0000 </r>
       <r>   11.7056    0.0000 </r>
      </set>
      <set comment="kpoint 11">
       <r>  -30.2909    1.0000 </r>
       <r>  -13.6194    1.0000 </r>
       <r>  -13.6126    1.0000 </r>
       <r>  -13.5686    1.0000 </r>
       <r>  -13.5633    1.0000 </r>
       <r>  -13.5626    1.0000 </r>
       <r>   -8.6530    1.0000 </r>
       <r>   -8.3985    1.0000 </r>
       <r>   -8.3819    1.0000 </r>
       <r>   -2.3523    1.0000 </r>
       <r>    3.5536    1.0000 </r>
       <r>    4.2504    1.0000 </r>
       <r>    4.4699    1.0000 </r>
       <r>    5.2360    1.0000 </r>
       <r>    5.4498    1.0000 </r>
       <r>    5.9734    1.0000 </r>
       <r>    7.6680    1.0000 </r>
       <r>    7.7667    1.0000 </r>
       <r>    9.1920    1.0000 </r>
       <r>   10.4322    0.0000 </r>
       <r>   10.8006    0.0000 </r>
       <r>   11.5020    0.0000 </r>
       <r>   11.6741    0.0000 </r>
       <r>   11.7756    0.0000 </r>
      </set>
      <set comment="kpoint 12">
       <r>  -30.2889    1.0000 </r>
       <r>  -13.6221    1.0000 </r>
       <r>  -13.6173    1.0000 </r>
       <r>  -13.5698    1.0000 </r>
       <r>  -13.5625    1.0000 </r>
       <r>  -13.5618    1.0000 </r>
       <r>   -8.7209    1.0000 </r>
       <r>   -8.3831    1.0000 </r>
       <r>   -8.3728    1.0000 </r>
       <r>   -2.0899    1.0000 </r>
       <r>    3.3234    1.0000 </r>
       <r>    4.1533    1.0000 </r>
       <r>    4.3838    1.0000 </r>
       <r>    5.1507    1.0000 </r>
       <r>    5.3588    1.0000 </r>
       <r>    5.6755    1.0000 </r>
       <r>    7.6637    1.0000 </r>
       <r>    7.7901    1.0000 </r>
       <r>    9.2557    1.0000 </r>
       <r>   10.7810    0.0000 </r>
       <r>   10.9976    0.0000 </r>
       <r>   11.6349    0.0000 </r>
       <r>   11.6626    0.0000 </r>
       <r>   11.8329    0.0000 </r>
      </set>
      <set comment="kpoint 13">
       <r>  -30.2876    1.0000 </r>
       <r>  -13.6231    1.0000 </r>
       <r>  -13.6214    1.0000 </r>
       <r>  -13.5707    1.0000 </r>
       <r>  -13.5620    1.0000 </r>
       <r>  -13.5613    1.0000 </r>
       <r>   -8.7625    1.0000 </r>
       <r>   -8.3706    1.0000 </r>
       <r>   -8.3693    1.0000 </r>
       <r>   -1.9195    1.0000 </r>
       <r>    3.1782    1.0000 </r>
       <r>    4.1646    1.0000 </r>
       <r>    4.2980    1.0000 </r>
       <r>    5.1043    1.0000 </r>
       <r>    5.2312    1.0000 </r>
       <r>    5.5119    1.0000 </r>
       <r>    7.6881    1.0000 </r>
       <r>    7.8147    1.0000 </r>
       <r>    9.3889    1.0000 </r>
       <r>   10.9561    0.0000 </r>
       <r>   11.1095    0.0000 </r>
       <r>   11.5980    0.0000 </r>
       <r>   11.6512    0.0000 </r>
       <r>   11.7877    0.0000 </r>
      </set>
      <set comment="kpoint 14">
       <r>  -30.2873    1.0000 </r>
       <r>  -13.6238    1.0000 </r>
       <r>  -13.6221    1.0000 </r>
       <r>  -13.5709    1.0000 </r>
       <r>  -13.5618    1.0000 </r>
       <r>  -13.5613    1.0000 </r>
       <r>   -8.7730    1.0000 </r>
       <r>   -8.3756    1.0000 </r>
       <r>   -8.3602    1.0000 </r>
       <r>   -1.8731    1.0000 </r>
       <r>    3.1396    1.0000 </r>
       <r>    4.1989    1.0000 </r>
       <r>    4.2431    1.0000 </r>
       <r>    5.1313    1.0000 </r>
       <r>    5.1543    1.0000 </r>
       <r>    5.4746    1.0000 </r>
       <r>    7.6945    1.0000 </r>
       <r>    7.8190    1.0000 </r>
       <r>    9.4572    1.0000 </r>
       <r>   10.9847    0.0000 </r>
       <r>   11.1027    0.0000 </r>
       <r>   11.5975    0.0000 </r>
       <r>   11.6490    0.0000 </r>
       <r>   11.7334    0.0000 </r>
      </set>
      <set comment="kpoint 15">
       <r>  -30.2880    1.0000 </r>
       <r>  -13.6241    1.0000 </r>
       <r>  -13.6193    1.0000 </r>
       <r>  -13.5703    1.0000 </r>
       <r>  -13.5619    1.0000 </r>
       <r>  -13.5617    1.0000 </r>
       <r>   -8.7515    1.0000 </r>
       <r>   -8.3863    1.0000 </r>
       <r>   -8.3578    1.0000 </r>
       <r>   -1.9590    1.0000 </r>
       <r>    3.2158    1.0000 </r>
       <r>    4.1160    1.0000 </r>
       <r>    4.3458    1.0000 </r>
       <r>    5.1102    1.0000 </r>
       <r>    5.2807    1.0000 </r>
       <r>    5.5556    1.0000 </r>
       <r>    7.6572    1.0000 </r>
       <r>    7.8123    1.0000 </r>
       <r>    9.3694    1.0000 </r>
       <r>   10.9582    0.0000 </r>
       <r>   11.0196    0.0000 </r>
       <r>   11.6173    0.0000 </r>
       <r>   11.6646    0.0000 </r>
       <r>   11.8185    0.0000 </r>
      </set>
      <set comment="kpoint 16">
       <r>  -30.2895    1.0000 </r>
       <r>  -13.6222    1.0000 </r>
       <r>  -13.6155    1.0000 </r>
       <r>  -13.5692    1.0000 </r>
       <r>  -13.5625    1.0000 </r>
       <r>  -13.5625    1.0000 </r>
       <r>   -8.7004    1.0000 </r>
       <r>   -8.4004    1.0000 </r>
       <r>   -8.3627    1.0000 </r>
       <r>   -2.1631    1.0000 </r>
       <r>    3.4108    1.0000 </r>
       <r>    4.0868    1.0000 </r>
       <r>    4.4559    1.0000 </r>
       <r>    5.1658    1.0000 </r>
       <r>    5.4217    1.0000 </r>
       <r>    5.7601    1.0000 </r>
       <r>    7.5826    1.0000 </r>
       <r>    7.8265    1.0000 </r>
       <r>    9.2592    1.0000 </r>
       <r>   10.6956    0.0000 </r>
       <r>   10.9096    0.0000 </r>
       <r>   11.6118    0.0000 </r>
       <r>   11.6895    0.0000 </r>
       <r>   11.8208    0.0000 </r>
      </set>
      <set comment="kpoint 17">
       <r>  -30.2916    1.0000 </r>
       <r>  -13.6185    1.0000 </r>
       <r>  -13.6114    1.0000 </r>
       <r>  -13.5680    1.0000 </r>
       <r>  -13.5635    1.0000 </r>
       <r>  -13.5632    1.0000 </r>
       <r>   -8.6269    1.0000 </r>
       <r>   -8.4141    1.0000 </r>
       <r>   -8.3739    1.0000 </r>
       <r>   -2.4450    1.0000 </r>
       <r>    3.7111    1.0000 </r>
       <r>    4.1327    1.0000 </r>
       <r>    4.5927    1.0000 </r>
       <r>    5.2245    1.0000 </r>
       <r>    5.5067    1.0000 </r>
       <r>    6.0985    1.0000 </r>
       <r>    7.5214    1.0000 </r>
       <r>    7.9014    1.0000 </r>
       <r>    9.2190    1.0000 </r>
       <r>   10.3724    0.0000 </r>
       <r>   10.6248    0.0000 </r>
       <r>   11.3826    0.0000 </r>
       <r>   11.7143    0.0000 </r>
       <r>   11.7593    0.0000 </r>
      </set>
      <set comment="kpoint 18">
       <r>  -30.2937    1.0000 </r>
       <r>  -13.6140    1.0000 </r>
       <r>  -13.6079    1.0000 </r>
       <r>  -13.5669    1.0000 </r>
       <r>  -13.5643    1.0000 </r>
       <r>  -13.5640    1.0000 </r>
       <r>   -8.5450    1.0000 </r>
       <r>   -8.4238    1.0000 </r>
       <r>   -8.3889    1.0000 </r>
       <r>   -2.7412    1.0000 </r>
       <r>    4.0709    1.0000 </r>
       <r>    4.2585    1.0000 </r>
       <r>    4.7703    1.0000 </r>
       <r>    5.1976    1.0000 </r>
       <r>    5.4871    1.0000 </r>
       <r>    6.5543    1.0000 </r>
       <r>    7.5672    1.0000 </r>
       <r>    8.0462    1.0000 </r>
       <r>    9.2298    1.0000 </r>
       <r>   10.0625    0.0000 </r>
       <r>   10.1798    0.0000 </r>
       <r>   10.9027    0.0000 </r>
       <r>   11.5945    0.0000 </r>
       <r>   11.7565    0.0000 </r>
      </set>
      <set comment="kpoint 19">
       <r>  -30.2954    1.0000 </r>
       <r>  -13.6095    1.0000 </r>
       <r>  -13.6061    1.0000 </r>
       <r>  -13.5661    1.0000 </r>
       <r>  -13.5649    1.0000 </r>
       <r>  -13.5647    1.0000 </r>
       <r>   -8.4772    1.0000 </r>
       <r>   -8.4247    1.0000 </r>
       <r>   -8.4041    1.0000 </r>
       <r>   -2.9809    1.0000 </r>
       <r>    4.4262    1.0000 </r>
       <r>    4.4547    1.0000 </r>
       <r>    4.9025    1.0000 </r>
       <r>    5.1075    1.0000 </r>
       <r>    5.3640    1.0000 </r>
       <r>    7.0331    1.0000 </r>
       <r>    7.8276    1.0000 </r>
       <r>    8.1914    1.0000 </r>
       <r>    9.0859    1.0000 </r>
       <r>    9.8171    0.0000 </r>
       <r>    9.8543    0.0000 </r>
       <r>   10.3840    0.0000 </r>
       <r>   11.2029    0.0000 </r>
       <r>   11.7628    0.0000 </r>
      </set>
      <set comment="kpoint 20">
       <r>  -30.2942    1.0000 </r>
       <r>  -13.6145    1.0000 </r>
       <r>  -13.6036    1.0000 </r>
       <r>  -13.5673    1.0000 </r>
       <r>  -13.5640    1.0000 </r>
       <r>  -13.5640    1.0000 </r>
       <r>   -8.4919    1.0000 </r>
       <r>   -8.4284    1.0000 </r>
       <r>   -8.4284    1.0000 </r>
       <r>   -2.8211    1.0000 </r>
       <r>    3.7960    1.0000 </r>
       <r>    4.9098    1.0000 </r>
       <r>    4.9098    1.0000 </r>
       <r>    5.0701    1.0000 </r>
       <r>    5.2683    1.0000 </r>
       <r>    6.8927    1.0000 </r>
       <r>    7.7544    1.0000 </r>
       <r>    7.7544    1.0000 </r>
       <r>    9.1689    1.0000 </r>
       <r>    9.7980    0.0000 </r>
       <r>   10.5339    0.0000 </r>
       <r>   10.5339    0.0000 </r>
       <r>   11.4448    0.0000 </r>
       <r>   11.6471    0.0000 </r>
      </set>
      <set comment="kpoint 21">
       <r>  -30.2926    1.0000 </r>
       <r>  -13.6172    1.0000 </r>
       <r>  -13.6041    1.0000 </r>
       <r>  -13.5682    1.0000 </r>
       <r>  -13.5634    1.0000 </r>
       <r>  -13.5632    1.0000 </r>
       <r>   -8.5468    1.0000 </r>
       <r>   -8.4284    1.0000 </r>
       <r>   -8.4202    1.0000 </r>
       <r>   -2.6347    1.0000 </r>
       <r>    3.5500    1.0000 </r>
       <r>    4.7394    1.0000 </r>
       <r>    4.8133    1.0000 </r>
       <r>    5.1572    1.0000 </r>
       <r>    5.3328    1.0000 </r>
       <r>    6.6248    1.0000 </r>
       <r>    7.5652    1.0000 </r>
       <r>    7.6615    1.0000 </r>
       <r>    9.2929    1.0000 </r>
       <r>    9.9434    0.0000 </r>
       <r>   10.7631    0.0000 </r>
       <r>   10.9221    0.0000 </r>
       <r>   11.5968    0.0000 </r>
       <r>   11.6888    0.0000 </r>
      </set>
      <set comment="kpoint 22">
       <r>  -30.2907    1.0000 </r>
       <r>  -13.6191    1.0000 </r>
       <r>  -13.6070    1.0000 </r>
       <r>  -13.5690    1.0000 </r>
       <r>  -13.5629    1.0000 </r>
       <r>  -13.5622    1.0000 </r>
       <r>   -8.6189    1.0000 </r>
       <r>   -8.4205    1.0000 </r>
       <r>   -8.4077    1.0000 </r>
       <r>   -2.4079    1.0000 </r>
       <r>    3.4015    1.0000 </r>
       <r>    4.4624    1.0000 </r>
       <r>    4.6907    1.0000 </r>
       <r>    5.1757    1.0000 </r>
       <r>    5.4144    1.0000 </r>
       <r>    6.2641    1.0000 </r>
       <r>    7.3960    1.0000 </r>
       <r>    7.6582    1.0000 </r>
       <r>    9.3981    1.0000 </r>
       <r>   10.2526    0.0000 </r>
       <r>   10.9546    0.0000 </r>
       <r>   11.3502    0.0000 </r>
       <r>   11.5755    0.0000 </r>
       <r>   11.8059    0.0000 </r>
      </set>
      <set comment="kpoint 23">
       <r>  -30.2888    1.0000 </r>
       <r>  -13.6199    1.0000 </r>
       <r>  -13.6114    1.0000 </r>
       <r>  -13.5697    1.0000 </r>
       <r>  -13.5627    1.0000 </r>
       <r>  -13.5613    1.0000 </r>
       <r>   -8.6826    1.0000 </r>
       <r>   -8.4064    1.0000 </r>
       <r>   -8.4023    1.0000 </r>
       <r>   -2.1976    1.0000 </r>
       <r>    3.3481    1.0000 </r>
       <r>    4.2523    1.0000 </r>
       <r>    4.5636    1.0000 </r>
       <r>    5.1422    1.0000 </r>
       <r>    5.4200    1.0000 </r>
       <r>    5.9199    1.0000 </r>
       <r>    7.3336    1.0000 </r>
       <r>    7.7002    1.0000 </r>
       <r>    9.3994    1.0000 </r>
       <r>   10.6703    0.0000 </r>
       <r>   11.1054    0.0000 </r>
       <r>   11.5550    0.0000 </r>
       <r>   11.5844    0.0000 </r>
       <r>   11.8527    0.0000 </r>
      </set>
      <set comment="kpoint 24">
       <r>  -30.2874    1.0000 </r>
       <r>  -13.6193    1.0000 </r>
       <r>  -13.6163    1.0000 </r>
       <r>  -13.5700    1.0000 </r>
       <r>  -13.5626    1.0000 </r>
       <r>  -13.5608    1.0000 </r>
       <r>   -8.7252    1.0000 </r>
       <r>   -8.4058    1.0000 </r>
       <r>   -8.3895    1.0000 </r>
       <r>   -2.0457    1.0000 </r>
       <r>    3.3487    1.0000 </r>
       <r>    4.1676    1.0000 </r>
       <r>    4.4074    1.0000 </r>
       <r>    5.1483    1.0000 </r>
       <r>    5.3548    1.0000 </r>
       <r>    5.6745    1.0000 </r>
       <r>    7.3343    1.0000 </r>
       <r>    7.7296    1.0000 </r>
       <r>    9.4671    1.0000 </r>
       <r>   10.8615    0.0000 </r>
       <r>   11.1999    0.0000 </r>
       <r>   11.5733    0.0000 </r>
       <r>   11.5993    0.0000 </r>
       <r>   11.8670    0.0000 </r>
      </set>
      <set comment="kpoint 25">
       <r>  -30.2868    1.0000 </r>
       <r>  -13.6207    1.0000 </r>
       <r>  -13.6175    1.0000 </r>
       <r>  -13.5700    1.0000 </r>
       <r>  -13.5626    1.0000 </r>
       <r>  -13.5607    1.0000 </r>
       <r>   -8.7415    1.0000 </r>
       <r>   -8.4168    1.0000 </r>
       <r>   -8.3734    1.0000 </r>
       <r>   -1.9728    1.0000 </r>
       <r>    3.3478    1.0000 </r>
       <r>    4.2142    1.0000 </r>
       <r>    4.2357    1.0000 </r>
       <r>    5.2310    1.0000 </r>
       <r>    5.2498    1.0000 </r>
       <r>    5.5810    1.0000 </r>
       <r>    7.3326    1.0000 </r>
       <r>    7.7268    1.0000 </r>
       <r>    9.5850    0.0000 </r>
       <r>   10.8026    0.0000 </r>
       <r>   11.2056    0.0000 </r>
       <r>   11.6067    0.0000 </r>
       <r>   11.6351    0.0000 </r>
       <r>   11.8181    0.0000 </r>
      </set>
      <set comment="kpoint 26">
       <r>  -30.2871    1.0000 </r>
       <r>  -13.6234    1.0000 </r>
       <r>  -13.6150    1.0000 </r>
       <r>  -13.5695    1.0000 </r>
       <r>  -13.5627    1.0000 </r>
       <r>  -13.5612    1.0000 </r>
       <r>   -8.7309    1.0000 </r>
       <r>   -8.4316    1.0000 </r>
       <r>   -8.3618    1.0000 </r>
       <r>   -1.9877    1.0000 </r>
       <r>    3.3377    1.0000 </r>
       <r>    4.0902    1.0000 </r>
       <r>    4.3515    1.0000 </r>
       <r>    5.1593    1.0000 </r>
       <r>    5.3661    1.0000 </r>
       <r>    5.6444    1.0000 </r>
       <r>    7.2776    1.0000 </r>
       <r>    7.7111    1.0000 </r>
       <r>    9.6249    0.0000 </r>
       <r>   10.8476    0.0000 </r>
       <r>   11.0828    0.0000 </r>
       <r>   11.6196    0.0000 </r>
       <r>   11.6498    0.0000 </r>
       <r>   11.8354    0.0000 </r>
      </set>
      <set comment="kpoint 27">
       <r>  -30.2883    1.0000 </r>
       <r>  -13.6240    1.0000 </r>
       <r>  -13.6122    1.0000 </r>
       <r>  -13.5688    1.0000 </r>
       <r>  -13.5629    1.0000 </r>
       <r>  -13.5620    1.0000 </r>
       <r>   -8.6962    1.0000 </r>
       <r>   -8.4451    1.0000 </r>
       <r>   -8.3574    1.0000 </r>
       <r>   -2.0947    1.0000 </r>
       <r>    3.3668    1.0000 </r>
       <r>    4.0059    1.0000 </r>
       <r>    4.5343    1.0000 </r>
       <r>    5.1176    1.0000 </r>
       <r>    5.5041    1.0000 </r>
       <r>    5.8400    1.0000 </r>
       <r>    7.1598    1.0000 </r>
       <r>    7.7219    1.0000 </r>
       <r>    9.6062    0.0000 </r>
       <r>   10.8355    0.0000 </r>
       <r>   10.9166    0.0000 </r>
       <r>   11.6126    0.0000 </r>
       <r>   11.6425    0.0000 </r>
       <r>   11.8740    0.0000 </r>
      </set>
      <set comment="kpoint 28">
       <r>  -30.2901    1.0000 </r>
       <r>  -13.6223    1.0000 </r>
       <r>  -13.6097    1.0000 </r>
       <r>  -13.5680    1.0000 </r>
       <r>  -13.5632    1.0000 </r>
       <r>  -13.5629    1.0000 </r>
       <r>   -8.6448    1.0000 </r>
       <r>   -8.4513    1.0000 </r>
       <r>   -8.3613    1.0000 </r>
       <r>   -2.2848    1.0000 </r>
       <r>    3.4939    1.0000 </r>
       <r>    4.0032    1.0000 </r>
       <r>    4.7308    1.0000 </r>
       <r>    5.1036    1.0000 </r>
       <r>    5.5879    1.0000 </r>
       <r>    6.1345    1.0000 </r>
       <r>    7.0405    1.0000 </r>
       <r>    7.7967    1.0000 </r>
       <r>    9.6111    0.0000 </r>
       <r>   10.5239    0.0000 </r>
       <r>   10.7516    0.0000 </r>
       <r>   11.5283    0.0000 </r>
       <r>   11.6695    0.0000 </r>
       <r>   11.8595    0.0000 </r>
      </set>
      <set comment="kpoint 29">
       <r>  -30.2920    1.0000 </r>
       <r>  -13.6187    1.0000 </r>
       <r>  -13.6081    1.0000 </r>
       <r>  -13.5674    1.0000 </r>
       <r>  -13.5637    1.0000 </r>
       <r>  -13.5635    1.0000 </r>
       <r>   -8.5896    1.0000 </r>
       <r>   -8.4443    1.0000 </r>
       <r>   -8.3727    1.0000 </r>
       <r>   -2.5204    1.0000 </r>
       <r>    3.7392    1.0000 </r>
       <r>    4.0892    1.0000 </r>
       <r>    4.8887    1.0000 </r>
       <r>    5.0779    1.0000 </r>
       <r>    5.5808    1.0000 </r>
       <r>    6.4137    1.0000 </r>
       <r>    7.1172    1.0000 </r>
       <r>    7.9310    1.0000 </r>
       <r>    9.5682    0.0001 </r>
       <r>   10.2333    0.0000 </r>
       <r>   10.3840    0.0000 </r>
       <r>   11.2996    0.0000 </r>
       <r>   11.6999    0.0000 </r>
       <r>   11.7605    0.0000 </r>
      </set>
      <set comment="kpoint 30">
       <r>  -30.2915    1.0000 </r>
       <r>  -13.6178    1.0000 </r>
       <r>  -13.6020    1.0000 </r>
       <r>  -13.5694    1.0000 </r>
       <r>  -13.5624    1.0000 </r>
       <r>  -13.5624    1.0000 </r>
       <r>   -8.5559    1.0000 </r>
       <r>   -8.4380    1.0000 </r>
       <r>   -8.4380    1.0000 </r>
       <r>   -2.5483    1.0000 </r>
       <r>    3.3670    1.0000 </r>
       <r>    4.8920    1.0000 </r>
       <r>    4.8920    1.0000 </r>
       <r>    5.1293    1.0000 </r>
       <r>    5.1413    1.0000 </r>
       <r>    6.6186    1.0000 </r>
       <r>    7.5870    1.0000 </r>
       <r>    7.5870    1.0000 </r>
       <r>    9.0452    1.0000 </r>
       <r>   10.2788    0.0000 </r>
       <r>   10.9468    0.0000 </r>
       <r>   10.9468    0.0000 </r>
       <r>   11.5064    0.0000 </r>
       <r>   11.7758    0.0000 </r>
      </set>
      <set comment="kpoint 31">
       <r>  -30.2899    1.0000 </r>
       <r>  -13.6172    1.0000 </r>
       <r>  -13.6025    1.0000 </r>
       <r>  -13.5703    1.0000 </r>
       <r>  -13.5617    1.0000 </r>
       <r>  -13.5614    1.0000 </r>
       <r>   -8.6012    1.0000 </r>
       <r>   -8.4386    1.0000 </r>
       <r>   -8.4365    1.0000 </r>
       <r>   -2.4249    1.0000 </r>
       <r>    3.3185    1.0000 </r>
       <r>    4.6749    1.0000 </r>
       <r>    4.8201    1.0000 </r>
       <r>    5.1768    1.0000 </r>
       <r>    5.1960    1.0000 </r>
       <r>    6.4458    1.0000 </r>
       <r>    7.4345    1.0000 </r>
       <r>    7.6011    1.0000 </r>
       <r>    9.2029    1.0000 </r>
       <r>   10.4150    0.0000 </r>
       <r>   11.0892    0.0000 </r>
       <r>   11.2133    0.0000 </r>
       <r>   11.4542    0.0000 </r>
       <r>   11.8370    0.0000 </r>
      </set>
      <set comment="kpoint 32">
       <r>  -30.2883    1.0000 </r>
       <r>  -13.6156    1.0000 </r>
       <r>  -13.6055    1.0000 </r>
       <r>  -13.5708    1.0000 </r>
       <r>  -13.5615    1.0000 </r>
       <r>  -13.5605    1.0000 </r>
       <r>   -8.6503    1.0000 </r>
       <r>   -8.4368    1.0000 </r>
       <r>   -8.4301    1.0000 </r>
       <r>   -2.3004    1.0000 </r>
       <r>    3.4013    1.0000 </r>
       <r>    4.4136    1.0000 </r>
       <r>    4.6926    1.0000 </r>
       <r>    5.1871    1.0000 </r>
       <r>    5.3007    1.0000 </r>
       <r>    6.1867    1.0000 </r>
       <r>    7.2174    1.0000 </r>
       <r>    7.6551    1.0000 </r>
       <r>    9.3836    1.0000 </r>
       <r>   10.6582    0.0000 </r>
       <r>   11.1998    0.0000 </r>
       <r>   11.4645    0.0000 </r>
       <r>   11.4719    0.0000 </r>
       <r>   11.8669    0.0000 </r>
      </set>
      <set comment="kpoint 33">
       <r>  -30.2869    1.0000 </r>
       <r>  -13.6135    1.0000 </r>
       <r>  -13.6101    1.0000 </r>
       <r>  -13.5706    1.0000 </r>
       <r>  -13.5620    1.0000 </r>
       <r>  -13.5600    1.0000 </r>
       <r>   -8.6839    1.0000 </r>
       <r>   -8.4481    1.0000 </r>
       <r>   -8.4144    1.0000 </r>
       <r>   -2.1970    1.0000 </r>
       <r>    3.5588    1.0000 </r>
       <r>    4.2451    1.0000 </r>
       <r>    4.5169    1.0000 </r>
       <r>    5.2237    1.0000 </r>
       <r>    5.3431    1.0000 </r>
       <r>    5.9216    1.0000 </r>
       <r>    7.0737    1.0000 </r>
       <r>    7.6790    1.0000 </r>
       <r>    9.4717    1.0000 </r>
       <r>   10.8431    0.0000 </r>
       <r>   11.2810    0.0000 </r>
       <r>   11.5319    0.0000 </r>
       <r>   11.5346    0.0000 </r>
       <r>   11.8845    0.0000 </r>
      </set>
      <set comment="kpoint 34">
       <r>  -30.2862    1.0000 </r>
       <r>  -13.6154    1.0000 </r>
       <r>  -13.6114    1.0000 </r>
       <r>  -13.5697    1.0000 </r>
       <r>  -13.5628    1.0000 </r>
       <r>  -13.5599    1.0000 </r>
       <r>   -8.6963    1.0000 </r>
       <r>   -8.4686    1.0000 </r>
       <r>   -8.3951    1.0000 </r>
       <r>   -2.1222    1.0000 </r>
       <r>    3.6696    1.0000 </r>
       <r>    4.2009    1.0000 </r>
       <r>    4.3188    1.0000 </r>
       <r>    5.3039    1.0000 </r>
       <r>    5.3121    1.0000 </r>
       <r>    5.7766    1.0000 </r>
       <r>    6.9825    1.0000 </r>
       <r>    7.6540    1.0000 </r>
       <r>    9.6036    0.0000 </r>
       <r>   10.7489    0.0000 </r>
       <r>   11.3133    0.0000 </r>
       <r>   11.5731    0.0000 </r>
       <r>   11.6004    0.0000 </r>
       <r>   11.8581    0.0000 </r>
      </set>
      <set comment="kpoint 35">
       <r>  -30.2862    1.0000 </r>
       <r>  -13.6200    1.0000 </r>
       <r>  -13.6097    1.0000 </r>
       <r>  -13.5685    1.0000 </r>
       <r>  -13.5638    1.0000 </r>
       <r>  -13.5604    1.0000 </r>
       <r>   -8.6897    1.0000 </r>
       <r>   -8.4901    1.0000 </r>
       <r>   -8.3765    1.0000 </r>
       <r>   -2.0805    1.0000 </r>
       <r>    3.6294    1.0000 </r>
       <r>    4.1393    1.0000 </r>
       <r>    4.2795    1.0000 </r>
       <r>    5.2253    1.0000 </r>
       <r>    5.4333    1.0000 </r>
       <r>    5.8202    1.0000 </r>
       <r>    6.8921    1.0000 </r>
       <r>    7.6129    1.0000 </r>
       <r>    9.7694    0.0000 </r>
       <r>   10.6586    0.0000 </r>
       <r>   11.2475    0.0000 </r>
       <r>   11.5864    0.0000 </r>
       <r>   11.6508    0.0000 </r>
       <r>   11.8375    0.0000 </r>
      </set>
      <set comment="kpoint 36">
       <r>  -30.2870    1.0000 </r>
       <r>  -13.6231    1.0000 </r>
       <r>  -13.6088    1.0000 </r>
       <r>  -13.5676    1.0000 </r>
       <r>  -13.5642    1.0000 </r>
       <r>  -13.5611    1.0000 </r>
       <r>   -8.6731    1.0000 </r>
       <r>   -8.4999    1.0000 </r>
       <r>   -8.3629    1.0000 </r>
       <r>   -2.0853    1.0000 </r>
       <r>    3.5014    1.0000 </r>
       <r>    4.0130    1.0000 </r>
       <r>    4.4315    1.0000 </r>
       <r>    5.1657    1.0000 </r>
       <r>    5.5463    1.0000 </r>
       <r>    5.9995    1.0000 </r>
       <r>    6.7786    1.0000 </r>
       <r>    7.6067    1.0000 </r>
       <r>    9.8557    0.0000 </r>
       <r>   10.7173    0.0000 </r>
       <r>   11.0521    0.0000 </r>
       <r>   11.6052    0.0000 </r>
       <r>   11.6764    0.0000 </r>
       <r>   11.8472    0.0000 </r>
      </set>
      <set comment="kpoint 37">
       <r>  -30.2884    1.0000 </r>
       <r>  -13.6239    1.0000 </r>
       <r>  -13.6088    1.0000 </r>
       <r>  -13.5677    1.0000 </r>
       <r>  -13.5637    1.0000 </r>
       <r>  -13.5621    1.0000 </r>
       <r>   -8.6577    1.0000 </r>
       <r>   -8.4858    1.0000 </r>
       <r>   -8.3573    1.0000 </r>
       <r>   -2.1538    1.0000 </r>
       <r>    3.4256    1.0000 </r>
       <r>    3.9635    1.0000 </r>
       <r>    4.6138    1.0000 </r>
       <r>    5.1216    1.0000 </r>
       <r>    5.6052    1.0000 </r>
       <r>    6.1640    1.0000 </r>
       <r>    6.7513    1.0000 </r>
       <r>    7.6726    1.0000 </r>
       <r>    9.8220    0.0000 </r>
       <r>   10.7665    0.0000 </r>
       <r>   10.7815    0.0000 </r>
       <r>   11.6339    0.0000 </r>
       <r>   11.6388    0.0000 </r>
       <r>   11.8954    0.0000 </r>
      </set>
      <set comment="kpoint 38">
       <r>  -30.2888    1.0000 </r>
       <r>  -13.6140    1.0000 </r>
       <r>  -13.6004    1.0000 </r>
       <r>  -13.5716    1.0000 </r>
       <r>  -13.5605    1.0000 </r>
       <r>  -13.5605    1.0000 </r>
       <r>   -8.6153    1.0000 </r>
       <r>   -8.4486    1.0000 </r>
       <r>   -8.4486    1.0000 </r>
       <r>   -2.4131    1.0000 </r>
       <r>    3.3718    1.0000 </r>
       <r>    4.8206    1.0000 </r>
       <r>    4.8206    1.0000 </r>
       <r>    4.9172    1.0000 </r>
       <r>    5.2204    1.0000 </r>
       <r>    6.3838    1.0000 </r>
       <r>    7.6335    1.0000 </r>
       <r>    7.6335    1.0000 </r>
       <r>    9.0426    1.0000 </r>
       <r>   10.6264    0.0000 </r>
       <r>   11.1904    0.0000 </r>
       <r>   11.1904    0.0000 </r>
       <r>   11.3441    0.0000 </r>
       <r>   11.8505    0.0000 </r>
      </set>
      <set comment="kpoint 39">
       <r>  -30.2875    1.0000 </r>
       <r>  -13.6103    1.0000 </r>
       <r>  -13.6010    1.0000 </r>
       <r>  -13.5723    1.0000 </r>
       <r>  -13.5600    1.0000 </r>
       <r>  -13.5597    1.0000 </r>
       <r>   -8.6441    1.0000 </r>
       <r>   -8.4546    1.0000 </r>
       <r>   -8.4485    1.0000 </r>
       <r>   -2.3832    1.0000 </r>
       <r>    3.5574    1.0000 </r>
       <r>    4.5703    1.0000 </r>
       <r>    4.7425    1.0000 </r>
       <r>    5.0333    1.0000 </r>
       <r>    5.2505    1.0000 </r>
       <r>    6.2056    1.0000 </r>
       <r>    7.5172    1.0000 </r>
       <r>    7.7054    1.0000 </r>
       <r>    9.2076    1.0000 </r>
       <r>   10.7741    0.0000 </r>
       <r>   11.2641    0.0000 </r>
       <r>   11.3249    0.0000 </r>
       <r>   11.3509    0.0000 </r>
       <r>   11.8663    0.0000 </r>
      </set>
      <set comment="kpoint 40">
       <r>  -30.2863    1.0000 </r>
       <r>  -13.6070    1.0000 </r>
       <r>  -13.6042    1.0000 </r>
       <r>  -13.5722    1.0000 </r>
       <r>  -13.5603    1.0000 </r>
       <r>  -13.5591    1.0000 </r>
       <r>   -8.6629    1.0000 </r>
       <r>   -8.4722    1.0000 </r>
       <r>   -8.4383    1.0000 </r>
       <r>   -2.3391    1.0000 </r>
       <r>    3.8164    1.0000 </r>
       <r>    4.3564    1.0000 </r>
       <r>    4.6043    1.0000 </r>
       <r>    5.1753    1.0000 </r>
       <r>    5.2906    1.0000 </r>
       <r>    5.9825    1.0000 </r>
       <r>    7.2241    1.0000 </r>
       <r>    7.7267    1.0000 </r>
       <r>    9.3766    1.0000 </r>
       <r>   10.9203    0.0000 </r>
       <r>   11.3210    0.0000 </r>
       <r>   11.4242    0.0000 </r>
       <r>   11.4721    0.0000 </r>
       <r>   11.8786    0.0000 </r>
      </set>
      <set comment="kpoint 41">
       <r>  -30.2857    1.0000 </r>
       <r>  -13.6092    1.0000 </r>
       <r>  -13.6049    1.0000 </r>
       <r>  -13.5711    1.0000 </r>
       <r>  -13.5614    1.0000 </r>
       <r>  -13.5590    1.0000 </r>
       <r>   -8.6612    1.0000 </r>
       <r>   -8.5048    1.0000 </r>
       <r>   -8.4203    1.0000 </r>
       <r>   -2.2791    1.0000 </r>
       <r>    4.0200    1.0000 </r>
       <r>    4.2475    1.0000 </r>
       <r>    4.4272    1.0000 </r>
       <r>    5.2561    1.0000 </r>
       <r>    5.3638    1.0000 </r>
       <r>    5.8288    1.0000 </r>
       <r>    6.9308    1.0000 </r>
       <r>    7.6714    1.0000 </r>
       <r>    9.5049    1.0000 </r>
       <r>   10.8534    0.0000 </r>
       <r>   11.3650    0.0000 </r>
       <r>   11.5209    0.0000 </r>
       <r>   11.5409    0.0000 </r>
       <r>   11.8555    0.0000 </r>
      </set>
      <set comment="kpoint 42">
       <r>  -30.2855    1.0000 </r>
       <r>  -13.6148    1.0000 </r>
       <r>  -13.6046    1.0000 </r>
       <r>  -13.5692    1.0000 </r>
       <r>  -13.5632    1.0000 </r>
       <r>  -13.5595    1.0000 </r>
       <r>   -8.6438    1.0000 </r>
       <r>   -8.5416    1.0000 </r>
       <r>   -8.3985    1.0000 </r>
       <r>   -2.2052    1.0000 </r>
       <r>    4.0051    1.0000 </r>
       <r>    4.2343    1.0000 </r>
       <r>    4.2473    1.0000 </r>
       <r>    5.2406    1.0000 </r>
       <r>    5.4552    1.0000 </r>
       <r>    5.8905    1.0000 </r>
       <r>    6.7009    1.0000 </r>
       <r>    7.5911    1.0000 </r>
       <r>    9.6893    0.0000 </r>
       <r>   10.6985    0.0000 </r>
       <r>   11.3657    0.0000 </r>
       <r>   11.5570    0.0000 </r>
       <r>   11.5809    0.0000 </r>
       <r>   11.8860    0.0000 </r>
      </set>
      <set comment="kpoint 43">
       <r>  -30.2860    1.0000 </r>
       <r>  -13.6198    1.0000 </r>
       <r>  -13.6061    1.0000 </r>
       <r>  -13.5672    1.0000 </r>
       <r>  -13.5649    1.0000 </r>
       <r>  -13.5602    1.0000 </r>
       <r>   -8.6437    1.0000 </r>
       <r>   -8.5447    1.0000 </r>
       <r>   -8.3777    1.0000 </r>
       <r>   -2.1313    1.0000 </r>
       <r>    3.7667    1.0000 </r>
       <r>    4.0999    1.0000 </r>
       <r>    4.3059    1.0000 </r>
       <r>    5.2069    1.0000 </r>
       <r>    5.5277    1.0000 </r>
       <r>    6.0465    1.0000 </r>
       <r>    6.5943    1.0000 </r>
       <r>    7.5562    1.0000 </r>
       <r>    9.8740    0.0000 </r>
       <r>   10.6196    0.0000 </r>
       <r>   11.2592    0.0000 </r>
       <r>   11.5826    0.0000 </r>
       <r>   11.6179    0.0000 </r>
       <r>   11.8395    0.0000 </r>
      </set>
      <set comment="kpoint 44">
       <r>  -30.2866    1.0000 </r>
       <r>  -13.6051    1.0000 </r>
       <r>  -13.5990    1.0000 </r>
       <r>  -13.5735    1.0000 </r>
       <r>  -13.5588    1.0000 </r>
       <r>  -13.5588    1.0000 </r>
       <r>   -8.6597    1.0000 </r>
       <r>   -8.4578    1.0000 </r>
       <r>   -8.4578    1.0000 </r>
       <r>   -2.4346    1.0000 </r>
       <r>    3.8192    1.0000 </r>
       <r>    4.7298    1.0000 </r>
       <r>    4.7298    1.0000 </r>
       <r>    4.7313    1.0000 </r>
       <r>    5.2891    1.0000 </r>
       <r>    6.0398    1.0000 </r>
       <r>    7.8129    1.0000 </r>
       <r>    7.8129    1.0000 </r>
       <r>    9.1275    1.0000 </r>
       <r>   10.9065    0.0000 </r>
       <r>   11.2027    0.0000 </r>
       <r>   11.3180    0.0000 </r>
       <r>   11.3180    0.0000 </r>
       <r>   11.7485    0.0000 </r>
      </set>
      <set comment="kpoint 45">
       <r>  -30.2858    1.0000 </r>
       <r>  -13.6013    1.0000 </r>
       <r>  -13.5999    1.0000 </r>
       <r>  -13.5738    1.0000 </r>
       <r>  -13.5587    1.0000 </r>
       <r>  -13.5583    1.0000 </r>
       <r>   -8.6711    1.0000 </r>
       <r>   -8.4688    1.0000 </r>
       <r>   -8.4559    1.0000 </r>
       <r>   -2.4447    1.0000 </r>
       <r>    4.1273    1.0000 </r>
       <r>    4.4865    1.0000 </r>
       <r>    4.6593    1.0000 </r>
       <r>    4.9113    1.0000 </r>
       <r>    5.3202    1.0000 </r>
       <r>    5.8079    1.0000 </r>
       <r>    7.6870    1.0000 </r>
       <r>    7.8618    1.0000 </r>
       <r>    9.2523    1.0000 </r>
       <r>   11.0462    0.0000 </r>
       <r>   11.2283    0.0000 </r>
       <r>   11.3663    0.0000 </r>
       <r>   11.4035    0.0000 </r>
       <r>   11.7011    0.0000 </r>
      </set>
      <set comment="kpoint 46">
       <r>  -30.2853    1.0000 </r>
       <r>  -13.6035    1.0000 </r>
       <r>  -13.5997    1.0000 </r>
       <r>  -13.5730    1.0000 </r>
       <r>  -13.5595    1.0000 </r>
       <r>  -13.5583    1.0000 </r>
       <r>   -8.6636    1.0000 </r>
       <r>   -8.4982    1.0000 </r>
       <r>   -8.4432    1.0000 </r>
       <r>   -2.4073    1.0000 </r>
       <r>    4.2557    1.0000 </r>
       <r>    4.4305    1.0000 </r>
       <r>    4.5377    1.0000 </r>
       <r>    5.1024    1.0000 </r>
       <r>    5.3693    1.0000 </r>
       <r>    5.6235    1.0000 </r>
       <r>    7.3032    1.0000 </r>
       <r>    7.7919    1.0000 </r>
       <r>    9.3723    1.0000 </r>
       <r>   11.0283    0.0000 </r>
       <r>   11.3415    0.0000 </r>
       <r>   11.4521    0.0000 </r>
       <r>   11.4590    0.0000 </r>
       <r>   11.8087    0.0000 </r>
      </set>
      <set comment="kpoint 47">
       <r>  -30.2852    1.0000 </r>
       <r>  -13.6088    1.0000 </r>
       <r>  -13.6010    1.0000 </r>
       <r>  -13.5713    1.0000 </r>
       <r>  -13.5613    1.0000 </r>
       <r>  -13.5587    1.0000 </r>
       <r>   -8.6400    1.0000 </r>
       <r>   -8.5385    1.0000 </r>
       <r>   -8.4225    1.0000 </r>
       <r>   -2.3233    1.0000 </r>
       <r>    4.1899    1.0000 </r>
       <r>    4.3734    1.0000 </r>
       <r>    4.3898    1.0000 </r>
       <r>    5.2094    1.0000 </r>
       <r>    5.4255    1.0000 </r>
       <r>    5.7028    1.0000 </r>
       <r>    6.9021    1.0000 </r>
       <r>    7.6681    1.0000 </r>
       <r>    9.5129    1.0000 </r>
       <r>   10.8669    0.0000 </r>
       <r>   11.3848    0.0000 </r>
       <r>   11.4867    0.0000 </r>
       <r>   11.5676    0.0000 </r>
       <r>   11.8407    0.0000 </r>
      </set>
      <set comment="kpoint 48">
       <r>  -30.2854    1.0000 </r>
       <r>  -13.5983    1.0000 </r>
       <r>  -13.5977    1.0000 </r>
       <r>  -13.5745    1.0000 </r>
       <r>  -13.5579    1.0000 </r>
       <r>  -13.5579    1.0000 </r>
       <r>   -8.6833    1.0000 </r>
       <r>   -8.4631    1.0000 </r>
       <r>   -8.4631    1.0000 </r>
       <r>   -2.4958    1.0000 </r>
       <r>    4.4421    1.0000 </r>
       <r>    4.6284    1.0000 </r>
       <r>    4.6699    1.0000 </r>
       <r>    4.6699    1.0000 </r>
       <r>    5.3293    1.0000 </r>
       <r>    5.5724    1.0000 </r>
       <r>    7.9703    1.0000 </r>
       <r>    7.9703    1.0000 </r>
       <r>    9.2180    1.0000 </r>
       <r>   11.1206    0.0000 </r>
       <r>   11.1502    0.0000 </r>
       <r>   11.3771    0.0000 </r>
       <r>   11.3771    0.0000 </r>
       <r>   11.4355    0.0000 </r>
      </set>
      <set comment="kpoint 49">
       <r>  -30.2852    1.0000 </r>
       <r>  -13.5995    1.0000 </r>
       <r>  -13.5971    1.0000 </r>
       <r>  -13.5743    1.0000 </r>
       <r>  -13.5582    1.0000 </r>
       <r>  -13.5578    1.0000 </r>
       <r>   -8.6803    1.0000 </r>
       <r>   -8.4741    1.0000 </r>
       <r>   -8.4586    1.0000 </r>
       <r>   -2.4832    1.0000 </r>
       <r>    4.4180    1.0000 </r>
       <r>    4.5958    1.0000 </r>
       <r>    4.6262    1.0000 </r>
       <r>    4.8767    1.0000 </r>
       <r>    5.3472    1.0000 </r>
       <r>    5.4598    1.0000 </r>
       <r>    7.7725    1.0000 </r>
       <r>    7.9353    1.0000 </r>
       <r>    9.2752    1.0000 </r>
       <r>   11.1819    0.0000 </r>
       <r>   11.2003    0.0000 </r>
       <r>   11.3981    0.0000 </r>
       <r>   11.4055    0.0000 </r>
       <r>   11.5537    0.0000 </r>
      </set>
      <set comment="kpoint 50">
       <r>  -30.2936    1.0000 </r>
       <r>  -13.6153    1.0000 </r>
       <r>  -13.6057    1.0000 </r>
       <r>  -13.5672    1.0000 </r>
       <r>  -13.5640    1.0000 </r>
       <r>  -13.5639    1.0000 </r>
       <r>   -8.5326    1.0000 </r>
       <r>   -8.4326    1.0000 </r>
       <r>   -8.3991    1.0000 </r>
       <r>   -2.7341    1.0000 </r>
       <r>    3.8166    1.0000 </r>
       <r>    4.5060    1.0000 </r>
       <r>    4.9136    1.0000 </r>
       <r>    5.1028    1.0000 </r>
       <r>    5.4443    1.0000 </r>
       <r>    6.6797    1.0000 </r>
       <r>    7.4732    1.0000 </r>
       <r>    7.9198    1.0000 </r>
       <r>    9.5367    0.7370 </r>
       <r>    9.6412    0.0000 </r>
       <r>   10.4304    0.0000 </r>
       <r>   10.8857    0.0000 </r>
       <r>   11.5788    0.0000 </r>
       <r>   11.6722    0.0000 </r>
      </set>
      <set comment="kpoint 51">
       <r>  -30.2917    1.0000 </r>
       <r>  -13.6189    1.0000 </r>
       <r>  -13.6077    1.0000 </r>
       <r>  -13.5680    1.0000 </r>
       <r>  -13.5634    1.0000 </r>
       <r>  -13.5631    1.0000 </r>
       <r>   -8.5991    1.0000 </r>
       <r>   -8.4349    1.0000 </r>
       <r>   -8.3836    1.0000 </r>
       <r>   -2.4890    1.0000 </r>
       <r>    3.5753    1.0000 </r>
       <r>    4.2856    1.0000 </r>
       <r>    4.7885    1.0000 </r>
       <r>    5.1428    1.0000 </r>
       <r>    5.5116    1.0000 </r>
       <r>    6.3376    1.0000 </r>
       <r>    7.2760    1.0000 </r>
       <r>    7.8294    1.0000 </r>
       <r>    9.4887    1.0000 </r>
       <r>   10.1104    0.0000 </r>
       <r>   10.7028    0.0000 </r>
       <r>   11.2920    0.0000 </r>
       <r>   11.6484    0.0000 </r>
       <r>   11.7858    0.0000 </r>
      </set>
      <set comment="kpoint 52">
       <r>  -30.2897    1.0000 </r>
       <r>  -13.6215    1.0000 </r>
       <r>  -13.6111    1.0000 </r>
       <r>  -13.5689    1.0000 </r>
       <r>  -13.5630    1.0000 </r>
       <r>  -13.5622    1.0000 </r>
       <r>   -8.6673    1.0000 </r>
       <r>   -8.4272    1.0000 </r>
       <r>   -8.3726    1.0000 </r>
       <r>   -2.2428    1.0000 </r>
       <r>    3.4077    1.0000 </r>
       <r>    4.1389    1.0000 </r>
       <r>    4.6219    1.0000 </r>
       <r>    5.1360    1.0000 </r>
       <r>    5.4932    1.0000 </r>
       <r>    5.9747    1.0000 </r>
       <r>    7.2916    1.0000 </r>
       <r>    7.7645    1.0000 </r>
       <r>    9.4438    1.0000 </r>
       <r>   10.5455    0.0000 </r>
       <r>   10.9564    0.0000 </r>
       <r>   11.5343    0.0000 </r>
       <r>   11.6480    0.0000 </r>
       <r>   11.8343    0.0000 </r>
      </set>
      <set comment="kpoint 53">
       <r>  -30.2880    1.0000 </r>
       <r>  -13.6226    1.0000 </r>
[...]
       <r>    9.9673    0.0000 </r>
       <r>   10.4166    0.0000 </r>
       <r>   11.3282    0.0000 </r>
       <r>   11.4836    0.0000 </r>
       <r>   11.6308    0.0000 </r>
       <r>   11.8102    0.0000 </r>
      </set>
      <set comment="kpoint 81">
       <r>  -30.2857    1.0000 </r>
       <r>  -13.6168    1.0000 </r>
       <r>  -13.6030    1.0000 </r>
       <r>  -13.5681    1.0000 </r>
       <r>  -13.5650    1.0000 </r>
       <r>  -13.5589    1.0000 </r>
       <r>   -8.6368    1.0000 </r>
       <r>   -8.5325    1.0000 </r>
       <r>   -8.4108    1.0000 </r>
       <r>   -2.2054    1.0000 </r>
       <r>    3.9228    1.0000 </r>
       <r>    4.0872    1.0000 </r>
       <r>    4.5137    1.0000 </r>
       <r>    5.2319    1.0000 </r>
       <r>    5.4626    1.0000 </r>
       <r>    6.0004    1.0000 </r>
       <r>    6.3666    1.0000 </r>
       <r>    7.8197    1.0000 </r>
       <r>   10.0009    0.0000 </r>
       <r>   10.3999    0.0000 </r>
       <r>   11.3112    0.0000 </r>
       <r>   11.4856    0.0000 </r>
       <r>   11.6442    0.0000 </r>
       <r>   11.8051    0.0000 </r>
      </set>
      <set comment="kpoint 82">
       <r>  -30.2852    1.0000 </r>
       <r>  -13.6091    1.0000 </r>
       <r>  -13.5979    1.0000 </r>
       <r>  -13.5716    1.0000 </r>
       <r>  -13.5619    1.0000 </r>
       <r>  -13.5578    1.0000 </r>
       <r>   -8.6441    1.0000 </r>
       <r>   -8.5036    1.0000 </r>
       <r>   -8.4567    1.0000 </r>
       <r>   -2.3557    1.0000 </r>
       <r>    4.0972    1.0000 </r>
       <r>    4.4277    1.0000 </r>
       <r>    4.6473    1.0000 </r>
       <r>    5.1391    1.0000 </r>
       <r>    5.4430    1.0000 </r>
       <r>    5.6586    1.0000 </r>
       <r>    6.6458    1.0000 </r>
       <r>    8.0303    1.0000 </r>
       <r>    9.6382    0.0000 </r>
       <r>   10.8023    0.0000 </r>
       <r>   11.2302    0.0000 </r>
       <r>   11.3827    0.0000 </r>
       <r>   11.5401    0.0000 </r>
       <r>   11.8300    0.0000 </r>
      </set>
      <set comment="kpoint 83">
       <r>  -30.2851    1.0000 </r>
       <r>  -13.6123    1.0000 </r>
       <r>  -13.5979    1.0000 </r>
       <r>  -13.5700    1.0000 </r>
       <r>  -13.5638    1.0000 </r>
       <r>  -13.5578    1.0000 </r>
       <r>   -8.6223    1.0000 </r>
       <r>   -8.5322    1.0000 </r>
       <r>   -8.4498    1.0000 </r>
       <r>   -2.3128    1.0000 </r>
       <r>    4.0380    1.0000 </r>
       <r>    4.4537    1.0000 </r>
       <r>    4.6020    1.0000 </r>
       <r>    5.1881    1.0000 </r>
       <r>    5.4949    1.0000 </r>
       <r>    5.7165    1.0000 </r>
       <r>    6.3200    1.0000 </r>
       <r>    8.0134    1.0000 </r>
       <r>    9.8235    0.0000 </r>
       <r>   10.6189    0.0000 </r>
       <r>   11.2762    0.0000 </r>
       <r>   11.3952    0.0000 </r>
       <r>   11.5933    0.0000 </r>
       <r>   11.8419    0.0000 </r>
      </set>
      <set comment="kpoint 84">
       <r>  -30.2851    1.0000 </r>
       <r>  -13.6141    1.0000 </r>
       <r>  -13.5979    1.0000 </r>
       <r>  -13.5686    1.0000 </r>
       <r>  -13.5655    1.0000 </r>
       <r>  -13.5578    1.0000 </r>
       <r>   -8.6123    1.0000 </r>
       <r>   -8.5380    1.0000 </r>
       <r>   -8.4520    1.0000 </r>
       <r>   -2.2887    1.0000 </r>
       <r>    4.0006    1.0000 </r>
       <r>    4.4130    1.0000 </r>
       <r>    4.6214    1.0000 </r>
       <r>    5.1982    1.0000 </r>
       <r>    5.5291    1.0000 </r>
       <r>    5.8397    1.0000 </r>
       <r>    6.0737    1.0000 </r>
       <r>    8.0390    1.0000 </r>
       <r>   10.0777    0.0000 </r>
       <r>   10.3706    0.0000 </r>
       <r>   11.2570    0.0000 </r>
       <r>   11.3905    0.0000 </r>
       <r>   11.6362    0.0000 </r>
       <r>   11.7995    0.0000 </r>
      </set>
     </set>
    </set>
   </array>
  </eigenvalues>
  <separator name="orbital magnetization" >
   <v name="MAGDIPOLOUT">      0.00000000      0.00000000      0.00000000</v>
  </separator>
  <dos>
   <i name="efermi">      9.54113506 </i>
   <total>
    <array>
     <dimension dim="1">gridpoints</dimension>
     <dimension dim="2">spin</dimension>
     <field>energy</field>
     <field>total</field>
     <field>integrated</field>
     <set>
      <set comment="spin 1">
       <r>   -32.4067     0.0000     0.0000 </r>
       <r>   -32.2519     0.0000     0.0000 </r>
       <r>   -32.0972     0.0000     0.0000 </r>
       <r>   -31.9425     0.0000     0.0000 </r>
       <r>   -31.7878     0.0000     0.0000 </r>
       <r>   -31.6331     0.0000     0.0000 </r>
       <r>   -31.4783     0.0000     0.0000 </r>
       <r>   -31.3236     0.0000     0.0000 </r>
       <r>   -31.1689     0.0000     0.0000 </r>
       <r>   -31.0142     0.0000     0.0000 </r>
       <r>   -30.8594     0.0000     0.0000 </r>
       <r>   -30.7047     0.0000     0.0000 </r>
       <r>   -30.5500     0.0000     0.0000 </r>
       <r>   -30.3953     0.0000     0.0000 </r>
       <r>   -30.2406    12.9264     2.0000 </r>
       <r>   -30.0858     0.0000     2.0000 </r>
       <r>   -29.9311     0.0000     2.0000 </r>
       <r>   -29.7764     0.0000     2.0000 </r>
       <r>   -29.6217     0.0000     2.0000 </r>
       <r>   -29.4669     0.0000     2.0000 </r>
       <r>   -29.3122     0.0000     2.0000 </r>
       <r>   -29.1575     0.0000     2.0000 </r>
       <r>   -29.0028     0.0000     2.0000 </r>
       <r>   -28.8481     0.0000     2.0000 </r>
       <r>   -28.6933     0.0000     2.0000 </r>
       <r>   -28.5386     0.0000     2.0000 </r>
       <r>   -28.3839     0.0000     2.0000 </r>
       <r>   -28.2292     0.0000     2.0000 </r>
       <r>   -28.0744     0.0000     2.0000 </r>
       <r>   -27.9197     0.0000     2.0000 </r>
       <r>   -27.7650     0.0000     2.0000 </r>
       <r>   -27.6103     0.0000     2.0000 </r>
       <r>   -27.4555     0.0000     2.0000 </r>
       <r>   -27.3008     0.0000     2.0000 </r>
       <r>   -27.1461     0.0000     2.0000 </r>
       <r>   -26.9914     0.0000     2.0000 </r>
       <r>   -26.8367     0.0000     2.0000 </r>
       <r>   -26.6819     0.0000     2.0000 </r>
       <r>   -26.5272     0.0000     2.0000 </r>
       <r>   -26.3725     0.0000     2.0000 </r>
       <r>   -26.2178     0.0000     2.0000 </r>
       <r>   -26.0630     0.0000     2.0000 </r>
       <r>   -25.9083     0.0000     2.0000 </r>
       <r>   -25.7536     0.0000     2.0000 </r>
       <r>   -25.5989     0.0000     2.0000 </r>
       <r>   -25.4442     0.0000     2.0000 </r>
       <r>   -25.2894     0.0000     2.0000 </r>
       <r>   -25.1347     0.0000     2.0000 </r>
       <r>   -24.9800     0.0000     2.0000 </r>
       <r>   -24.8253     0.0000     2.0000 </r>
       <r>   -24.6705     0.0000     2.0000 </r>
       <r>   -24.5158     0.0000     2.0000 </r>
       <r>   -24.3611     0.0000     2.0000 </r>
       <r>   -24.2064     0.0000     2.0000 </r>
       <r>   -24.0517     0.0000     2.0000 </r>
       <r>   -23.8969     0.0000     2.0000 </r>
       <r>   -23.7422     0.0000     2.0000 </r>
       <r>   -23.5875     0.0000     2.0000 </r>
       <r>   -23.4328     0.0000     2.0000 </r>
       <r>   -23.2780     0.0000     2.0000 </r>
       <r>   -23.1233     0.0000     2.0000 </r>
       <r>   -22.9686     0.0000     2.0000 </r>
       <r>   -22.8139     0.0000     2.0000 </r>
       <r>   -22.6592     0.0000     2.0000 </r>
       <r>   -22.5044     0.0000     2.0000 </r>
       <r>   -22.3497     0.0000     2.0000 </r>
       <r>   -22.1950     0.0000     2.0000 </r>
       <r>   -22.0403     0.0000     2.0000 </r>
       <r>   -21.8855     0.0000     2.0000 </r>
       <r>   -21.7308     0.0000     2.0000 </r>
       <r>   -21.5761     0.0000     2.0000 </r>
       <r>   -21.4214     0.0000     2.0000 </r>
       <r>   -21.2667     0.0000     2.0000 </r>
       <r>   -21.1119     0.0000     2.0000 </r>
       <r>   -20.9572     0.0000     2.0000 </r>
       <r>   -20.8025     0.0000     2.0000 </r>
       <r>   -20.6478     0.0000     2.0000 </r>
       <r>   -20.4930     0.0000     2.0000 </r>
       <r>   -20.3383     0.0000     2.0000 </r>
       <r>   -20.1836     0.0000     2.0000 </r>
       <r>   -20.0289     0.0000     2.0000 </r>
       <r>   -19.8742     0.0000     2.0000 </r>
       <r>   -19.7194     0.0000     2.0000 </r>
       <r>   -19.5647     0.0000     2.0000 </r>
       <r>   -19.4100     0.0000     2.0000 </r>
       <r>   -19.2553     0.0000     2.0000 </r>
       <r>   -19.1005     0.0000     2.0000 </r>
       <r>   -18.9458     0.0000     2.0000 </r>
       <r>   -18.7911     0.0000     2.0000 </r>
       <r>   -18.6364     0.0000     2.0000 </r>
       <r>   -18.4817     0.0000     2.0000 </r>
       <r>   -18.3269     0.0000     2.0000 </r>
       <r>   -18.1722     0.0000     2.0000 </r>
       <r>   -18.0175     0.0000     2.0000 </r>
       <r>   -17.8628     0.0000     2.0000 </r>
       <r>   -17.7080     0.0000     2.0000 </r>
       <r>   -17.5533     0.0000     2.0000 </r>
       <r>   -17.3986     0.0000     2.0000 </r>
       <r>   -17.2439     0.0000     2.0000 </r>
       <r>   -17.0892     0.0000     2.0000 </r>
       <r>   -16.9344     0.0000     2.0000 </r>
       <r>   -16.7797     0.0000     2.0000 </r>
       <r>   -16.6250     0.0000     2.0000 </r>
       <r>   -16.4703     0.0000     2.0000 </r>
       <r>   -16.3155     0.0000     2.0000 </r>
       <r>   -16.1608     0.0000     2.0000 </r>
       <r>   -16.0061     0.0000     2.0000 </r>
       <r>   -15.8514     0.0000     2.0000 </r>
       <r>   -15.6967     0.0000     2.0000 </r>
       <r>   -15.5419     0.0000     2.0000 </r>
       <r>   -15.3872     0.0000     2.0000 </r>
       <r>   -15.2325     0.0000     2.0000 </r>
       <r>   -15.0778     0.0000     2.0000 </r>
       <r>   -14.9230     0.0000     2.0000 </r>
       <r>   -14.7683     0.0000     2.0000 </r>
       <r>   -14.6136     0.0000     2.0000 </r>
       <r>   -14.4589     0.0000     2.0000 </r>
       <r>   -14.3042     0.0000     2.0000 </r>
       <r>   -14.1494     0.0000     2.0000 </r>
       <r>   -13.9947     0.0000     2.0000 </r>
       <r>   -13.8400     0.0000     2.0000 </r>
       <r>   -13.6853     0.0000     2.0000 </r>
       <r>   -13.5305    50.2402    12.0000 </r>
       <r>   -13.3758     0.0000    12.0000 </r>
       <r>   -13.2211     0.0000    12.0000 </r>
       <r>   -13.0664     0.0000    12.0000 </r>
       <r>   -12.9117     0.0000    12.0000 </r>
       <r>   -12.7569     0.0000    12.0000 </r>
       <r>   -12.6022     0.0000    12.0000 </r>
       <r>   -12.4475     0.0000    12.0000 </r>
       <r>   -12.2928     0.0000    12.0000 </r>
       <r>   -12.1380     0.0000    12.0000 </r>
       <r>   -11.9833     0.0000    12.0000 </r>
       <r>   -11.8286     0.0000    12.0000 </r>
       <r>   -11.6739     0.0000    12.0000 </r>
       <r>   -11.5192     0.0000    12.0000 </r>
       <r>   -11.3644     0.0000    12.0000 </r>
       <r>   -11.2097     0.0000    12.0000 </r>
       <r>   -11.0550     0.0000    12.0000 </r>
       <r>   -10.9003     0.0000    12.0000 </r>
       <r>   -10.7455     0.0000    12.0000 </r>
       <r>   -10.5908     0.0000    12.0000 </r>
       <r>   -10.4361     0.0000    12.0000 </r>
       <r>   -10.2814     0.0000    12.0000 </r>
       <r>   -10.1267     0.0000    12.0000 </r>
       <r>    -9.9719     0.0000    12.0000 </r>
       <r>    -9.8172     0.0000    12.0000 </r>
       <r>    -9.6625     0.0000    12.0000 </r>
       <r>    -9.5078     0.0000    12.0000 </r>
       <r>    -9.3530     0.0000    12.0000 </r>
       <r>    -9.1983     0.0000    12.0000 </r>
       <r>    -9.0436     0.0000    12.0000 </r>
       <r>    -8.8889     0.0000    12.0000 </r>
       <r>    -8.7342     0.9825    12.1520 </r>
       <r>    -8.5794     5.5758    13.8459 </r>
       <r>    -8.4247    11.1219    16.0622 </r>
       <r>    -8.2700     0.0000    18.0000 </r>
       <r>    -8.1153     0.0000    18.0000 </r>
       <r>    -7.9605     0.0000    18.0000 </r>
       <r>    -7.8058     0.0000    18.0000 </r>
       <r>    -7.6511     0.0000    18.0000 </r>
       <r>    -7.4964     0.0000    18.0000 </r>
       <r>    -7.3417     0.0000    18.0000 </r>
       <r>    -7.1869     0.0000    18.0000 </r>
       <r>    -7.0322     0.0000    18.0000 </r>
       <r>    -6.8775     0.0000    18.0000 </r>
       <r>    -6.7228     0.0000    18.0000 </r>
       <r>    -6.5680     0.0000    18.0000 </r>
       <r>    -6.4133     0.0000    18.0000 </r>
       <r>    -6.2586     0.0000    18.0000 </r>
       <r>    -6.1039     0.0000    18.0000 </r>
       <r>    -5.9492     0.0000    18.0000 </r>
       <r>    -5.7944     0.0000    18.0000 </r>
       <r>    -5.6397     0.0000    18.0000 </r>
       <r>    -5.4850     0.0000    18.0000 </r>
       <r>    -5.3303     0.0000    18.0000 </r>
       <r>    -5.1755     0.0000    18.0000 </r>
       <r>    -5.0208     0.0000    18.0000 </r>
       <r>    -4.8661     0.0000    18.0000 </r>
       <r>    -4.7114     0.0000    18.0000 </r>
       <r>    -4.5567     0.0000    18.0000 </r>
       <r>    -4.4019     0.0000    18.0000 </r>
       <r>    -4.2472     0.0000    18.0000 </r>
       <r>    -4.0925     0.0000    18.0000 </r>
       <r>    -3.9378     0.0000    18.0000 </r>
       <r>    -3.7830     0.0000    18.0000 </r>
       <r>    -3.6283     0.0000    18.0000 </r>
       <r>    -3.4736     0.0000    18.0000 </r>
       <r>    -3.3189     0.0000    18.0000 </r>
       <r>    -3.1642     0.0059    18.0009 </r>
       <r>    -3.0094     0.0353    18.0137 </r>
       <r>    -2.8547     0.1883    18.0537 </r>
       <r>    -2.7000     0.2824    18.1029 </r>
       <r>    -2.5453     0.0706    18.1575 </r>
       <r>    -2.3905     1.1198    18.4254 </r>
       <r>    -2.2358     2.7223    19.0229 </r>
       <r>    -2.0811     1.8908    19.6444 </r>
       <r>    -1.9264     0.7763    19.9526 </r>
       <r>    -1.7717     0.0000    20.0000 </r>
       <r>    -1.6169     0.0000    20.0000 </r>
       <r>    -1.4622     0.0000    20.0000 </r>
       <r>    -1.3075     0.0000    20.0000 </r>
       <r>    -1.1528     0.0000    20.0000 </r>
       <r>    -0.9980     0.0000    20.0000 </r>
       <r>    -0.8433     0.0000    20.0000 </r>
       <r>    -0.6886     0.0000    20.0000 </r>
       <r>    -0.5339     0.0000    20.0000 </r>
       <r>    -0.3791     0.0000    20.0000 </r>
       <r>    -0.2244     0.0000    20.0000 </r>
       <r>    -0.0697     0.0000    20.0000 </r>
       <r>     0.0850     0.0000    20.0000 </r>
       <r>     0.2397     0.0000    20.0000 </r>
       <r>     0.3945     0.0000    20.0000 </r>
       <r>     0.5492     0.0000    20.0000 </r>
       <r>     0.7039     0.0000    20.0000 </r>
       <r>     0.8586     0.0000    20.0000 </r>
       <r>     1.0134     0.0000    20.0000 </r>
       <r>     1.1681     0.0000    20.0000 </r>
       <r>     1.3228     0.0000    20.0000 </r>
       <r>     1.4775     0.0000    20.0000 </r>
       <r>     1.6322     0.0000    20.0000 </r>
       <r>     1.7870     0.0000    20.0000 </r>
       <r>     1.9417     0.0000    20.0000 </r>
       <r>     2.0964     0.0000    20.0000 </r>
       <r>     2.2511     0.0000    20.0000 </r>
       <r>     2.4059     0.0000    20.0000 </r>
       <r>     2.5606     0.0000    20.0000 </r>
       <r>     2.7153     0.0000    20.0000 </r>
       <r>     2.8700     0.0000    20.0000 </r>
       <r>     3.0247     0.0000    20.0000 </r>
       <r>     3.1795     0.2217    20.0416 </r>
       <r>     3.3342     0.8892    20.2177 </r>
       <r>     3.4889     1.0929    20.7189 </r>
       <r>     3.6436     0.8063    21.0861 </r>
       <r>     3.7984     0.5058    21.2362 </r>
       <r>     3.9531     0.4295    21.4975 </r>
       <r>     4.1078     3.2100    22.2299 </r>
       <r>     4.2625     3.6529    23.2816 </r>
       <r>     4.4172     2.2710    24.0510 </r>
       <r>     4.5720     2.2574    24.9155 </r>
       <r>     4.7267     1.6534    25.5813 </r>
       <r>     4.8814     0.5323    25.9376 </r>
       <r>     5.0361     0.1988    26.1018 </r>
       <r>     5.1909     5.7153    27.2011 </r>
       <r>     5.3456     2.5638    28.5232 </r>
       <r>     5.5003     4.0068    29.7679 </r>
       <r>     5.6550     0.8819    30.2548 </r>
       <r>     5.8097     1.0946    30.6045 </r>
       <r>     5.9645     1.3100    31.1476 </r>
       <r>     6.1192     1.0307    31.5414 </r>
       <r>     6.2739     0.5830    31.7252 </r>
       <r>     6.4286     0.4062    31.9381 </r>
       <r>     6.5834     0.1457    32.0672 </r>
       <r>     6.7381     1.3198    32.4400 </r>
       <r>     6.8928     0.7769    32.5927 </r>
       <r>     7.0475     1.4501    32.9535 </r>
       <r>     7.2022     0.1436    33.1228 </r>
       <r>     7.3570     1.1760    33.4136 </r>
       <r>     7.5117     0.4666    33.6225 </r>
       <r>     7.6664     1.9803    34.0424 </r>
       <r>     7.8211     3.8910    35.3430 </r>
       <r>     7.9759     1.2826    35.8352 </r>
       <r>     8.1306     0.0706    35.9727 </r>
       <r>     8.2853     0.0949    35.9983 </r>
       <r>     8.4400     0.0000    36.0009 </r>
       <r>     8.5947     0.0000    36.0009 </r>
       <r>     8.7495     0.0471    36.0082 </r>
       <r>     8.9042     0.0478    36.0156 </r>
       <r>     9.0589     0.1517    36.0462 </r>
       <r>     9.2136     0.5322    36.1452 </r>
       <r>     9.3684     0.7369    36.4244 </r>
       <r>     9.5231     2.4689    36.9619 </r>
       <r>     9.6778     1.3647    37.4301 </r>
       <r>     9.8325     1.1418    37.8353 </r>
       <r>     9.9872     0.6034    38.0852 </r>
       <r>    10.1420     0.6591    38.2358 </r>
       <r>    10.2967     0.3805    38.3383 </r>
       <r>    10.4514     1.7200    38.6275 </r>
       <r>    10.6061     1.7883    38.9877 </r>
       <r>    10.7609     2.3780    39.6533 </r>
       <r>    10.9156     2.1018    40.2587 </r>
       <r>    11.0703     1.3236    40.7173 </r>
       <r>    11.2250     2.4415    41.3254 </r>
       <r>    11.3797     4.4459    42.4840 </r>
       <r>    11.5345     4.0287    43.6120 </r>
       <r>    11.6892     7.5345    45.9805 </r>
       <r>    11.8439     5.5843    47.1307 </r>
       <r>    11.9986     0.0000    48.0000 </r>
       <r>    12.1534     0.0000    48.0000 </r>
       <r>    12.3081     0.0000    48.0000 </r>
       <r>    12.4628     0.0000    48.0000 </r>
       <r>    12.6175     0.0000    48.0000 </r>
       <r>    12.7722     0.0000    48.0000 </r>
       <r>    12.9270     0.0000    48.0000 </r>
       <r>    13.0817     0.0000    48.0000 </r>
       <r>    13.2364     0.0000    48.0000 </r>
       <r>    13.3911     0.0000    48.0000 </r>
       <r>    13.5459     0.0000    48.0000 </r>
       <r>    13.7006     0.0000    48.0000 </r>
       <r>    13.8553     0.0000    48.0000 </r>
       <r>    14.0100     0.0000    48.0000 </r>
      </set>
     </set>
    </array>
   </total>
  </dos>
 </calculation>
 <structure name="finalpos" >
  <crystal>
   <varray name="basis" >
    <v>       0.00000000       3.33097959       3.33097959 </v>
    <v>       3.33097959       0.00000000       3.33097959 </v>
    <v>       3.33097959       3.33097959       0.00000000 </v>
   </varray>
   <i name="volume">     73.91726895 </i>
   <varray name="rec_basis" >
    <v>      -0.15010599       0.15010599       0.15010599 </v>
    <v>       0.15010599      -0.15010599       0.15010599 </v>
    <v>       0.15010599       0.15010599      -0.15010599 </v>
   </varray>
  </crystal>
  <varray name="positions" >
   <v>       0.25000000       0.25000000       0.25000000 </v>
   <v>       0.75000000       0.75000000       0.75000000 </v>
   <v>       0.00000000       0.00000000       0.00000000 </v>
  </varray>
 </structure>
</modeling>
