   3   3   0   0
  0.2434428E+02  0.4691853E-09  0.4691853E-09  0.4691853E-09  0.1000000E-16
  1.000000000000000E-004
  CAR
 unknown system
     12.99523216    -36.26871693  301     10.09147924      1.00000000
    -36.269  0.0000E+00  0.0000E+00
    -36.105  0.0000E+00  0.0000E+00
    -35.940  0.0000E+00  0.0000E+00
    -35.776  0.0000E+00  0.0000E+00
    -35.612  0.0000E+00  0.0000E+00
    -35.448  0.0000E+00  0.0000E+00
    -35.283  0.0000E+00  0.0000E+00
    -35.119  0.0000E+00  0.0000E+00
    -34.955  0.0000E+00  0.0000E+00
    -34.791  0.0000E+00  0.0000E+00
    -34.627  0.0000E+00  0.0000E+00
    -34.462  0.0000E+00  0.0000E+00
    -34.298  0.0000E+00  0.0000E+00
    -34.134  0.0000E+00  0.0000E+00
    -33.970  0.1668E+00  0.2740E-01
    -33.806  0.0000E+00  0.2740E-01
    -33.641  0.0000E+00  0.2740E-01
    -33.477  0.0000E+00  0.2740E-01
    -33.313  0.0000E+00  0.2740E-01
    -33.149  0.0000E+00  0.2740E-01
    -32.984  0.0000E+00  0.2740E-01
    -32.820  0.0000E+00  0.2740E-01
    -32.656  0.0000E+00  0.2740E-01
    -32.492  0.0000E+00  0.2740E-01
    -32.328  0.0000E+00  0.2740E-01
    -32.163  0.0000E+00  0.2740E-01
    -31.999  0.0000E+00  0.2740E-01
    -31.835  0.0000E+00  0.2740E-01
    -31.671  0.0000E+00  0.2740E-01
    -31.507  0.0000E+00  0.2740E-01
    -31.342  0.0000E+00  0.2740E-01
    -31.178  0.0000E+00  0.2740E-01
    -31.014  0.0000E+00  0.2740E-01
    -30.850  0.0000E+00  0.2740E-01
    -30.685  0.0000E+00  0.2740E-01
    -30.521  0.0000E+00  0.2740E-01
    -30.357  0.0000E+00  0.2740E-01
    -30.193  0.0000E+00  0.2740E-01
    -30.029  0.0000E+00  0.2740E-01
    -29.864  0.0000E+00  0.2740E-01
    -29.700  0.0000E+00  0.2740E-01
    -29.536  0.0000E+00  0.2740E-01
    -29.372  0.0000E+00  0.2740E-01
    -29.208  0.0000E+00  0.2740E-01
    -29.043  0.0000E+00  0.2740E-01
    -28.879  0.0000E+00  0.2740E-01
    -28.715  0.0000E+00  0.2740E-01
    -28.551  0.0000E+00  0.2740E-01
    -28.386  0.0000E+00  0.2740E-01
    -28.222  0.0000E+00  0.2740E-01
    -28.058  0.0000E+00  0.2740E-01
    -27.894  0.0000E+00  0.2740E-01
    -27.730  0.0000E+00  0.2740E-01
    -27.565  0.0000E+00  0.2740E-01
    -27.401  0.0000E+00  0.2740E-01
    -27.237  0.0000E+00  0.2740E-01
    -27.073  0.0000E+00  0.2740E-01
    -26.909  0.0000E+00  0.2740E-01
    -26.744  0.0000E+00  0.2740E-01
    -26.580  0.0000E+00  0.2740E-01
    -26.416  0.0000E+00  0.2740E-01
    -26.252  0.0000E+00  0.2740E-01
    -26.088  0.0000E+00  0.2740E-01
    -25.923  0.0000E+00  0.2740E-01
    -25.759  0.0000E+00  0.2740E-01
    -25.595  0.0000E+00  0.2740E-01
    -25.431  0.0000E+00  0.2740E-01
    -25.266  0.0000E+00  0.2740E-01
    -25.102  0.0000E+00  0.2740E-01
    -24.938  0.0000E+00  0.2740E-01
    -24.774  0.0000E+00  0.2740E-01
    -24.610  0.0000E+00  0.2740E-01
    -24.445  0.0000E+00  0.2740E-01
    -24.281  0.0000E+00  0.2740E-01
    -24.117  0.0000E+00  0.2740E-01
    -23.953  0.0000E+00  0.2740E-01
    -23.789  0.0000E+00  0.2740E-01
    -23.624  0.0000E+00  0.2740E-01
    -23.460  0.0000E+00  0.2740E-01
    -23.296  0.0000E+00  0.2740E-01
    -23.132  0.0000E+00  0.2740E-01
    -22.967  0.0000E+00  0.2740E-01
    -22.803  0.0000E+00  0.2740E-01
    -22.639  0.0000E+00  0.2740E-01
    -22.475  0.0000E+00  0.2740E-01
    -22.311  0.0000E+00  0.2740E-01
    -22.146  0.0000E+00  0.2740E-01
    -21.982  0.0000E+00  0.2740E-01
    -21.818  0.0000E+00  0.2740E-01
    -21.654  0.0000E+00  0.2740E-01
    -21.490  0.0000E+00  0.2740E-01
    -21.325  0.0000E+00  0.2740E-01
    -21.161  0.0000E+00  0.2740E-01
    -20.997  0.0000E+00  0.2740E-01
    -20.833  0.0000E+00  0.2740E-01
    -20.668  0.0000E+00  0.2740E-01
    -20.504  0.0000E+00  0.2740E-01
    -20.340  0.0000E+00  0.2740E-01
    -20.176  0.0000E+00  0.2740E-01
    -20.012  0.0000E+00  0.2740E-01
    -19.847  0.0000E+00  0.2740E-01
    -19.683  0.0000E+00  0.2740E-01
    -19.519  0.0000E+00  0.2740E-01
    -19.355  0.0000E+00  0.2740E-01
    -19.191  0.0000E+00  0.2740E-01
    -19.026  0.0000E+00  0.2740E-01
    -18.862  0.0000E+00  0.2740E-01
    -18.698  0.0000E+00  0.2740E-01
    -18.534  0.0000E+00  0.2740E-01
    -18.369  0.0000E+00  0.2740E-01
    -18.205  0.0000E+00  0.2740E-01
    -18.041  0.0000E+00  0.2740E-01
    -17.877  0.0000E+00  0.2740E-01
    -17.713  0.0000E+00  0.2740E-01
    -17.548  0.0000E+00  0.2740E-01
    -17.384  0.0000E+00  0.2740E-01
    -17.220  0.0000E+00  0.2740E-01
    -17.056  0.0000E+00  0.2740E-01
    -16.892  0.0000E+00  0.2740E-01
    -16.727  0.0000E+00  0.2740E-01
    -16.563  0.0000E+00  0.2740E-01
    -16.399  0.0000E+00  0.2740E-01
    -16.235  0.0000E+00  0.2740E-01
    -16.070  0.0000E+00  0.2740E-01
    -15.906  0.0000E+00  0.2740E-01
    -15.742  0.0000E+00  0.2740E-01
    -15.578  0.0000E+00  0.2740E-01
    -15.414  0.0000E+00  0.2740E-01
    -15.249  0.0000E+00  0.2740E-01
    -15.085  0.0000E+00  0.2740E-01
    -14.921  0.0000E+00  0.2740E-01
    -14.757  0.0000E+00  0.2740E-01
    -14.593  0.0000E+00  0.2740E-01
    -14.428  0.0000E+00  0.2740E-01
    -14.264  0.0000E+00  0.2740E-01
    -14.100  0.0000E+00  0.2740E-01
    -13.936  0.0000E+00  0.2740E-01
    -13.772  0.0000E+00  0.2740E-01
    -13.607  0.0000E+00  0.2740E-01
    -13.443  0.0000E+00  0.2740E-01
    -13.279  0.0000E+00  0.2740E-01
    -13.115  0.0000E+00  0.2740E-01
    -12.950  0.0000E+00  0.2740E-01
    -12.786  0.8091E+00  0.1603E+00
    -12.622  0.0000E+00  0.1644E+00
    -12.458  0.0000E+00  0.1644E+00
    -12.294  0.0000E+00  0.1644E+00
    -12.129  0.0000E+00  0.1644E+00
    -11.965  0.0000E+00  0.1644E+00
    -11.801  0.0000E+00  0.1644E+00
    -11.637  0.0000E+00  0.1644E+00
    -11.473  0.0000E+00  0.1644E+00
    -11.308  0.0000E+00  0.1644E+00
    -11.144  0.0000E+00  0.1644E+00
    -10.980  0.0000E+00  0.1644E+00
    -10.816  0.0000E+00  0.1644E+00
    -10.651  0.0000E+00  0.1644E+00
    -10.487  0.0000E+00  0.1644E+00
    -10.323  0.0000E+00  0.1644E+00
    -10.159  0.0000E+00  0.1644E+00
     -9.995  0.0000E+00  0.1644E+00
     -9.830  0.0000E+00  0.1644E+00
     -9.666  0.0000E+00  0.1644E+00
     -9.502  0.1827E-01  0.1674E+00
     -9.338  0.1223E+00  0.2093E+00
     -9.174  0.0000E+00  0.2466E+00
     -9.009  0.0000E+00  0.2466E+00
     -8.845  0.0000E+00  0.2466E+00
     -8.681  0.0000E+00  0.2466E+00
     -8.517  0.0000E+00  0.2466E+00
     -8.352  0.0000E+00  0.2466E+00
     -8.188  0.0000E+00  0.2466E+00
     -8.024  0.0000E+00  0.2466E+00
     -7.860  0.0000E+00  0.2466E+00
     -7.696  0.0000E+00  0.2466E+00
     -7.531  0.0000E+00  0.2466E+00
     -7.367  0.0000E+00  0.2466E+00
     -7.203  0.0000E+00  0.2466E+00
     -7.039  0.0000E+00  0.2466E+00
     -6.875  0.0000E+00  0.2466E+00
     -6.710  0.0000E+00  0.2466E+00
     -6.546  0.0000E+00  0.2466E+00
     -6.382  0.0000E+00  0.2466E+00
     -6.218  0.0000E+00  0.2466E+00
     -6.053  0.0000E+00  0.2466E+00
     -5.889  0.0000E+00  0.2466E+00
     -5.725  0.0000E+00  0.2466E+00
     -5.561  0.0000E+00  0.2466E+00
     -5.397  0.0000E+00  0.2466E+00
     -5.232  0.0000E+00  0.2466E+00
     -5.068  0.0000E+00  0.2466E+00
     -4.904  0.0000E+00  0.2466E+00
     -4.740  0.0000E+00  0.2466E+00
     -4.576  0.0000E+00  0.2466E+00
     -4.411  0.0000E+00  0.2466E+00
     -4.247  0.0000E+00  0.2466E+00
     -4.083  0.0000E+00  0.2466E+00
     -3.919  0.0000E+00  0.2466E+00
     -3.755  0.0000E+00  0.2466E+00
     -3.590  0.0000E+00  0.2466E+00
     -3.426  0.0000E+00  0.2466E+00
     -3.262  0.0000E+00  0.2466E+00
     -3.098  0.0000E+00  0.2466E+00
     -2.933  0.0000E+00  0.2466E+00
     -2.769  0.0000E+00  0.2466E+00
     -2.605  0.0000E+00  0.2466E+00
     -2.441  0.5781E-04  0.2466E+00
     -2.277  0.5924E-03  0.2468E+00
     -2.112  0.1040E-02  0.2474E+00
     -1.948  0.2857E-02  0.2485E+00
     -1.784  0.7376E-02  0.2499E+00
     -1.620  0.1494E-01  0.2532E+00
     -1.456  0.3926E-01  0.2639E+00
     -1.291  0.1584E-01  0.2725E+00
     -1.127  0.0000E+00  0.2740E+00
     -0.963  0.0000E+00  0.2740E+00
     -0.799  0.0000E+00  0.2740E+00
     -0.634  0.0000E+00  0.2740E+00
     -0.470  0.0000E+00  0.2740E+00
     -0.306  0.0000E+00  0.2740E+00
     -0.142  0.0000E+00  0.2740E+00
      0.022  0.0000E+00  0.2740E+00
      0.187  0.0000E+00  0.2740E+00
      0.351  0.0000E+00  0.2740E+00
      0.515  0.0000E+00  0.2740E+00
      0.679  0.0000E+00  0.2740E+00
      0.843  0.0000E+00  0.2740E+00
      1.008  0.0000E+00  0.2740E+00
      1.172  0.0000E+00  0.2740E+00
      1.336  0.0000E+00  0.2740E+00
      1.500  0.0000E+00  0.2740E+00
      1.665  0.0000E+00  0.2740E+00
      1.829  0.0000E+00  0.2740E+00
      1.993  0.0000E+00  0.2740E+00
      2.157  0.0000E+00  0.2740E+00
      2.321  0.0000E+00  0.2740E+00
      2.486  0.0000E+00  0.2740E+00
      2.650  0.0000E+00  0.2740E+00
      2.814  0.0000E+00  0.2740E+00
      2.978  0.0000E+00  0.2740E+00
      3.142  0.0000E+00  0.2740E+00
      3.307  0.0000E+00  0.2740E+00
      3.471  0.0000E+00  0.2740E+00
      3.635  0.0000E+00  0.2740E+00
      3.799  0.6038E-03  0.2741E+00
      3.964  0.5821E-02  0.2756E+00
      4.128  0.2161E-01  0.2832E+00
      4.292  0.1521E-01  0.2892E+00
      4.456  0.2038E-01  0.2929E+00
      4.620  0.4155E-02  0.2949E+00
      4.785  0.2117E-01  0.3001E+00
      4.949  0.4876E-01  0.3168E+00
      5.113  0.3961E-01  0.3292E+00
      5.277  0.3475E-01  0.3419E+00
      5.441  0.2883E-01  0.3538E+00
      5.606  0.1129E-02  0.3565E+00
      5.770  0.1105E-01  0.3590E+00
      5.934  0.6944E-01  0.3865E+00
      6.098  0.6470E-01  0.4060E+00
      6.262  0.8811E-02  0.4147E+00
      6.427  0.1656E-01  0.4208E+00
      6.591  0.1691E-01  0.4279E+00
      6.755  0.9113E-02  0.4319E+00
      6.919  0.7847E-02  0.4348E+00
      7.084  0.7610E-02  0.4377E+00
      7.248  0.4449E-02  0.4397E+00
      7.412  0.3642E-02  0.4443E+00
      7.576  0.4779E-02  0.4467E+00
      7.740  0.1615E-01  0.4519E+00
      7.905  0.6370E-02  0.4543E+00
      8.069  0.2270E-01  0.4590E+00
      8.233  0.4461E-02  0.4606E+00
      8.397  0.5574E-01  0.4722E+00
      8.561  0.3837E-01  0.4895E+00
      8.726  0.1534E-02  0.4924E+00
      8.890  0.2129E-02  0.4931E+00
      9.054  0.0000E+00  0.4932E+00
      9.218  0.6075E-03  0.4933E+00
      9.383  0.1998E-02  0.4939E+00
      9.547  0.2292E-01  0.4999E+00
      9.711  0.3064E-01  0.5090E+00
      9.875  0.2909E-01  0.5190E+00
     10.039  0.1189E-01  0.5224E+00
     10.204  0.8592E-01  0.5642E+00
     10.368  0.1299E+00  0.5978E+00
     10.532  0.1143E+00  0.6413E+00
     10.696  0.1473E-01  0.6573E+00
     10.860  0.0000E+00  0.6575E+00
     11.025  0.0000E+00  0.6575E+00
     11.189  0.0000E+00  0.6575E+00
     11.353  0.0000E+00  0.6575E+00
     11.517  0.0000E+00  0.6575E+00
     11.682  0.0000E+00  0.6575E+00
     11.846  0.0000E+00  0.6575E+00
     12.010  0.0000E+00  0.6575E+00
     12.174  0.0000E+00  0.6575E+00
     12.338  0.0000E+00  0.6575E+00
     12.503  0.0000E+00  0.6575E+00
     12.667  0.0000E+00  0.6575E+00
     12.831  0.0000E+00  0.6575E+00
     12.995  0.0000E+00  0.6575E+00
