    3    3   73    1
  0.2434428E+02  0.4691853E-09  0.4691853E-09  0.4691853E-09  0.1000000E-16
  1.000000000000000E-004
  CAR
 unknown system
     39     84     24

  0.0000000E+00  0.0000000E+00  0.0000000E+00  0.4551661E-03
    1      -34.029447   1.000000
    2      -12.829573   1.000000
    3      -12.829570   1.000000
    4      -12.802305   1.000000
    5      -12.800921   1.000000
    6      -12.799432   1.000000
    7       -9.326532   1.000000
    8       -9.320968   1.000000
    9       -9.315649   1.000000
   10       -2.445828   1.000000
   11        5.435589   1.000000
   12        5.459726   1.000000
   13        5.488948   1.000000
   14        5.711519   1.000000
   15        5.714673   1.000000
   16        8.484697   1.000000
   17        8.902344   1.000000
   18        8.912081   1.000000
   19        8.918402   1.000000
   20       10.023592   1.000000
   21       10.046803   1.000000
   22       10.069088   0.999067
   23       10.223355   0.000000
   24       10.331727   0.000000

  0.7692308E-01  0.6292127E-18 -0.1920603E-17  0.3641329E-02
    1      -34.029179   1.000000
    2      -12.831213   1.000000
    3      -12.831190   1.000000
    4      -12.802483   1.000000
    5      -12.800868   1.000000
    6      -12.799229   1.000000
    7       -9.332677   1.000000
    8       -9.322959   1.000000
    9       -9.315313   1.000000
   10       -2.377113   1.000000
   11        5.312445   1.000000
   12        5.342406   1.000000
   13        5.359917   1.000000
   14        5.825395   1.000000
   15        5.832087   1.000000
   16        8.059196   1.000000
   17        8.846100   1.000000
   18        8.858422   1.000000
   19        9.174164   1.000000
   20       10.022342   1.000000
   21       10.032906   1.000000
   22       10.049923   1.000000
   23       10.333059   0.000000
   24       10.356565   0.000000

  0.1538462E+00 -0.1424553E-16  0.1523664E-18  0.3641329E-02
    1      -34.028444   1.000000
    2      -12.835792   1.000000
    3      -12.835723   1.000000
    4      -12.803244   1.000000
    5      -12.800497   1.000000
    6      -12.798635   1.000000
    7       -9.372118   1.000000
    8       -9.313088   1.000000
    9       -9.305934   1.000000
   10       -2.185322   1.000000
   11        5.000682   1.000000
   12        5.171705   1.000000
   13        5.186960   1.000000
   14        5.962802   1.000000
   15        5.969617   1.000000
   16        7.461455   1.000000
   17        8.713514   1.000000
   18        8.730832   1.000000
   19        9.257408   1.000000
   20       10.028856   1.000000
   21       10.039526   1.000000
   22       10.252390   0.000000
   23       10.336258   0.000000
   24       10.540621   0.000000

  0.2307692E+00  0.1445178E-17 -0.5319349E-17  0.3641329E-02
    1      -34.027407   1.000000
    2      -12.842244   1.000000
    3      -12.842130   1.000000
    4      -12.804683   1.000000
    5      -12.799752   1.000000
    6      -12.797746   1.000000
    7       -9.424592   1.000000
    8       -9.299250   1.000000
    9       -9.292449   1.000000
   10       -1.910910   1.000000
   11        4.601320   1.000000
   12        5.047727   1.000000
   13        5.056331   1.000000
   14        6.018391   1.000000
   15        6.019800   1.000000
   16        6.913471   1.000000
   17        8.595102   1.000000
   18        8.622587   1.000000
   19        9.249081   1.000000
   20       10.049232   1.000000
   21       10.052944   1.000000
   22       10.340764   0.000000
   23       10.393668   0.000000
   24       10.620104   0.000000

  0.3076923E+00 -0.2849105E-16  0.3047328E-18  0.3641329E-02
    1      -34.026307   1.000000
    2      -12.849072   1.000000
    3      -12.848921   1.000000
    4      -12.806536   1.000000
    5      -12.798855   1.000000
    6      -12.796759   1.000000
    7       -9.476226   1.000000
    8       -9.284661   1.000000
    9       -9.278200   1.000000
   10       -1.613524   1.000000
   11        4.221957   1.000000
   12        4.981524   1.000000
   13        4.983235   1.000000
   14        5.970975   1.000000
   15        5.975062   1.000000
   16        6.480763   1.000000
   17        8.536623   1.000000
   18        8.575276   1.000000
   19        9.284544   1.000000
   20       10.082844   0.878061
   21       10.083590   0.855387
   22       10.345560   0.000000
   23       10.462461   0.000000
   24       10.594266   0.000000

  0.3846154E+00  0.7853002E-17 -0.1430995E-16  0.3641329E-02
    1      -34.025398   1.000000
    2      -12.854706   1.000000
    3      -12.854533   1.000000
    4      -12.808311   1.000000
    5      -12.798073   1.000000
    6      -12.795918   1.000000
    7       -9.516053   1.000000
    8       -9.272639   1.000000
    9       -9.266454   1.000000
   10       -1.361541   1.000000
   11        3.934564   1.000000
   12        4.962249   1.000000
   13        4.966959   1.000000
   14        5.867593   1.000000
   15        5.873980   1.000000
   16        6.189579   1.000000
   17        8.528218   1.000000
   18        8.574887   1.000000
   19        9.359308   1.000000
   20       10.125589   0.000001
   21       10.129292   0.000000
   22       10.349546   0.000000
   23       10.502431   0.000000
   24       10.514430   0.000000

  0.4615385E+00  0.9375291E-18 -0.8685872E-17  0.3641329E-02
    1      -34.024883   1.000000
    2      -12.857868   1.000000
    3      -12.857683   1.000000
    4      -12.809415   1.000000
    5      -12.797619   1.000000
    6      -12.795435   1.000000
    7       -9.537417   1.000000
    8       -9.265881   1.000000
    9       -9.259851   1.000000
   10       -1.216862   1.000000
   11        3.781611   1.000000
   12        4.968002   1.000000
   13        4.977127   1.000000
   14        5.784501   1.000000
   15        5.790639   1.000000
   16        6.044824   1.000000
   17        8.535834   1.000000
   18        8.586305   1.000000
   19        9.424644   1.000000
   20       10.166093   0.000000
   21       10.171324   0.000000
   22       10.351830   0.000000
   23       10.432766   0.000000
   24       10.445450   0.000000

  0.7692308E-01  0.7692308E-01 -0.3425646E-17  0.2730997E-02
    1      -34.029087   1.000000
    2      -12.834058   1.000000
    3      -12.829164   1.000000
    4      -12.802469   1.000000
    5      -12.800598   1.000000
    6      -12.799449   1.000000
    7       -9.331983   1.000000
    8       -9.322438   1.000000
    9       -9.319402   1.000000
   10       -2.355882   1.000000
   11        5.074744   1.000000
   12        5.473920   1.000000
   13        5.476989   1.000000
   14        5.727692   1.000000
   15        5.873962   1.000000
   16        8.044996   1.000000
   17        8.754491   1.000000
   18        8.755025   1.000000
   19        9.335352   1.000000
   20        9.939765   1.000000
   21       10.059779   0.999995
   22       10.062014   0.999980
   23       10.344308   0.000000
   24       10.384663   0.000000

  0.1538462E+00  0.7692308E-01 -0.5098113E-18  0.1092399E-01
    1      -34.028514   1.000000
    2      -12.839094   1.000000
    3      -12.830445   1.000000
    4      -12.803208   1.000000
    5      -12.800229   1.000000
    6      -12.798918   1.000000
    7       -9.355565   1.000000
    8       -9.321159   1.000000
    9       -9.314098   1.000000
   10       -2.209794   1.000000
   11        4.790952   1.000000
   12        5.359355   1.000000
   13        5.389517   1.000000
   14        5.825504   1.000000
   15        5.981279   1.000000
   16        7.636717   1.000000
   17        8.610152   1.000000
   18        8.624184   1.000000
   19        9.434775   1.000000
   20        9.996700   1.000000
   21       10.062645   0.999971
   22       10.168000   0.000000
   23       10.348744   0.000000
   24       10.510042   0.000000

  0.2307692E+00  0.7692308E-01 -0.6300619E-19  0.1092399E-01
    1      -34.027584   1.000000
    2      -12.845183   1.000000
    3      -12.834841   1.000000
    4      -12.804400   1.000000
    5      -12.799591   1.000000
    6      -12.798116   1.000000
    7       -9.404010   1.000000
    8       -9.312145   1.000000
    9       -9.299331   1.000000
   10       -1.971125   1.000000
   11        4.505518   1.000000
   12        5.139133   1.000000
   13        5.265275   1.000000
   14        5.907095   1.000000
   15        6.071966   1.000000
   16        7.128484   1.000000
   17        8.474628   1.000000
   18        8.509083   1.000000
   19        9.412180   1.000000
   20       10.032286   1.000000
   21       10.066171   0.999787
   22       10.348896   0.000000
   23       10.351514   0.000000
   24       10.590730   0.000000

  0.3076923E+00  0.7692308E-01 -0.1541149E-17  0.1092399E-01
    1      -34.026508   1.000000
    2      -12.850939   1.000000
    3      -12.841282   1.000000
    4      -12.805970   1.000000
    5      -12.798794   1.000000
    6      -12.797193   1.000000
    7       -9.455871   1.000000
    8       -9.298831   1.000000
    9       -9.285384   1.000000
   10       -1.693083   1.000000
   11        4.230695   1.000000
   12        4.968262   1.000000
   13        5.173780   1.000000
   14        5.894066   1.000000
   15        6.077754   1.000000
   16        6.665645   1.000000
   17        8.392708   1.000000
   18        8.472216   1.000000
   19        9.399696   1.000000
   20       10.074865   0.989098
   21       10.082692   0.882331
   22       10.353583   0.000000
   23       10.423764   0.000000
   24       10.585804   0.000000

  0.3846154E+00  0.7692308E-01 -0.2278048E-17  0.1092399E-01
    1      -34.025540   1.000000
    2      -12.855072   1.000000
    3      -12.848213   1.000000
    4      -12.807605   1.000000
    5      -12.798061   1.000000
    6      -12.796331   1.000000
    7       -9.499255   1.000000
    8       -9.284337   1.000000
    9       -9.275487   1.000000
   10       -1.439363   1.000000
   11        4.003331   1.000000
   12        4.896367   1.000000
   13        5.109474   1.000000
   14        5.825557   1.000000
   15        6.001934   1.000000
   16        6.315689   1.000000
   17        8.375126   1.000000
   18        8.485374   1.000000
   19        9.430185   1.000000
   20       10.115006   0.000358
   21       10.124975   0.000001
   22       10.353994   0.000000
   23       10.455287   0.000000
   24       10.541343   0.000000

  0.4615385E+00  0.7692308E-01 -0.6123599E-17  0.1092399E-01
    1      -34.024895   1.000000
    2      -12.856681   1.000000
    3      -12.854032   1.000000
    4      -12.808798   1.000000
    5      -12.797606   1.000000
    6      -12.795751   1.000000
    7       -9.526315   1.000000
    8       -9.274725   1.000000
    9       -9.268965   1.000000
   10       -1.269441   1.000000
   11        3.862754   1.000000
   12        4.912283   1.000000
   13        5.041857   1.000000
   14        5.785964   1.000000
   15        5.891988   1.000000
   16        6.107285   1.000000
   17        8.386962   1.000000
   18        8.507162   1.000000
   19        9.481613   1.000000
   20       10.159357   0.000000
   21       10.167945   0.000000
   22       10.349136   0.000000
   23       10.432858   0.000000
   24       10.488564   0.000000

 -0.4615385E+00  0.7692308E-01  0.2071778E-16  0.1092399E-01
    1      -34.024721   1.000000
    2      -12.857446   1.000000
    3      -12.855393   1.000000
    4      -12.809071   1.000000
    5      -12.797551   1.000000
    6      -12.795566   1.000000
    7       -9.533185   1.000000
    8       -9.277409   1.000000
    9       -9.261890   1.000000
   10       -1.223042   1.000000
   11        3.827198   1.000000
   12        4.953118   1.000000
   13        4.983590   1.000000
   14        5.803818   1.000000
   15        5.832217   1.000000
   16        6.055292   1.000000
   17        8.388113   1.000000
   18        8.515163   1.000000
   19        9.501937   1.000000
   20       10.169043   0.000000
   21       10.191600   0.000000
   22       10.340124   0.000000
   23       10.435897   0.000000
   24       10.446381   0.000000

 -0.3846154E+00  0.7692308E-01  0.8055918E-17  0.1092399E-01
    1      -34.025060   1.000000
    2      -12.857709   1.000000
    3      -12.851498   1.000000
    4      -12.808284   1.000000
    5      -12.797943   1.000000
    6      -12.795827   1.000000
    7       -9.519114   1.000000
    8       -9.287047   1.000000
    9       -9.260454   1.000000
   10       -1.311108   1.000000
   11        3.902645   1.000000
   12        4.872736   1.000000
   13        5.071083   1.000000
   14        5.785218   1.000000
   15        5.942764   1.000000
   16        6.161385   1.000000
   17        8.355553   1.000000
   18        8.515730   1.000000
   19        9.468558   1.000000
   20       10.132931   0.000000
   21       10.167021   0.000000
   22       10.347554   0.000000
   23       10.461620   0.000000
   24       10.486881   0.000000

 -0.3076923E+00  0.7692308E-01  0.1172717E-16  0.1092399E-01
    1      -34.025832   1.000000
    2      -12.854794   1.000000
    3      -12.845813   1.000000
    4      -12.806735   1.000000
    5      -12.798679   1.000000
    6      -12.796466   1.000000
    7       -9.486122   1.000000
    8       -9.300453   1.000000
    9       -9.265869   1.000000
   10       -1.513513   1.000000
   11        4.090455   1.000000
   12        4.836922   1.000000
   13        5.161341   1.000000
   14        5.831414   1.000000
   15        6.061005   1.000000
   16        6.417188   1.000000
   17        8.296855   1.000000
   18        8.536741   1.000000
   19        9.419438   1.000000
   20       10.094084   0.335696
   21       10.115603   0.000263
   22       10.352340   0.000000
   23       10.466283   0.000000
   24       10.528888   0.000000

 -0.2307692E+00  0.7692308E-01  0.1261644E-16  0.1092399E-01
    1      -34.026864   1.000000
    2      -12.849357   1.000000
    3      -12.839601   1.000000
    4      -12.804954   1.000000
    5      -12.799580   1.000000
    6      -12.797356   1.000000
    7       -9.439690   1.000000
    8       -9.314229   1.000000
    9       -9.277051   1.000000
   10       -1.782604   1.000000
   11        4.376159   1.000000
   12        4.868037   1.000000
   13        5.270146   1.000000
   14        5.876826   1.000000
   15        6.124614   1.000000
   16        6.808417   1.000000
   17        8.259345   1.000000
   18        8.607692   1.000000
   19        9.398199   1.000000
   20       10.066390   0.999760
   21       10.068301   0.999364
   22       10.350450   0.000000
   23       10.412785   0.000000
   24       10.590319   0.000000

 -0.1538462E+00  0.7692308E-01  0.2736568E-17  0.1092399E-01
    1      -34.027916   1.000000
    2      -12.842611   1.000000
    3      -12.834322   1.000000
    4      -12.803397   1.000000
    5      -12.800416   1.000000
    6      -12.798290   1.000000
    7       -9.389851   1.000000
    8       -9.324350   1.000000
    9       -9.291464   1.000000
   10       -2.055234   1.000000
   11        4.718304   1.000000
   12        4.971502   1.000000
   13        5.405525   1.000000
   14        5.851166   1.000000
   15        6.096958   1.000000
   16        7.290533   1.000000
   17        8.321453   1.000000
   18        8.726677   1.000000
   19        9.409234   1.000000
   20       10.031249   1.000000
   21       10.052264   1.000000
   22       10.319521   0.000000
   23       10.346242   0.000000
   24       10.579404   0.000000

 -0.7692308E-01  0.7692308E-01  0.1258425E-17  0.5461994E-02
    1      -34.028750   1.000000
    2      -12.836078   1.000000
    3      -12.831286   1.000000
    4      -12.802338   1.000000
    5      -12.800964   1.000000
    6      -12.799060   1.000000
    7       -9.352896   1.000000
    8       -9.324608   1.000000
    9       -9.305569   1.000000
   10       -2.269266   1.000000
   11        5.056833   1.000000
   12        5.138124   1.000000
   13        5.488577   1.000000
   14        5.786009   1.000000
   15        5.984303   1.000000
   16        7.753604   1.000000
   17        8.555968   1.000000
   18        8.835946   1.000000
   19        9.367460   1.000000
   20       10.017507   1.000000
   21       10.034096   1.000000
   22       10.137252   0.000000
   23       10.340857   0.000000
   24       10.471001   0.000000

  0.1538462E+00  0.1538462E+00 -0.6851291E-17  0.2730997E-02
    1      -34.028110   1.000000
    2      -12.843420   1.000000
    3      -12.828040   1.000000
    4      -12.803419   1.000000
    5      -12.799624   1.000000
    6      -12.798994   1.000000
    7       -9.352714   1.000000
    8       -9.326664   1.000000
    9       -9.325654   1.000000
   10       -2.123996   1.000000
   11        4.494834   1.000000
   12        5.500749   1.000000
   13        5.502422   1.000000
   14        5.766535   1.000000
   15        5.919429   1.000000
   16        7.610032   1.000000
   17        8.479487   1.000000
   18        8.480309   1.000000
   19        9.481432   1.000000
   20       10.073270   0.994120
   21       10.077042   0.976477
   22       10.103128   0.044262
   23       10.377432   0.000000
   24       10.569379   0.000000

  0.2307692E+00  0.1538462E+00 -0.4882088E-17  0.1092399E-01
    1      -34.027349   1.000000
    2      -12.847693   1.000000
    3      -12.829110   1.000000
    4      -12.804632   1.000000
    5      -12.798994   1.000000
    6      -12.798111   1.000000
    7       -9.384375   1.000000
    8       -9.326072   1.000000
    9       -9.318767   1.000000
   10       -1.949381   1.000000
   11        4.251890   1.000000
   12        5.375747   1.000000
   13        5.449037   1.000000
   14        5.825728   1.000000
   15        5.973515   1.000000
   16        7.327569   1.000000
   17        8.313157   1.000000
   18        8.383112   1.000000
   19        9.504038   1.000000
   20       10.046175   1.000000
   21       10.084126   0.837427
   22       10.275487   0.000000
   23       10.389284   0.000000
   24       10.610766   0.000000

  0.3076923E+00  0.1538462E+00 -0.5013195E-17  0.1092399E-01
    1      -34.026391   1.000000
    2      -12.850975   1.000000
    3      -12.833498   1.000000
    4      -12.805878   1.000000
    5      -12.798314   1.000000
    6      -12.797215   1.000000
    7       -9.432035   1.000000
    8       -9.317748   1.000000
    9       -9.305816   1.000000
   10       -1.730112   1.000000
   11        4.092151   1.000000
   12        5.151232   1.000000
   13        5.359499   1.000000
   14        5.845003   1.000000
   15        6.044922   1.000000
   16        6.941047   1.000000
   17        8.139905   1.000000
   18        8.360533   1.000000
   19        9.537387   1.000000
   20       10.066606   0.999732
   21       10.095876   0.248998
   22       10.358260   0.000000
   23       10.390029   0.000000
   24       10.607306   0.000000

  0.3846154E+00  0.1538462E+00 -0.5750095E-17  0.1092399E-01
    1      -34.025452   1.000000
    2      -12.852553   1.000000
    3      -12.840049   1.000000
    4      -12.807028   1.000000
    5      -12.797839   1.000000
    6      -12.796402   1.000000
    7       -9.474826   1.000000
    8       -9.304678   1.000000
    9       -9.298074   1.000000
   10       -1.518799   1.000000
   11        4.020442   1.000000
   12        4.977760   1.000000
   13        5.262039   1.000000
   14        5.819581   1.000000
   15        6.048484   1.000000
   16        6.562239   1.000000
   17        8.051347   1.000000
   18        8.386487   1.000000
   19        9.554835   1.000000
   20       10.113828   0.000649
   21       10.122066   0.000006
   22       10.383219   0.000000
   23       10.389825   0.000000
   24       10.574764   0.000000

  0.4615385E+00  0.1538462E+00 -0.9595646E-17  0.1092399E-01
    1      -34.024751   1.000000
    2      -12.852128   1.000000
    3      -12.847168   1.000000
    4      -12.807827   1.000000
    5      -12.797628   1.000000
    6      -12.795867   1.000000
    7       -9.503847   1.000000
    8       -9.300205   1.000000
    9       -9.287295   1.000000
   10       -1.361635   1.000000
   11        4.010789   1.000000
   12        4.906246   1.000000
   13        5.134067   1.000000
   14        5.825346   1.000000
   15        5.984254   1.000000
   16        6.284017   1.000000
   17        8.023814   1.000000
   18        8.413870   1.000000
   19        9.585264   1.000000
   20       10.153720   0.000000
   21       10.164398   0.000000
   22       10.369210   0.000000
   23       10.404218   0.000000
   24       10.548299   0.000000

 -0.4615385E+00  0.1538462E+00 -0.5775027E-17  0.1092399E-01
    1      -34.024443   1.000000
    2      -12.853255   1.000000
    3      -12.849865   1.000000
    4      -12.807964   1.000000
    5      -12.797666   1.000000
    6      -12.795744   1.000000
    7       -9.514788   1.000000
    8       -9.307730   1.000000
    9       -9.273085   1.000000
   10       -1.287819   1.000000
   11        4.014581   1.000000
   12        4.942951   1.000000
   13        4.983001   1.000000
   14        5.886917   1.000000
   15        5.901386   1.000000
   16        6.169666   1.000000
   17        8.004788   1.000000
   18        8.421006   1.000000
   19        9.614216   1.000000
   20       10.156335   0.000000
   21       10.213447   0.000000
   22       10.339135   0.000000
   23       10.433155   0.000000
   24       10.491748   0.000000

 -0.3846154E+00  0.1538462E+00  0.2760463E-16  0.1092399E-01
    1      -34.024604   1.000000
    2      -12.856962   1.000000
    3      -12.846260   1.000000
    4      -12.807308   1.000000
    5      -12.797977   1.000000
    6      -12.796007   1.000000
    7       -9.506959   1.000000
    8       -9.320168   1.000000
    9       -9.263270   1.000000
   10       -1.310258   1.000000
   11        4.012544   1.000000
   12        4.847545   1.000000
   13        5.062371   1.000000
   14        5.814642   1.000000
   15        6.017550   1.000000
   16        6.238689   1.000000
   17        7.950283   1.000000
   18        8.420979   1.000000
   19        9.611963   1.000000
   20       10.125601   0.000001
   21       10.226859   0.000000
   22       10.325316   0.000000
   23       10.464898   0.000000
   24       10.472119   0.000000

 -0.3076923E+00  0.1538462E+00  0.1298994E-16  0.1092399E-01
    1      -34.025193   1.000000
    2      -12.857530   1.000000
    3      -12.842011   1.000000
    4      -12.806101   1.000000
    5      -12.798558   1.000000
    6      -12.796529   1.000000
    7       -9.482778   1.000000
    8       -9.333211   1.000000
    9       -9.260290   1.000000
   10       -1.428592   1.000000
   11        4.046935   1.000000
   12        4.764059   1.000000
   13        5.223120   1.000000
   14        5.782105   1.000000
   15        6.133170   1.000000
   16        6.469471   1.000000
   17        7.853844   1.000000
   18        8.446316   1.000000
   19        9.584047   1.000000
   20       10.094997   0.289999
   21       10.176545   0.000000
   22       10.351538   0.000000
   23       10.456493   0.000000
   24       10.490603   0.000000

 -0.2307692E+00  0.1538462E+00  0.9144392E-17  0.1092399E-01
    1      -34.026076   1.000000
    2      -12.854847   1.000000
    3      -12.837987   1.000000
    4      -12.804770   1.000000
    5      -12.799316   1.000000
    6      -12.797191   1.000000
    7       -9.448564   1.000000
    8       -9.341252   1.000000
    9       -9.264898   1.000000
   10       -1.623290   1.000000
   11        4.174446   1.000000
   12        4.753043   1.000000
   13        5.387878   1.000000
   14        5.771952   1.000000
   15        6.197008   1.000000
   16        6.806846   1.000000
   17        7.776033   1.000000
   18        8.523748   1.000000
   19        9.553445   1.000000
   20       10.076939   0.977269
   21       10.116605   0.000154
   22       10.362073   0.000000
   23       10.424013   0.000000
   24       10.542390   0.000000

 -0.1538462E+00  0.1538462E+00 -0.5470295E-17  0.5461994E-02
    1      -34.027054   1.000000
    2      -12.849503   1.000000
    3      -12.835162   1.000000
    4      -12.803568   1.000000
    5      -12.800093   1.000000
    6      -12.797928   1.000000
    7       -9.415993   1.000000
    8       -9.337040   1.000000
    9       -9.276093   1.000000
   10       -1.851191   1.000000
   11        4.411404   1.000000
   12        4.822221   1.000000
   13        5.498216   1.000000
   14        5.762578   1.000000
   15        6.181590   1.000000
   16        7.119169   1.000000
   17        7.891156   1.000000
   18        8.641376   1.000000
   19        9.515578   1.000000
   20       10.063114   0.999962
   21       10.067394   0.999596
   22       10.358100   0.000000
   23       10.378470   0.000000
   24       10.585800   0.000000

  0.2307692E+00  0.2307692E+00 -0.1027694E-16  0.2730997E-02
    1      -34.026763   1.000000
    2      -12.849100   1.000000
    3      -12.826466   1.000000
    4      -12.805328   1.000000
    5      -12.798069   1.000000
    6      -12.797695   1.000000
    7       -9.387805   1.000000
    8       -9.333006   1.000000
    9       -9.332638   1.000000
   10       -1.857010   1.000000
   11        4.066334   1.000000
   12        5.505425   1.000000
   13        5.506623   1.000000
   14        5.817268   1.000000
   15        5.823114   1.000000
   16        7.298973   1.000000
   17        8.305348   1.000000
   18        8.306560   1.000000
   19        9.460119   1.000000
   20       10.095847   0.250301
   21       10.096109   0.238633
   22       10.234393   0.000000
   23       10.431974   0.000000
   24       10.678892   0.000000

  0.3076923E+00  0.2307692E+00 -0.5675373E-17  0.1092399E-01
    1      -34.025978   1.000000
    2      -12.849021   1.000000
    3      -12.827479   1.000000
    4      -12.806592   1.000000
    5      -12.797314   1.000000
    6      -12.796700   1.000000
    7       -9.418016   1.000000
    8       -9.333273   1.000000
    9       -9.330266   1.000000
   10       -1.722411   1.000000
   11        3.994957   1.000000
   12        5.350137   1.000000
   13        5.463634   1.000000
   14        5.850302   1.000000
   15        5.861566   1.000000
   16        7.090418   1.000000
   17        8.154743   1.000000
   18        8.292644   1.000000
   19        9.548489   1.000000
   20       10.082399   0.890326
   21       10.108700   0.006364
   22       10.283113   0.000000
   23       10.450081   0.000000
   24       10.668024   0.000000

  0.3846154E+00  0.2307692E+00 -0.7595976E-17  0.1092399E-01
    1      -34.025157   1.000000
    2      -12.847528   1.000000
    3      -12.831963   1.000000
    4      -12.807438   1.000000
    5      -12.796923   1.000000
    6      -12.795893   1.000000
    7       -9.454381   1.000000
    8       -9.328636   1.000000
    9       -9.323045   1.000000
   10       -1.582935   1.000000
   11        4.047131   1.000000
   12        5.129775   1.000000
   13        5.369384   1.000000
   14        5.859840   1.000000
   15        5.947617   1.000000
   16        6.802487   1.000000
   17        7.921247   1.000000
   18        8.325155   1.000000
   19        9.644219   1.000000
   20       10.096457   0.223666
   21       10.130213   0.000000
   22       10.320243   0.000000
   23       10.446232   0.000000
   24       10.620893   0.000000

  0.4615385E+00  0.2307692E+00 -0.1111487E-16  0.1092399E-01
    1      -34.024486   1.000000
    2      -12.845061   1.000000
    3      -12.838713   1.000000
    4      -12.807673   1.000000
    5      -12.797164   1.000000
    6      -12.795360   1.000000
    7       -9.479881   1.000000
    8       -9.333195   1.000000
    9       -9.308865   1.000000
   10       -1.467110   1.000000
   11        4.183241   1.000000
   12        4.978385   1.000000
   13        5.225971   1.000000
   14        5.890427   1.000000
   15        5.973167   1.000000
   16        6.518278   1.000000
   17        7.745249   1.000000
   18        8.349337   1.000000
   19        9.685507   1.000000
   20       10.130037   0.000000
   21       10.165871   0.000000
   22       10.358719   0.000000
   23       10.424964   0.000000
   24       10.572720   0.000000

 -0.4615385E+00  0.2307692E+00  0.6256878E-17  0.1092399E-01
    1      -34.024116   1.000000
    2      -12.846115   1.000000
    3      -12.842306   1.000000
    4      -12.807140   1.000000
    5      -12.797850   1.000000
    6      -12.795274   1.000000
    7       -9.489190   1.000000
    8       -9.346167   1.000000
    9       -9.291490   1.000000
   10       -1.390215   1.000000
   11        4.300987   1.000000
   12        4.924992   1.000000
   13        5.052813   1.000000
   14        5.917502   1.000000
   15        5.968856   1.000000
   16        6.364678   1.000000
   17        7.628850   1.000000
   18        8.342732   1.000000
   19        9.712570   1.000000
   20       10.131840   0.000000
   21       10.213708   0.000000
   22       10.382830   0.000000
   23       10.417937   0.000000
   24       10.536144   0.000000

 -0.3846154E+00  0.2307692E+00 -0.1587462E-16  0.1092399E-01
    1      -34.024133   1.000000
    2      -12.852546   1.000000
    3      -12.839949   1.000000
    4      -12.805946   1.000000
    5      -12.798699   1.000000
    6      -12.795629   1.000000
    7       -9.482970   1.000000
    8       -9.362393   1.000000
    9       -9.275254   1.000000
   10       -1.360728   1.000000
   11        4.282228   1.000000
   12        4.888935   1.000000
   13        4.983775   1.000000
   14        5.847859   1.000000
   15        6.073273   1.000000
   16        6.405973   1.000000
   17        7.531423   1.000000
   18        8.326950   1.000000
   19        9.724179   1.000000
   20       10.102846   0.048117
   21       10.263160   0.000000
   22       10.326875   0.000000