       N       E                     dE             d eps       ncg     rms          rms(c)
DAV:   1     0.236074596951E+03    0.23607E+03   -0.24817E+04  4032   0.232E+03
DAV:   2    -0.149519325111E+02   -0.25103E+03   -0.25090E+03  5352   0.280E+02
DAV:   3    -0.252559102066E+02   -0.10304E+02   -0.10259E+02  4704   0.719E+01
DAV:   4    -0.260975362507E+02   -0.84163E+00   -0.83879E+00  7176   0.149E+01
DAV:   5    -0.261091777234E+02   -0.11641E-01   -0.11625E-01  4800   0.145E+00    0.148E+01
DAV:   6    -0.344736826447E+02   -0.83645E+01   -0.22094E+02  7104   0.890E+01    0.244E+01
DAV:   7    -0.246524663666E+02    0.98212E+01   -0.25978E+01  8016   0.256E+01    0.849E+00
DAV:   8    -0.240577067728E+02    0.59476E+00   -0.16158E+01  7128   0.168E+01    0.459E+00
DAV:   9    -0.237752717841E+02    0.28243E+00   -0.24668E+00  7008   0.802E+00    0.113E+00
DAV:  10    -0.237761360648E+02   -0.86428E-03   -0.85484E-02  6096   0.153E+00    0.757E-01
DAV:  11    -0.237687688501E+02    0.73672E-02   -0.80730E-02  6960   0.138E+00    0.163E-01
DAV:  12    -0.237686904482E+02    0.78402E-04   -0.24000E-03  5616   0.287E-01    0.288E-02
DAV:  13    -0.237687040060E+02   -0.13558E-04   -0.18347E-04  6144   0.812E-02    0.313E-02
DAV:  14    -0.237686919647E+02    0.12041E-04   -0.22189E-04  7176   0.673E-02    0.136E-02
DAV:  15    -0.237686900662E+02    0.18984E-05   -0.11654E-05  5448   0.163E-02    0.355E-03
DAV:  16    -0.237686900405E+02    0.25782E-07   -0.26339E-06  7512   0.652E-03    0.122E-03
DAV:  17    -0.237686900560E+02   -0.15546E-07   -0.48633E-08  3696   0.957E-04
   1 F= -.23768690E+02 E0= -.23767863E+02  d E =-.165373E-02
 Found     3 degrees of freedom:
 Adding 6 more for cell shape distortion
       N       E                     dE             d eps       ncg     rms          rms(c)
DAV:   1    -0.242343178557E+02   -0.46563E+00   -0.10591E+01 12864   0.317E+01    0.570E+00
DAV:   2    -0.244917818191E+02   -0.25746E+00   -0.15176E+01 18216   0.201E+01    0.676E+00
DAV:   3    -0.238823440250E+02    0.60944E+00   -0.71190E+00 15744   0.116E+01    0.352E+00
DAV:   4    -0.237689209117E+02    0.11342E+00   -0.72481E-01 18456   0.407E+00    0.777E-01
DAV:   5    -0.237579009439E+02    0.11020E-01   -0.53501E-02 15048   0.173E+00    0.396E-01
DAV:   6    -0.237563894661E+02    0.15115E-02   -0.20681E-02 15912   0.898E-01    0.325E-01
DAV:   7    -0.237562013403E+02    0.18813E-03   -0.68227E-03 18552   0.378E-01    0.212E-01
DAV:   8    -0.237561719354E+02    0.29405E-04   -0.29109E-03 15888   0.213E-01    0.152E-01
DAV:   9    -0.237560766899E+02    0.95245E-04   -0.19136E-03 18360   0.190E-01    0.843E-02
DAV:  10    -0.237560301647E+02    0.46525E-04   -0.29381E-04 16656   0.690E-02    0.164E-02
DAV:  11    -0.237560279943E+02    0.21704E-05   -0.22908E-05 18000   0.161E-02    0.175E-02
DAV:  12    -0.237560251057E+02    0.28886E-05   -0.18409E-05 17688   0.162E-02    0.253E-03
DAV:  13    -0.237560250196E+02    0.86120E-07   -0.50729E-07 13392   0.270E-03
   2 F= -.23756025E+02 E0= -.23755141E+02  d E =-.176821E-02
       N       E                     dE             d eps       ncg     rms          rms(c)
DAV:   1    -0.238673068394E+02   -0.11128E+00   -0.43987E+00 11808   0.202E+01    0.240E+00
DAV:   2    -0.238810142301E+02   -0.13707E-01   -0.21672E+00 16200   0.780E+00    0.339E+00
DAV:   3    -0.237816795548E+02    0.99335E-01   -0.14902E+00 15216   0.566E+00    0.107E+00
DAV:   4    -0.237690922787E+02    0.12587E-01   -0.14029E-01 16848   0.198E+00    0.644E-01
DAV:   5    -0.237659888578E+02    0.31034E-02   -0.23250E-02 17880   0.784E-01    0.268E-01
DAV:   6    -0.237655903844E+02    0.39847E-03   -0.29617E-03 15312   0.363E-01    0.124E-01
DAV:   7    -0.237655724727E+02    0.17912E-04   -0.55964E-04 17712   0.140E-01    0.603E-02
DAV:   8    -0.237655842759E+02   -0.11803E-04   -0.13307E-04 15096   0.757E-02    0.146E-02
DAV:   9    -0.237655838330E+02    0.44290E-06   -0.17634E-05 15120   0.263E-02    0.138E-02
DAV:  10    -0.237655831337E+02    0.69930E-06   -0.79339E-06 17184   0.134E-02    0.205E-03
DAV:  11    -0.237655830782E+02    0.55487E-07   -0.48497E-07 13608   0.272E-03
   3 F= -.23765583E+02 E0= -.23764733E+02  d E =-.170060E-02
       N       E                     dE             d eps       ncg     rms          rms(c)
DAV:   1    -0.241923168712E+02   -0.42673E+00   -0.88480E+00 15096   0.294E+01    0.461E+00
DAV:   2    -0.241596192811E+02    0.32698E-01   -0.81911E+00 15984   0.152E+01    0.565E+00
DAV:   3    -0.238233370644E+02    0.33628E+00   -0.56280E+00 15360   0.121E+01    0.201E+00
DAV:   4    -0.237673041753E+02    0.56033E-01   -0.42301E-01 15432   0.378E+00    0.456E-01
DAV:   5    -0.237677487331E+02   -0.44456E-03   -0.56597E-02 18432   0.145E+00    0.790E-01
DAV:   6    -0.237648909608E+02    0.28578E-02   -0.13112E-02 17256   0.468E-01    0.297E-01
DAV:   7    -0.237646909060E+02    0.20005E-03   -0.32566E-03 17976   0.318E-01    0.123E-01
DAV:   8    -0.237647193508E+02   -0.28445E-04   -0.48574E-04 13920   0.148E-01    0.344E-02
DAV:   9    -0.237647194171E+02   -0.66342E-07   -0.48403E-05 15936   0.392E-02    0.106E-02
DAV:  10    -0.237647185752E+02    0.84195E-06   -0.66081E-06 14784   0.129E-02    0.711E-03
DAV:  11    -0.237647183583E+02    0.21687E-06   -0.20150E-06 17664   0.597E-03    0.177E-03
DAV:  12    -0.237647182864E+02    0.71876E-07   -0.18097E-07 11856   0.179E-03
   4 F= -.23764718E+02 E0= -.23763901E+02  d E =-.163503E-02
       N       E                     dE             d eps       ncg     rms          rms(c)
DAV:   1    -0.238553629884E+02   -0.90645E-01   -0.50715E+00 11160   0.210E+01    0.233E+00
DAV:   2    -0.238440494467E+02    0.11314E-01   -0.18379E+00 16128   0.774E+00    0.297E+00
DAV:   3    -0.237699965891E+02    0.74053E-01   -0.12516E+00 15096   0.533E+00    0.111E+00
DAV:   4    -0.237550886047E+02    0.14908E-01   -0.13074E-01 16296   0.203E+00    0.452E-01
DAV:   5    -0.237535484020E+02    0.15402E-02   -0.17288E-02 18360   0.721E-01    0.340E-01
DAV:   6    -0.237530071084E+02    0.54129E-03   -0.35302E-03 17400   0.344E-01    0.119E-01
DAV:   7    -0.237529899063E+02    0.17202E-04   -0.43828E-04 15912   0.134E-01    0.574E-02
DAV:   8    -0.237530049427E+02   -0.15036E-04   -0.14505E-04 15960   0.810E-02    0.117E-02
DAV:   9    -0.237530046221E+02    0.32061E-06   -0.10444E-05 13536   0.235E-02    0.108E-02
DAV:  10    -0.237530041669E+02    0.45517E-06   -0.41474E-06 17784   0.990E-03    0.153E-03
DAV:  11    -0.237530041124E+02    0.54459E-07   -0.59687E-07 15072   0.316E-03
   5 F= -.23753004E+02 E0= -.23752184E+02  d E =-.163970E-02
       N       E                     dE             d eps       ncg     rms          rms(c)
DAV:   1    -0.251773131623E+02   -0.14243E+01   -0.31294E+01 14040   0.573E+01    0.891E+00
DAV:   2    -0.260282598773E+02   -0.85095E+00   -0.45092E+01 18192   0.374E+01    0.116E+01
DAV:   3    -0.238527189976E+02    0.21755E+01   -0.19226E+01 15816   0.185E+01    0.258E+00
DAV:   4    -0.237869122683E+02    0.65807E-01   -0.85513E-01 16488   0.546E+00    0.138E+00
DAV:   5    -0.237617834159E+02    0.25129E-01   -0.13065E-01 16584   0.217E+00    0.736E-01
DAV:   6    -0.237550643421E+02    0.67191E-02   -0.47043E-02 17760   0.139E+00    0.396E-01
DAV:   7    -0.237561997716E+02   -0.11354E-02   -0.19877E-02 17832   0.663E-01    0.426E-01
DAV:   8    -0.237560939366E+02    0.10583E-03   -0.18846E-02 18240   0.642E-01    0.205E-01
DAV:   9    -0.237559113365E+02    0.18260E-03   -0.12291E-03 13416   0.152E-01    0.301E-02
DAV:  10    -0.237559124899E+02   -0.11534E-05   -0.21052E-04 18432   0.572E-02    0.198E-02
DAV:  11    -0.237559427410E+02   -0.30251E-04   -0.50762E-05 16008   0.282E-02    0.121E-02
DAV:  12    -0.237559869804E+02   -0.44239E-04   -0.16386E-05 17400   0.174E-02    0.952E-03
DAV:  13    -0.237560188596E+02   -0.31879E-04   -0.43855E-06 16608   0.782E-03    0.944E-04
DAV:  14    -0.237560231349E+02   -0.42753E-05   -0.23754E-07 14208   0.259E-03    0.728E-04
DAV:  15    -0.237560245636E+02   -0.14288E-05   -0.15536E-08  8136   0.661E-04    0.265E-04
DAV:  16    -0.237560248981E+02   -0.33444E-06   -0.10480E-08  7848   0.486E-04    0.169E-04
DAV:  17    -0.237560249059E+02   -0.78344E-08   -0.22950E-09  6168   0.229E-04
   6 F= -.23756025E+02 E0= -.23755141E+02  d E =-.176791E-02
       N       E                     dE             d eps       ncg     rms          rms(c)
DAV:   1    -0.238657204512E+02   -0.10970E+00   -0.43299E+00 10848   0.201E+01    0.236E+00
DAV:   2    -0.238776499557E+02   -0.11930E-01   -0.20980E+00 16008   0.774E+00    0.333E+00
DAV:   3    -0.237816587590E+02    0.95991E-01   -0.14407E+00 15216   0.556E+00    0.107E+00
DAV:   4    -0.237692119766E+02    0.12447E-01   -0.13756E-01 16728   0.197E+00    0.651E-01
DAV:   5    -0.237659893217E+02    0.32227E-02   -0.23823E-02 17712   0.800E-01    0.266E-01
DAV:   6    -0.237655835215E+02    0.40580E-03   -0.29228E-03 15096   0.355E-01    0.117E-01
DAV:   7    -0.237655714895E+02    0.12032E-04   -0.48007E-04 17424   0.131E-01    0.613E-02
DAV:   8    -0.237655840478E+02   -0.12558E-04   -0.14533E-04 15288   0.786E-02    0.144E-02
DAV:   9    -0.237655837778E+02    0.26996E-06   -0.16438E-05 14592   0.262E-02    0.137E-02
DAV:  10    -0.237655831460E+02    0.63182E-06   -0.80343E-06 17088   0.138E-02    0.223E-03
DAV:  11    -0.237655830793E+02    0.66681E-07   -0.52961E-07 13728   0.288E-03
   7 F= -.23765583E+02 E0= -.23764733E+02  d E =-.170059E-02
       N       E                     dE             d eps       ncg     rms          rms(c)
DAV:   1    -0.241868021613E+02   -0.42122E+00   -0.87382E+00 14304   0.294E+01    0.453E+00
DAV:   2    -0.241341355719E+02    0.52667E-01   -0.77110E+00 15936   0.150E+01    0.545E+00
DAV:   3    -0.238241987328E+02    0.30994E+00   -0.53393E+00 15192   0.117E+01    0.204E+00
DAV:   4    -0.237674242514E+02    0.56774E-01   -0.42497E-01 15408   0.379E+00    0.467E-01
DAV:   5    -0.237677618230E+02   -0.33757E-03   -0.56946E-02 18456   0.143E+00    0.789E-01
DAV:   6    -0.237648690408E+02    0.28928E-02   -0.13464E-02 17376   0.482E-01    0.288E-01
DAV:   7    -0.237646856950E+02    0.18335E-03   -0.29271E-03 17976   0.302E-01    0.122E-01
DAV:   8    -0.237647192666E+02   -0.33572E-04   -0.49663E-04 14160   0.150E-01    0.353E-02
DAV:   9    -0.237647193792E+02   -0.11255E-06   -0.48034E-05 15888   0.395E-02    0.105E-02
DAV:  10    -0.237647185353E+02    0.84389E-06   -0.64829E-06 14952   0.128E-02    0.680E-03
DAV:  11    -0.237647183506E+02    0.18469E-06   -0.18065E-06 17376   0.567E-03    0.161E-03
DAV:  12    -0.237647182871E+02    0.63507E-07   -0.16950E-07 12072   0.176E-03
   8 F= -.23764718E+02 E0= -.23763901E+02  d E =-.163503E-02
       N       E                     dE             d eps       ncg     rms          rms(c)
DAV:   1    -0.238540601925E+02   -0.89342E-01   -0.50842E+00 10392   0.211E+01    0.230E+00
DAV:   2    -0.238364257624E+02    0.17634E-01   -0.16960E+00 15768   0.760E+00    0.285E+00
DAV:   3    -0.237703762293E+02    0.66050E-01   -0.11654E+00 15120   0.514E+00    0.113E+00
DAV:   4    -0.237552849034E+02    0.15091E-01   -0.13590E-01 16512   0.205E+00    0.475E-01
DAV:   5    -0.237535028673E+02    0.17820E-02   -0.17608E-02 18336   0.726E-01    0.328E-01
DAV:   6    -0.237530022024E+02    0.50066E-03   -0.33650E-03 17016   0.340E-01    0.114E-01
DAV:   7    -0.237529899333E+02    0.12269E-04   -0.41494E-04 15768   0.132E-01    0.553E-02
DAV:   8    -0.237530049706E+02   -0.15037E-04   -0.12542E-04 15600   0.767E-02    0.117E-02
DAV:   9    -0.237530044921E+02    0.47855E-06   -0.89128E-06 13056   0.223E-02    0.984E-03
DAV:  10    -0.237530041570E+02    0.33509E-06   -0.35385E-06 17712   0.914E-03    0.133E-03
DAV:  11    -0.237530041096E+02    0.47450E-07   -0.44427E-07 14352   0.274E-03
   9 F= -.23753004E+02 E0= -.23752184E+02  d E =-.163975E-02
       N       E                     dE             d eps       ncg     rms          rms(c)
DAV:   1    -0.251810772379E+02   -0.14281E+01   -0.31055E+01 13968   0.574E+01    0.885E+00
DAV:   2    -0.259699961932E+02   -0.78892E+00   -0.44338E+01 18408   0.372E+01    0.113E+01
DAV:   3    -0.238806273403E+02    0.20894E+01   -0.18852E+01 15936   0.184E+01    0.284E+00
DAV:   4    -0.238012692367E+02    0.79358E-01   -0.88511E-01 17472   0.561E+00    0.138E+00
DAV:   5    -0.237702013251E+02    0.31068E-01   -0.11644E-01 15696   0.220E+00    0.655E-01
DAV:   6    -0.237599938595E+02    0.10207E-01   -0.41280E-02 17184   0.139E+00    0.384E-01
DAV:   7    -0.237579298807E+02    0.20640E-02   -0.20018E-02 18192   0.649E-01    0.383E-01
DAV:   8    -0.237566861286E+02    0.12438E-02   -0.19887E-02 17832   0.678E-01    0.304E-01
DAV:   9    -0.237561310252E+02    0.55510E-03   -0.40201E-03 16680   0.266E-01    0.552E-02
DAV:  10    -0.237561010230E+02    0.30002E-04   -0.20900E-04 16752   0.554E-02    0.553E-02
DAV:  11    -0.237560503630E+02    0.50660E-04   -0.16826E-04 17208   0.540E-02    0.852E-03
DAV:  12    -0.237560320054E+02    0.18358E-04   -0.17681E-05 15816   0.184E-02    0.196E-02
DAV:  13    -0.237560268608E+02    0.51446E-05   -0.17117E-05 17856   0.182E-02    0.312E-03
DAV:  14    -0.237560260206E+02    0.84019E-06   -0.66125E-07 14856   0.302E-03    0.151E-03
DAV:  15    -0.237560250383E+02    0.98229E-06   -0.23571E-07 14304   0.187E-03    0.862E-04
DAV:  16    -0.237560250162E+02    0.22173E-07   -0.33737E-08  6696   0.655E-04
  10 F= -.23756025E+02 E0= -.23755141E+02  d E =-.176795E-02
       N       E                     dE             d eps       ncg     rms          rms(c)
DAV:   1    -0.238637342708E+02   -0.10771E+00   -0.49072E+00 12024   0.214E+01    0.237E+00
DAV:   2    -0.238680073433E+02   -0.42731E-02   -0.19626E+00 15648   0.759E+00    0.322E+00
DAV:   3    -0.237824759511E+02    0.85531E-01   -0.13565E+00 15432   0.540E+00    0.110E+00
DAV:   4    -0.237693394776E+02    0.13136E-01   -0.14940E-01 17040   0.200E+00    0.670E-01
DAV:   5    -0.237659502349E+02    0.33892E-02   -0.24142E-02 17952   0.801E-01    0.262E-01
DAV:   6    -0.237655883883E+02    0.36185E-03   -0.27682E-03 14880   0.354E-01    0.122E-01
DAV:   7    -0.237655715672E+02    0.16821E-04   -0.56962E-04 17688   0.142E-01    0.584E-02
DAV:   8    -0.237655841995E+02   -0.12632E-04   -0.12644E-04 15672   0.737E-02    0.134E-02
DAV:   9    -0.237655838668E+02    0.33273E-06   -0.16212E-05 14664   0.260E-02    0.135E-02
DAV:  10    -0.237655831375E+02    0.72923E-06   -0.84568E-06 17304   0.139E-02    0.208E-03
DAV:  11    -0.237655830786E+02    0.58926E-07   -0.49848E-07 13800   0.279E-03
  11 F= -.23765583E+02 E0= -.23764733E+02  d E =-.170060E-02
       N       E                     dE             d eps       ncg     rms          rms(c)
DAV:   1    -0.241957088621E+02   -0.43013E+00   -0.85895E+00 15384   0.289E+01    0.465E+00
DAV:   2    -0.241724936803E+02    0.23215E-01   -0.84442E+00 15984   0.153E+01    0.574E+00
DAV:   3    -0.238228424408E+02    0.34965E+00   -0.57836E+00 15312   0.123E+01    0.200E+00
DAV:   4    -0.237671482336E+02    0.55694E-01   -0.42353E-01 15312   0.378E+00    0.448E-01
DAV:   5    -0.237676864545E+02   -0.53822E-03   -0.56473E-02 18456   0.146E+00    0.785E-01
DAV:   6    -0.237649131601E+02    0.27733E-02   -0.12694E-02 17208   0.456E-01    0.304E-01
DAV:   7    -0.237646939641E+02    0.21920E-03   -0.35472E-03 18096   0.331E-01    0.124E-01
DAV:   8    -0.237647193968E+02   -0.25433E-04   -0.46885E-04 13776   0.146E-01    0.337E-02
DAV:   9    -0.237647193503E+02    0.46424E-07   -0.47238E-05 15936   0.386E-02    0.105E-02
DAV:  10    -0.237647185818E+02    0.76857E-06   -0.64873E-06 14832   0.129E-02    0.723E-03
DAV:  11    -0.237647183595E+02    0.22229E-06   -0.21407E-06 17544   0.615E-03    0.188E-03
DAV:  12    -0.237647182837E+02    0.75812E-07   -0.18002E-07 12192   0.178E-03
  12 F= -.23764718E+02 E0= -.23763901E+02  d E =-.163503E-02
       N       E                     dE             d eps       ncg     rms          rms(c)
DAV:   1    -0.238543940372E+02   -0.89676E-01   -0.56491E+00 11472   0.222E+01    0.235E+00
DAV:   2    -0.238494531466E+02    0.49409E-02   -0.19266E+00 16032   0.790E+00    0.304E+00
DAV:   3    -0.237695544511E+02    0.79899E-01   -0.12998E+00 15024   0.544E+00    0.109E+00
DAV:   4    -0.237551241866E+02    0.14430E-01   -0.12771E-01 16488   0.202E+00    0.452E-01
DAV:   5    -0.237535535927E+02    0.15706E-02   -0.16936E-02 18192   0.718E-01    0.341E-01
DAV:   6    -0.237530049969E+02    0.54860E-03   -0.36007E-03 17232   0.347E-01    0.118E-01
DAV:   7    -0.237529909793E+02    0.14018E-04   -0.41995E-04 15888   0.132E-01    0.585E-02
DAV:   8    -0.237530050027E+02   -0.14023E-04   -0.14745E-04 15960   0.819E-02    0.124E-02
DAV:   9    -0.237530046027E+02    0.40002E-06   -0.10530E-05 13464   0.234E-02    0.109E-02
DAV:  10    -0.237530041736E+02    0.42905E-06   -0.41619E-06 18120   0.977E-03    0.150E-03
DAV:  11    -0.237530041114E+02    0.62179E-07   -0.49564E-07 15072   0.288E-03
  13 F= -.23753004E+02 E0= -.23752184E+02  d E =-.163970E-02
       N       E                     dE             d eps       ncg     rms          rms(c)
DAV:   1    -0.243514048182E+02   -0.59840E+00   -0.13609E+01 43200   0.355E+01    0.614E+00
DAV:   2    -0.245509976908E+02   -0.19959E+00   -0.16453E+01 55560   0.211E+01    0.697E+00
DAV:   3    -0.239009941057E+02    0.65000E+00   -0.76700E+00 46728   0.123E+01    0.348E+00
DAV:   4    -0.237828004753E+02    0.11819E+00   -0.83648E-01 56616   0.445E+00    0.854E-01
DAV:   5    -0.237683294602E+02    0.14471E-01   -0.60940E-02 43776   0.189E+00    0.446E-01
DAV:   6    -0.237667164893E+02    0.16130E-02   -0.25794E-02 52224   0.948E-01    0.423E-01
DAV:   7    -0.237658589190E+02    0.85757E-03   -0.60111E-03 55344   0.361E-01    0.161E-01
DAV:   8    -0.237659001765E+02   -0.41257E-04   -0.85424E-04 42792   0.174E-01    0.116E-01
DAV:   9    -0.237658487917E+02    0.51385E-04   -0.41187E-04 54504   0.926E-02    0.602E-02
DAV:  10    -0.237658314462E+02    0.17345E-04   -0.29505E-04 55248   0.778E-02    0.350E-02
DAV:  11    -0.237658327812E+02   -0.13350E-05   -0.18664E-04 53520   0.553E-02    0.424E-02
DAV:  12    -0.237658219175E+02    0.10864E-04   -0.44787E-05 52992   0.255E-02    0.469E-03
DAV:  13    -0.237658214928E+02    0.42467E-06   -0.20781E-06 51624   0.509E-03    0.327E-03
DAV:  14    -0.237658214226E+02    0.70264E-07   -0.29193E-07 48024   0.189E-03
  14 F= -.23765821E+02 E0= -.23764926E+02  d E =-.179029E-02
       N       E                     dE             d eps       ncg     rms          rms(c)
DAV:   1    -0.237816109063E+02   -0.15789E-01   -0.25724E+00 31656   0.149E+01    0.914E-01
DAV:   2    -0.237735316752E+02    0.80792E-02   -0.20380E-01 49176   0.273E+00    0.586E-01
DAV:   3    -0.237696593287E+02    0.38723E-02   -0.24890E-02 52944   0.727E-01    0.234E-01
DAV:   4    -0.237688369905E+02    0.82234E-03   -0.10696E-02 53928   0.564E-01    0.283E-01
DAV:   5    -0.237680345999E+02    0.80239E-03   -0.62137E-03 52368   0.428E-01    0.587E-02
DAV:   6    -0.237679974743E+02    0.37126E-04   -0.75580E-04 54840   0.145E-01    0.603E-02
DAV:   7    -0.237679701050E+02    0.27369E-04   -0.17874E-04 51648   0.640E-02    0.145E-02
DAV:   8    -0.237679682577E+02    0.18473E-05   -0.11302E-05 41544   0.202E-02    0.107E-02
DAV:   9    -0.237679679358E+02    0.32191E-06   -0.37771E-06 55104   0.858E-03    0.404E-03
DAV:  10    -0.237679677788E+02    0.15707E-06   -0.12584E-06 52416   0.402E-03    0.289E-03
DAV:  11    -0.237679677355E+02    0.43225E-07   -0.33655E-07 38064   0.212E-03
  15 F= -.23767968E+02 E0= -.23767128E+02  d E =-.168035E-02
       N       E                     dE             d eps       ncg     rms          rms(c)
DAV:   1    -0.238468903509E+02   -0.78923E-01   -0.18177E+00 39336   0.110E+01    0.178E+00
DAV:   2    -0.237912679137E+02    0.55622E-01   -0.57047E-01 55848   0.392E+00    0.118E+00
DAV:   3    -0.237770739280E+02    0.14194E-01   -0.12132E-01 53064   0.156E+00    0.752E-01
DAV:   4    -0.237722098172E+02    0.48641E-02   -0.65709E-02 54528   0.120E+00    0.487E-01
DAV:   5    -0.237685403387E+02    0.36695E-02   -0.27702E-02 49200   0.964E-01    0.223E-01
DAV:   6    -0.237680561217E+02    0.48422E-03   -0.53133E-03 55200   0.370E-01    0.107E-01
DAV:   7    -0.237679718234E+02    0.84298E-04   -0.45186E-04 45144   0.122E-01    0.219E-02
DAV:   8    -0.237679684659E+02    0.33575E-05   -0.31431E-05 37344   0.346E-02    0.123E-02
DAV:   9    -0.237679679784E+02    0.48751E-06   -0.64271E-06 51792   0.144E-02    0.437E-03
DAV:  10    -0.237679677891E+02    0.18933E-06   -0.14435E-06 47232   0.538E-03    0.282E-03
DAV:  11    -0.237679677491E+02    0.39938E-07   -0.52851E-07 49176   0.275E-03
  16 F= -.23767968E+02 E0= -.23767128E+02  d E =-.168036E-02
       N       E                     dE             d eps       ncg     rms          rms(c)
DAV:   1    -0.237768249211E+02   -0.88571E-02   -0.30024E+00 30696   0.151E+01    0.872E-01
DAV:   2    -0.237714156107E+02    0.54093E-02   -0.20551E-01 48312   0.300E+00    0.603E-01
DAV:   3    -0.237684918769E+02    0.29237E-02   -0.34330E-02 54192   0.862E-01    0.430E-01
DAV:   4    -0.237668989593E+02    0.15929E-02   -0.16895E-02 54216   0.615E-01    0.241E-01
DAV:   5    -0.237659901261E+02    0.90883E-03   -0.65954E-03 50064   0.507E-01    0.121E-01
DAV:   6    -0.237658480369E+02    0.14209E-03   -0.15789E-03 54672   0.200E-01    0.565E-02
DAV:   7    -0.237658226792E+02    0.25358E-04   -0.14697E-04 47688   0.658E-02    0.111E-02
DAV:   8    -0.237658217307E+02    0.94846E-06   -0.11021E-05 39720   0.187E-02    0.772E-03
DAV:   9    -0.237658216359E+02    0.94774E-07   -0.36120E-06 54480   0.879E-03    0.582E-03
DAV:  10    -0.237658214203E+02    0.21559E-06   -0.11218E-06 50208   0.432E-03    0.178E-03
DAV:  11    -0.237658213831E+02    0.37225E-07   -0.23240E-07 37392   0.230E-03
  17 F= -.23765821E+02 E0= -.23764926E+02  d E =-.179051E-02
       N       E                     dE             d eps       ncg     rms          rms(c)
DAV:   1    -0.238609739053E+02   -0.95152E-01   -0.61657E+00 37200   0.207E+01    0.197E+00
DAV:   2    -0.237933303363E+02    0.67644E-01   -0.75720E-01 53592   0.517E+00    0.139E+00
DAV:   3    -0.237764950829E+02    0.16835E-01   -0.28669E-01 51072   0.250E+00    0.113E+00
DAV:   4    -0.237626982343E+02    0.13797E-01   -0.16598E-01 50496   0.193E+00    0.546E-01
DAV:   5    -0.237620865232E+02    0.61171E-03   -0.60524E-02 55392   0.148E+00    0.408E-01
DAV:   6    -0.237629356626E+02   -0.84914E-03   -0.10319E-02 50808   0.517E-01    0.164E-01
DAV:   7    -0.237646746643E+02   -0.17390E-02   -0.20842E-03 49992   0.251E-01    0.439E-02
DAV:   8    -0.237654209083E+02   -0.74624E-03   -0.33594E-04 44640   0.104E-01    0.205E-02
DAV:   9    -0.237658892383E+02   -0.46833E-03   -0.14754E-04 50280   0.652E-02    0.109E-02
DAV:  10    -0.237658767661E+02    0.12472E-04   -0.11461E-05 39648   0.194E-02    0.726E-03
DAV:  11    -0.237658490596E+02    0.27706E-04   -0.99554E-06 49776   0.163E-02    0.430E-03
DAV:  12    -0.237658399855E+02    0.90741E-05   -0.15567E-06 40032   0.642E-03    0.236E-03
DAV:  13    -0.237658298084E+02    0.10177E-04   -0.73073E-07 49608   0.406E-03    0.456E-04
DAV:  14    -0.237658243910E+02    0.54175E-05   -0.43633E-08 31584   0.110E-03    0.379E-04
DAV:  15    -0.237658220442E+02    0.23467E-05   -0.14319E-08 29280   0.644E-04    0.137E-04
DAV:  16    -0.237658213727E+02    0.67149E-06   -0.29833E-09 25296   0.335E-04    0.101E-04
DAV:  17    -0.237658212882E+02    0.84517E-07   -0.10458E-09 25272   0.194E-04
  18 F= -.23765821E+02 E0= -.23764926E+02  d E =-.179050E-02
       N       E                     dE             d eps       ncg     rms          rms(c)
DAV:   1    -0.237808936392E+02   -0.15072E-01   -0.25786E+00 30000   0.149E+01    0.908E-01
DAV:   2    -0.237739885503E+02    0.69051E-02   -0.21327E-01 51264   0.284E+00    0.609E-01
DAV:   3    -0.237706553554E+02    0.33332E-02   -0.45913E-02 53064   0.101E+00    0.363E-01
DAV:   4    -0.237690866674E+02    0.15687E-02   -0.24271E-02 48552   0.733E-01    0.220E-01
DAV:   5    -0.237680073738E+02    0.10793E-02   -0.59268E-03 49056   0.514E-01    0.607E-02
DAV:   6    -0.237679952751E+02    0.12099E-04   -0.54818E-04 53856   0.126E-01    0.640E-02
DAV:   7    -0.237679695497E+02    0.25725E-04   -0.14680E-04 52632   0.577E-02    0.115E-02
DAV:   8    -0.237679681190E+02    0.14307E-05   -0.11161E-05 40560   0.169E-02    0.783E-03
DAV:   9    -0.237679678673E+02    0.25169E-06   -0.24978E-06 51024   0.695E-03    0.336E-03
DAV:  10    -0.237679677692E+02    0.98042E-07   -0.93733E-07 51672   0.368E-03
  19 F= -.23767968E+02 E0= -.23767128E+02  d E =-.168042E-02
       N       E                     dE             d eps       ncg     rms          rms(c)
DAV:   1    -0.238476290422E+02   -0.79661E-01   -0.18307E+00 40560   0.110E+01    0.180E+00
DAV:   2    -0.237925236989E+02    0.55105E-01   -0.59873E-01 56544   0.392E+00    0.121E+00
DAV:   3    -0.237785119750E+02    0.14012E-01   -0.16086E-01 53016   0.182E+00    0.808E-01
DAV:   4    -0.237722904512E+02    0.62215E-02   -0.86648E-02 51816   0.136E+00    0.449E-01
DAV:   5    -0.237684781645E+02    0.38123E-02   -0.26197E-02 49608   0.970E-01    0.222E-01
DAV:   6    -0.237680691519E+02    0.40901E-03   -0.45627E-03 55224   0.344E-01    0.120E-01
DAV:   7    -0.237679728071E+02    0.96345E-04   -0.50621E-04 48312   0.122E-01    0.236E-02
DAV:   8    -0.237679685809E+02    0.42262E-05   -0.30014E-05 37680   0.328E-02    0.125E-02
DAV:   9    -0.237679679957E+02    0.58518E-06   -0.70204E-06 51600   0.153E-02    0.464E-03
DAV:  10    -0.237679677829E+02    0.21278E-06   -0.14364E-06 47976   0.557E-03    0.275E-03
DAV:  11    -0.237679677424E+02    0.40460E-07   -0.48993E-07 48432   0.275E-03
  20 F= -.23767968E+02 E0= -.23767128E+02  d E =-.168033E-02
       N       E                     dE             d eps       ncg     rms          rms(c)
DAV:   1    -0.237772205724E+02   -0.92528E-02   -0.30056E+00 30648   0.150E+01    0.869E-01
DAV:   2    -0.237712263055E+02    0.59943E-02   -0.19818E-01 48408   0.293E+00    0.598E-01
DAV:   3    -0.237682545676E+02    0.29717E-02   -0.26396E-02 54864   0.720E-01    0.421E-01
DAV:   4    -0.237668170904E+02    0.14375E-02   -0.10135E-02 54480   0.433E-01    0.271E-01
DAV:   5    -0.237658936756E+02    0.92341E-03   -0.35223E-03 52632   0.383E-01    0.691E-02
DAV:   6    -0.237658649365E+02    0.28739E-04   -0.81933E-04 51744   0.150E-01    0.588E-02
DAV:   7    -0.237658249464E+02    0.39990E-04   -0.35304E-04 52296   0.878E-02    0.116E-02
DAV:   8    -0.237658223216E+02    0.26248E-05   -0.20640E-05 49320   0.222E-02    0.120E-02
DAV:   9    -0.237658216597E+02    0.66182E-06   -0.45907E-06 50640   0.772E-03    0.557E-03
DAV:  10    -0.237658214548E+02    0.20497E-06   -0.12883E-06 52920   0.545E-03    0.405E-03
DAV:  11    -0.237658213866E+02    0.68125E-07   -0.42616E-07 48264   0.293E-03
  21 F= -.23765821E+02 E0= -.23764926E+02  d E =-.179063E-02
       N       E                     dE             d eps       ncg     rms          rms(c)
DAV:   1    -0.239220074716E+02   -0.15619E+00   -0.59300E+00 35352   0.205E+01    0.203E+00
DAV:   2    -0.238323649682E+02    0.89643E-01   -0.79626E-01 54192   0.532E+00    0.145E+00
DAV:   3    -0.238034375691E+02    0.28927E-01   -0.24223E-01 52824   0.231E+00    0.111E+00
DAV:   4    -0.237835705139E+02    0.19867E-01   -0.15088E-01 50592   0.182E+00    0.581E-01
DAV:   5    -0.237702398252E+02    0.13331E-01   -0.68145E-02 54984   0.150E+00    0.498E-01
DAV:   6    -0.237668720216E+02    0.33678E-02   -0.16481E-02 53808   0.668E-01    0.175E-01
DAV:   7    -0.237660458106E+02    0.82621E-03   -0.24337E-03 48192   0.267E-01    0.575E-02
DAV:   8    -0.237659009322E+02    0.14488E-03   -0.40977E-04 49224   0.104E-01    0.490E-02
DAV:   9    -0.237658396021E+02    0.61330E-04   -0.18594E-04 51240   0.630E-02    0.262E-02
DAV:  10    -0.237658151371E+02    0.24465E-04   -0.47989E-05 44448   0.359E-02    0.919E-03
DAV:  11    -0.237658157916E+02   -0.65459E-06   -0.80504E-06 48960   0.143E-02    0.302E-03
DAV:  12    -0.237658187393E+02   -0.29477E-05   -0.21985E-06 45288   0.747E-03    0.255E-03
DAV:  13    -0.237658202511E+02   -0.15118E-05   -0.76953E-07 47832   0.431E-03    0.823E-04
DAV:  14    -0.237658210883E+02   -0.83725E-06   -0.83741E-08 31272   0.152E-03    0.250E-04
DAV:  15    -0.237658212631E+02   -0.17475E-06   -0.12193E-08 27504   0.674E-04    0.235E-04
DAV:  16    -0.237658213449E+02   -0.81771E-07   -0.38081E-09 24048   0.355E-04
  22 F= -.23765821E+02 E0= -.23764926E+02  d E =-.179051E-02
       N       E                     dE             d eps       ncg     rms          rms(c)
DAV:   1    -0.237815879642E+02   -0.15767E-01   -0.26410E+00 31128   0.151E+01    0.907E-01
DAV:   2    -0.237735128411E+02    0.80751E-02   -0.20020E-01 51024   0.274E+00    0.582E-01
DAV:   3    -0.237696369166E+02    0.38759E-02   -0.23736E-02 53688   0.698E-01    0.228E-01
DAV:   4    -0.237686597653E+02    0.97715E-03   -0.81158E-03 52440   0.512E-01    0.277E-01
DAV:   5    -0.237680342077E+02    0.62556E-03   -0.42163E-03 53808   0.346E-01    0.599E-02
DAV:   6    -0.237679922021E+02    0.42006E-04   -0.62129E-04 50832   0.133E-01    0.483E-02
DAV:   7    -0.237679705623E+02    0.21640E-04   -0.18729E-04 52296   0.644E-02    0.155E-02
DAV:   8    -0.237679682672E+02    0.22951E-05   -0.13878E-05 47544   0.218E-02    0.109E-02
DAV:   9    -0.237679678860E+02    0.38116E-06   -0.35576E-06 53208   0.829E-03    0.304E-03
DAV:  10    -0.237679677748E+02    0.11118E-06   -0.11994E-06 52008   0.408E-03    0.292E-03
DAV:  11    -0.237679677238E+02    0.51020E-07   -0.33896E-07 40104   0.204E-03
  23 F= -.23767968E+02 E0= -.23767128E+02  d E =-.168041E-02
       N       E                     dE             d eps       ncg     rms          rms(c)
DAV:   1    -0.238469855628E+02   -0.79018E-01   -0.17784E+00 38208   0.108E+01    0.179E+00
DAV:   2    -0.237914525904E+02    0.55533E-01   -0.57542E-01 56016   0.394E+00    0.118E+00
DAV:   3    -0.237770269096E+02    0.14426E-01   -0.12111E-01 53160   0.156E+00    0.746E-01
DAV:   4    -0.237722358225E+02    0.47911E-02   -0.65415E-02 54360   0.119E+00    0.491E-01
DAV:   5    -0.237685286200E+02    0.37072E-02   -0.27769E-02 49392   0.966E-01    0.220E-01
DAV:   6    -0.237680577409E+02    0.47088E-03   -0.52676E-03 55248   0.368E-01    0.108E-01
DAV:   7    -0.237679718416E+02    0.85899E-04   -0.45495E-04 45312   0.122E-01    0.220E-02
DAV:   8    -0.237679684528E+02    0.33889E-05   -0.31167E-05 36768   0.346E-02    0.123E-02
DAV:   9    -0.237679679661E+02    0.48667E-06   -0.64685E-06 52152   0.144E-02    0.427E-03
DAV:  10    -0.237679677804E+02    0.18571E-06   -0.14044E-06 46488   0.538E-03    0.262E-03
DAV:  11    -0.237679677428E+02    0.37581E-07   -0.49835E-07 49104   0.268E-03
  24 F= -.23767968E+02 E0= -.23767128E+02  d E =-.168035E-02
       N       E                     dE             d eps       ncg     rms          rms(c)
DAV:   1    -0.237768968469E+02   -0.89291E-02   -0.30811E+00 30528   0.152E+01    0.869E-01
DAV:   2    -0.237713938632E+02    0.55030E-02   -0.20331E-01 48432   0.297E+00    0.600E-01
DAV:   3    -0.237685290098E+02    0.28649E-02   -0.34985E-02 53520   0.873E-01    0.435E-01
DAV:   4    -0.237668899353E+02    0.16391E-02   -0.17436E-02 54024   0.625E-01    0.237E-01
DAV:   5    -0.237659927510E+02    0.89718E-03   -0.65758E-03 49776   0.507E-01    0.123E-01
DAV:   6    -0.237658473125E+02    0.14544E-03   -0.15648E-03 54744   0.199E-01    0.562E-02
DAV:   7    -0.237658227515E+02    0.24561E-04   -0.14380E-04 47640   0.652E-02    0.112E-02
DAV:   8    -0.237658216893E+02    0.10622E-05   -0.10711E-05 38976   0.186E-02    0.728E-03
DAV:   9    -0.237658216226E+02    0.66695E-07   -0.33986E-06 53544   0.898E-03    0.580E-03
DAV:  10    -0.237658214284E+02    0.19421E-06   -0.12136E-06 50136   0.439E-03    0.191E-03
DAV:  11    -0.237658213817E+02    0.46767E-07   -0.25451E-07 37464   0.240E-03
  25 F= -.23765821E+02 E0= -.23764926E+02  d E =-.179053E-02
       N       E                     dE             d eps       ncg     rms          rms(c)
DAV:   1    -0.238324810363E+02   -0.66660E-01   -0.42849E+00 24552   0.166E+01    0.907E-01
DAV:   2    -0.237973694434E+02    0.35112E-01   -0.13944E-01 19800   0.261E+00    0.632E-01
DAV:   3    -0.237825052018E+02    0.14864E-01   -0.97353E-02 30384   0.164E+00    0.691E-01
DAV:   4    -0.237672854045E+02    0.15220E-01   -0.92282E-02 31728   0.174E+00    0.110E-01
DAV:   5    -0.237672620694E+02    0.23335E-04   -0.37502E-03 23280   0.371E-01    0.882E-02
DAV:   6    -0.237672766272E+02   -0.14558E-04   -0.84958E-04 31104   0.130E-01    0.656E-02
DAV:   7    -0.237672646215E+02    0.12006E-04   -0.18004E-04 23856   0.555E-02    0.172E-02
DAV:   8    -0.237672431940E+02    0.21427E-04   -0.57565E-05 28152   0.378E-02    0.100E-02
DAV:   9    -0.237672206072E+02    0.22587E-04   -0.48730E-05 23592   0.356E-02    0.276E-03
DAV:  10    -0.237672189626E+02    0.16446E-05   -0.32541E-06 26880   0.108E-02    0.150E-03
DAV:  11    -0.237672160011E+02    0.29615E-05   -0.54252E-07 23160   0.337E-03    0.639E-04
DAV:  12    -0.237672151610E+02    0.84015E-06   -0.75839E-08 24552   0.134E-03    0.225E-04
DAV:  13    -0.237672148679E+02    0.29307E-06   -0.13537E-08 17568   0.583E-04    0.220E-04
DAV:  14    -0.237672148442E+02    0.23695E-07   -0.28522E-09 19248   0.341E-04
  26 F= -.23767215E+02 E0= -.23766377E+02  d E =-.167499E-02
       N       E                     dE             d eps       ncg     rms          rms(c)
DAV:   1    -0.237651212231E+02    0.20936E-02   -0.16103E+00 16464   0.575E+00    0.116E-01
DAV:   2    -0.237682091298E+02   -0.30879E-02   -0.32622E-02 18720   0.107E+00    0.724E-02
DAV:   3    -0.237683544933E+02   -0.14536E-03   -0.23546E-03 32688   0.246E-01    0.657E-02
DAV:   4    -0.237683205638E+02    0.33929E-04   -0.32071E-04 19224   0.847E-02    0.254E-02
DAV:   5    -0.237683213976E+02   -0.83380E-06   -0.36470E-05 29568   0.322E-02    0.111E-02
DAV:   6    -0.237683211163E+02    0.28132E-06   -0.71931E-06 24528   0.104E-02    0.574E-03
DAV:   7    -0.237683210349E+02    0.81392E-07   -0.98132E-07 27048   0.398E-03
  27 F= -.23768321E+02 E0= -.23767492E+02  d E =-.165880E-02
       N       E                     dE             d eps       ncg     rms          rms(c)
DAV:   1    -0.237669145245E+02    0.14066E-02   -0.93821E-01 16992   0.433E+00    0.238E-01
DAV:   2    -0.237682660275E+02   -0.13515E-02   -0.19957E-02 20136   0.840E-01    0.126E-01
DAV:   3    -0.237683782035E+02   -0.11218E-03   -0.21994E-03 31992   0.222E-01    0.905E-02
DAV:   4    -0.237683209525E+02    0.57251E-04   -0.84908E-04 24456   0.130E-01    0.388E-02
DAV:   5    -0.237683189954E+02    0.19570E-05   -0.97670E-05 26832   0.479E-02    0.224E-02
DAV:   6    -0.237683223100E+02   -0.33146E-05   -0.29001E-05 30720   0.221E-02    0.181E-02
DAV:   7    -0.237683210775E+02    0.12325E-05   -0.90346E-06 27792   0.115E-02    0.427E-03
DAV:   8    -0.237683210518E+02    0.25751E-07   -0.69862E-07 25344   0.347E-03
  28 F= -.23768321E+02 E0= -.23767492E+02  d E =-.165888E-02
       N       E                     dE             d eps       ncg     rms          rms(c)
DAV:   1    -0.237640808756E+02    0.42402E-02   -0.16555E+00 16464   0.580E+00    0.147E-01
DAV:   2    -0.237670832857E+02   -0.30024E-02   -0.32082E-02 19536   0.106E+00    0.718E-02
DAV:   3    -0.237672113600E+02   -0.12807E-03   -0.16185E-03 31080   0.187E-01    0.392E-02
DAV:   4    -0.237672201315E+02   -0.87714E-05   -0.12827E-04 21792   0.527E-02    0.348E-02
DAV:   5    -0.237672141625E+02    0.59690E-05   -0.86613E-05 28584   0.432E-02    0.165E-02
DAV:   6    -0.237672149898E+02   -0.82736E-06   -0.77720E-06 22608   0.152E-02    0.600E-03
DAV:   7    -0.237672148576E+02    0.13227E-06   -0.16487E-06 29520   0.563E-03    0.182E-03
DAV:   8    -0.237672148495E+02    0.80590E-08   -0.15677E-07 19680   0.170E-03
  29 F= -.23767215E+02 E0= -.23766377E+02  d E =-.167499E-02
       N       E                     dE             d eps       ncg     rms          rms(c)
DAV:   1    -0.237565369625E+02    0.10678E-01   -0.43548E+00 16464   0.118E+01    0.238E-01
DAV:   2    -0.237668179674E+02   -0.10281E-01   -0.10958E-01 19752   0.266E+00    0.124E-01
DAV:   3    -0.237672243705E+02   -0.40640E-03   -0.46232E-03 28416   0.456E-01    0.752E-02
DAV:   4    -0.237672326629E+02   -0.82924E-05   -0.70652E-04 25320   0.131E-01    0.614E-02
DAV:   5    -0.237672139860E+02    0.18677E-04   -0.29139E-04 26592   0.953E-02    0.149E-02
DAV:   6    -0.237672150008E+02   -0.10148E-05   -0.16692E-05 21264   0.217E-02    0.895E-03
DAV:   7    -0.237672149084E+02    0.92401E-07   -0.43180E-06 29784   0.899E-03    0.579E-03
DAV:   8    -0.237672148286E+02    0.79889E-07   -0.15242E-06 22008   0.718E-03    0.190E-03
DAV:   9    -0.237672148322E+02   -0.36707E-08   -0.18455E-07 26232   0.225E-03
  30 F= -.23767215E+02 E0= -.23766385E+02  d E =-.165996E-02
       N       E                     dE             d eps       ncg     rms          rms(c)
DAV:   1    -0.237647225223E+02    0.24923E-02   -0.31045E+00 16464   0.752E+00    0.424E-02
DAV:   2    -0.237681826643E+02   -0.34601E-02   -0.34943E-02 18264   0.133E+00    0.254E-02
DAV:   3    -0.237683196385E+02   -0.13697E-03   -0.14537E-03 22800   0.233E-01    0.226E-02
DAV:   4    -0.237683222881E+02   -0.26496E-05   -0.10108E-04 28944   0.547E-02    0.132E-02
DAV:   5    -0.237683213123E+02    0.97576E-06   -0.95360E-06 21192   0.215E-02    0.585E-03
DAV:   6    -0.237683213624E+02   -0.50147E-07   -0.27910E-06 30216   0.918E-03    0.490E-03
DAV:   7    -0.237683212195E+02    0.14290E-06   -0.89378E-07 24840   0.400E-03    0.138E-03
DAV:   8    -0.237683211677E+02    0.51849E-07   -0.17342E-07 21000   0.326E-03
  31 F= -.23768321E+02 E0= -.23767493E+02  d E =-.165546E-02
       N       E                     dE             d eps       ncg     rms          rms(c)
DAV:   1    -0.237664008301E+02    0.19204E-02   -0.16955E+00 17688   0.548E+00    0.925E-02
DAV:   2    -0.237682487024E+02   -0.18479E-02   -0.19527E-02 19104   0.999E-01    0.425E-02
DAV:   3    -0.237683188820E+02   -0.70180E-04   -0.92678E-04 22872   0.188E-01    0.210E-02
DAV:   4    -0.237683233845E+02   -0.45025E-05   -0.81292E-05 30312   0.512E-02    0.168E-02
DAV:   5    -0.237683211929E+02    0.21916E-05   -0.31068E-05 24144   0.258E-02    0.752E-03
DAV:   6    -0.237683211652E+02    0.27641E-07   -0.28383E-06 25968   0.101E-02    0.215E-03
DAV:   7    -0.237683211682E+02   -0.30095E-08   -0.31701E-07 25128   0.256E-03
  32 F= -.23768321E+02 E0= -.23767493E+02  d E =-.165541E-02
       N       E                     dE             d eps       ncg     rms          rms(c)
DAV:   1    -0.237635862584E+02    0.47349E-02   -0.31061E+00 16464   0.750E+00    0.669E-02
DAV:   2    -0.237670811688E+02   -0.34949E-02   -0.35341E-02 18336   0.134E+00    0.249E-02
DAV:   3    -0.237672129104E+02   -0.13174E-03   -0.14348E-03 21072   0.232E-01    0.217E-02
DAV:   4    -0.237672172598E+02   -0.43494E-05   -0.10634E-04 30216   0.564E-02    0.178E-02
DAV:   5    -0.237672149555E+02    0.23043E-05   -0.26511E-05 22224   0.317E-02    0.728E-03
DAV:   6    -0.237672150542E+02   -0.98725E-07   -0.47990E-06 30744   0.111E-02    0.590E-03
DAV:   7    -0.237672149044E+02    0.14979E-06   -0.14416E-06 26784   0.528E-03    0.262E-03
DAV:   8    -0.237672148465E+02    0.57876E-07   -0.30743E-07 22752   0.355E-03
  33 F= -.23767215E+02 E0= -.23766385E+02  d E =-.165990E-02
       N       E                     dE             d eps       ncg     rms          rms(c)
DAV:   1    -0.237596734408E+02    0.75415E-02   -0.50865E+00 16464   0.114E+01    0.148E-01
DAV:   2    -0.237672553033E+02   -0.75819E-02   -0.79681E-02 21600   0.234E+00    0.134E-01
DAV:   3    -0.237672581561E+02   -0.28528E-05   -0.27471E-03 25920   0.331E-01    0.982E-02
DAV:   4    -0.237671219624E+02    0.13619E-03   -0.73404E-04 26232   0.135E-01    0.766E-02
DAV:   5    -0.237670415427E+02    0.80420E-04   -0.98145E-04 27648   0.160E-01    0.273E-02
DAV:   6    -0.237670198365E+02    0.21706E-04   -0.86534E-05 24744   0.521E-02    0.977E-03
DAV:   7    -0.237670195395E+02    0.29706E-06   -0.12664E-05 27816   0.166E-02    0.111E-02
DAV:   8    -0.237670188932E+02    0.64629E-06   -0.37252E-06 26616   0.747E-03    0.362E-03
DAV:   9    -0.237670187530E+02    0.14012E-06   -0.57778E-07 22896   0.353E-03    0.191E-03
DAV:  10    -0.237670187160E+02    0.37059E-07   -0.23807E-07 23880   0.237E-03
  34 F= -.23767019E+02 E0= -.23766189E+02  d E =-.166032E-02
       N       E                     dE             d eps       ncg     rms          rms(c)
DAV:   1    -0.237656228032E+02    0.13959E-02   -0.23889E+00 16464   0.540E+00    0.943E-02
DAV:   2    -0.237682043050E+02   -0.25815E-02   -0.28422E-02 17760   0.842E-01    0.643E-02
DAV:   3    -0.237683062873E+02   -0.10198E-03   -0.22909E-03 31992   0.231E-01    0.551E-02
DAV:   4    -0.237682738619E+02    0.32425E-04   -0.28546E-04 20592   0.795E-02    0.167E-02
DAV:   5    -0.237682722404E+02    0.16215E-05   -0.23352E-05 24984   0.246E-02    0.676E-03
DAV:   6    -0.237682722980E+02   -0.57518E-07   -0.17038E-06 24936   0.700E-03    0.247E-03
DAV:   7    -0.237682723143E+02   -0.16343E-07   -0.32432E-07 25272   0.270E-03
  35 F= -.23768272E+02 E0= -.23767445E+02  d E =-.165534E-02
       N       E                     dE             d eps       ncg     rms          rms(c)
DAV:   1    -0.237672366562E+02    0.10356E-02   -0.13111E+00 16512   0.397E+00    0.131E-01
DAV:   2    -0.237684870799E+02   -0.12504E-02   -0.15765E-02 19440   0.697E-01    0.109E-01
DAV:   3    -0.237684042148E+02    0.82865E-04   -0.12581E-03 31032   0.169E-01    0.776E-02
DAV:   4    -0.237683118838E+02    0.92331E-04   -0.75363E-04 23808   0.127E-01    0.498E-02
DAV:   5    -0.237682862095E+02    0.25674E-04   -0.39344E-04 30120   0.959E-02    0.200E-02
DAV:   6    -0.237682769565E+02    0.92530E-05   -0.14381E-05 18048   0.187E-02    0.121E-02
DAV:   7    -0.237682725742E+02    0.43823E-05   -0.17038E-05 27000   0.167E-02    0.581E-03
DAV:   8    -0.237682723423E+02    0.23192E-06   -0.14937E-06 24600   0.519E-03    0.287E-03
DAV:   9    -0.237682722994E+02    0.42923E-07   -0.23083E-07 24144   0.217E-03
  36 F= -.23768272E+02 E0= -.23767445E+02  d E =-.165533E-02
       N       E                     dE             d eps       ncg     rms          rms(c)
DAV:   1    -0.237643078930E+02    0.39644E-02   -0.23946E+00 16464   0.540E+00    0.738E-02
DAV:   2    -0.237670659981E+02   -0.27581E-02   -0.28398E-02 17952   0.859E-01    0.724E-02
DAV:   3    -0.237671163535E+02   -0.50355E-04   -0.14069E-03 30624   0.169E-01    0.577E-02
DAV:   4    -0.237671002521E+02    0.16101E-04   -0.27953E-05 18840   0.223E-02    0.529E-02
DAV:   5    -0.237670203071E+02    0.79945E-04   -0.31615E-04 23328   0.760E-02    0.136E-02
DAV:   6    -0.237670210138E+02   -0.70674E-06   -0.25567E-05 26544   0.249E-02    0.105E-02
DAV:   7    -0.237670199047E+02    0.11091E-05   -0.26581E-06 23592   0.755E-03    0.733E-03
DAV:   8    -0.237670191403E+02    0.76444E-06   -0.12654E-06 26400   0.491E-03    0.457E-03
DAV:   9    -0.237670188398E+02    0.30055E-06   -0.53866E-07 24312   0.316E-03    0.258E-03
DAV:  10    -0.237670187177E+02    0.12203E-06   -0.44483E-07 22584   0.276E-03    0.459E-04
DAV:  11    -0.237670187157E+02    0.20664E-08   -0.20520E-08 20256   0.713E-04
  37 F= -.23767019E+02 E0= -.23766189E+02  d E =-.166028E-02
