<?xml version="1.0" encoding="ISO-8859-1"?>
<modeling>
 <generator>
  <i name="program" type="string">vasp </i>
  <i name="version" type="string">6.0.8  </i>
  <i name="subversion" type="string">29Jun18 (build Jun 13 2019 12:54:44) complex                          parallel </i>
  <i name="platform" type="string">IFC18_CrayMPICH </i>
  <i name="date" type="string">2021 11 12 </i>
  <i name="time" type="string">21:19:24 </i>
 </generator>
 <incar>
  <i type="int" name="KPAR">     8</i>
  <i type="int" name="ISTART">     0</i>
  <i type="string" name="PREC"> ACC</i>
  <i type="string" name="ALGO"> Normal</i>
  <i type="logical" name="ADDGRID"> T  </i>
  <i type="int" name="ISPIN">     1</i>
  <i type="int" name="NELMIN">     5</i>
  <i type="int" name="IBRION">     6</i>
  <i type="int" name="NFREE">     4</i>
  <i name="EDIFF">      0.00000010</i>
  <i name="EDIFFG">     -0.01000000</i>
  <i type="int" name="NSW">    60</i>
  <i type="int" name="ISIF">     3</i>
  <i name="SYMPREC">      0.00000001</i>
  <i name="ENCUT">    700.00000000</i>
  <i name="POTIM">      0.01000000</i>
  <i type="logical" name="LREAL"> F  </i>
  <i type="int" name="ISMEAR">     0</i>
  <i name="SIGMA">      0.01000000</i>
  <i type="logical" name="LWAVE"> F  </i>
  <i type="logical" name="LCHARG"> F  </i>
  <i type="logical" name="LVTOT"> F  </i>
  <i type="string" name="ALGO"> Normal</i>
  <i type="string" name="GGA"> PS</i>
  <i name="EDIFF">      0.00000010</i>
  <i type="int" name="ISPIN">     1</i>
 </incar>
 <structure name="primitive_cell" >
  <crystal>
   <varray name="basis" >
    <v>       0.00000000       3.31764100       3.31764100 </v>
    <v>       3.31764100       0.00000000       3.31764100 </v>
    <v>       3.31764100       3.31764100       0.00000000 </v>
   </varray>
   <i name="volume">     73.03283578 </i>
   <varray name="rec_basis" >
    <v>      -0.15070950       0.15070950       0.15070950 </v>
    <v>       0.15070950      -0.15070950       0.15070950 </v>
    <v>       0.15070950       0.15070950      -0.15070950 </v>
   </varray>
  </crystal>
  <varray name="positions" >
   <v>       0.25000000       0.25000000       0.25000000 </v>
   <v>       0.75000000       0.75000000       0.75000000 </v>
   <v>       0.00000000       0.00000000       0.00000000 </v>
  </varray>
 </structure>
 <varray name="primitive_index" >
  <v type="int" >        1 </v>
  <v type="int" >        2 </v>
  <v type="int" >        3 </v>
 </varray>
 <kpoints>
  <generation param="Gamma">
   <v type="int" name="divisions">      13       13       13 </v>
   <v name="usershift">      0.00000000       0.00000000       0.00000000 </v>
   <v name="genvec1">      0.07692308      -0.00000000       0.00000000 </v>
   <v name="genvec2">     -0.00000000       0.07692308      -0.00000000 </v>
   <v name="genvec3">      0.00000000       0.00000000       0.07692308 </v>
   <v name="shift">      0.00000000       0.00000000       0.00000000 </v>
  </generation>
  <varray name="kpointlist" >
   <v>       0.00000000       0.00000000       0.00000000 </v>
   <v>       0.07692308       0.00000000      -0.00000000 </v>
   <v>       0.15384615      -0.00000000       0.00000000 </v>
   <v>       0.23076923       0.00000000      -0.00000000 </v>
   <v>       0.30769231      -0.00000000       0.00000000 </v>
   <v>       0.38461538       0.00000000      -0.00000000 </v>
   <v>       0.46153846       0.00000000      -0.00000000 </v>
   <v>       0.07692308       0.07692308      -0.00000000 </v>
   <v>       0.15384615       0.07692308      -0.00000000 </v>
   <v>       0.23076923       0.07692308      -0.00000000 </v>
   <v>       0.30769231       0.07692308      -0.00000000 </v>
   <v>       0.38461538       0.07692308      -0.00000000 </v>
   <v>       0.46153846       0.07692308      -0.00000000 </v>
   <v>      -0.46153846       0.07692308       0.00000000 </v>
   <v>      -0.38461538       0.07692308       0.00000000 </v>
   <v>      -0.30769231       0.07692308       0.00000000 </v>
   <v>      -0.23076923       0.07692308       0.00000000 </v>
   <v>      -0.15384615       0.07692308       0.00000000 </v>
   <v>      -0.07692308       0.07692308       0.00000000 </v>
   <v>       0.15384615       0.15384615      -0.00000000 </v>
   <v>       0.23076923       0.15384615      -0.00000000 </v>
   <v>       0.30769231       0.15384615      -0.00000000 </v>
   <v>       0.38461538       0.15384615      -0.00000000 </v>
   <v>       0.46153846       0.15384615      -0.00000000 </v>
   <v>      -0.46153846       0.15384615      -0.00000000 </v>
   <v>      -0.38461538       0.15384615       0.00000000 </v>
   <v>      -0.30769231       0.15384615       0.00000000 </v>
   <v>      -0.23076923       0.15384615       0.00000000 </v>
   <v>      -0.15384615       0.15384615      -0.00000000 </v>
   <v>       0.23076923       0.23076923      -0.00000000 </v>
   <v>       0.30769231       0.23076923      -0.00000000 </v>
   <v>       0.38461538       0.23076923      -0.00000000 </v>
   <v>       0.46153846       0.23076923      -0.00000000 </v>
   <v>      -0.46153846       0.23076923       0.00000000 </v>
   <v>      -0.38461538       0.23076923      -0.00000000 </v>
   <v>      -0.30769231       0.23076923       0.00000000 </v>
   <v>      -0.23076923       0.23076923       0.00000000 </v>
   <v>       0.30769231       0.30769231      -0.00000000 </v>
   <v>       0.38461538       0.30769231      -0.00000000 </v>
   <v>       0.46153846       0.30769231      -0.00000000 </v>
   <v>      -0.46153846       0.30769231       0.00000000 </v>
   <v>      -0.38461538       0.30769231       0.00000000 </v>
   <v>      -0.30769231       0.30769231      -0.00000000 </v>
   <v>       0.38461538       0.38461538      -0.00000000 </v>
   <v>       0.46153846       0.38461538      -0.00000000 </v>
   <v>      -0.46153846       0.38461538      -0.00000000 </v>
   <v>      -0.38461538       0.38461538       0.00000000 </v>
   <v>       0.46153846       0.46153846      -0.00000000 </v>
   <v>      -0.46153846       0.46153846       0.00000000 </v>
   <v>       0.23076923       0.15384615       0.07692308 </v>
   <v>       0.30769231       0.15384615       0.07692308 </v>
   <v>       0.38461538       0.15384615       0.07692308 </v>
   <v>       0.46153846       0.15384615       0.07692308 </v>
   <v>      -0.46153846       0.15384615       0.07692308 </v>
   <v>       0.30769231       0.23076923       0.07692308 </v>
   <v>       0.38461538       0.23076923       0.07692308 </v>
   <v>       0.46153846       0.23076923       0.07692308 </v>
   <v>      -0.46153846       0.23076923       0.07692308 </v>
   <v>      -0.38461538       0.23076923       0.07692308 </v>
   <v>      -0.30769231       0.23076923       0.07692308 </v>
   <v>      -0.23076923       0.23076923       0.07692308 </v>
   <v>      -0.15384615       0.23076923       0.07692308 </v>
   <v>       0.38461538       0.30769231       0.07692308 </v>
   <v>       0.46153846       0.30769231       0.07692308 </v>
   <v>      -0.46153846       0.30769231       0.07692308 </v>
   <v>      -0.38461538       0.30769231       0.07692308 </v>
   <v>      -0.30769231       0.30769231       0.07692308 </v>
   <v>      -0.23076923       0.30769231       0.07692308 </v>
   <v>       0.46153846       0.38461538       0.07692308 </v>
   <v>      -0.46153846       0.38461538       0.07692308 </v>
   <v>      -0.38461538       0.38461538       0.07692308 </v>
   <v>      -0.30769231       0.38461538       0.07692308 </v>
   <v>      -0.46153846       0.46153846       0.07692308 </v>
   <v>      -0.38461538       0.46153846       0.07692308 </v>
   <v>       0.46153846       0.30769231       0.15384615 </v>
   <v>      -0.46153846       0.30769231       0.15384615 </v>
   <v>      -0.38461538       0.30769231       0.15384615 </v>
   <v>      -0.46153846       0.38461538       0.15384615 </v>
   <v>      -0.38461538       0.38461538       0.15384615 </v>
   <v>      -0.30769231       0.38461538       0.15384615 </v>
   <v>      -0.23076923       0.38461538       0.15384615 </v>
   <v>      -0.38461538       0.46153846       0.15384615 </v>
   <v>      -0.30769231       0.46153846       0.15384615 </v>
   <v>      -0.30769231       0.46153846       0.23076923 </v>
  </varray>
  <varray name="weights" >
   <v>       0.00045517 </v>
   <v>       0.00364133 </v>
   <v>       0.00364133 </v>
   <v>       0.00364133 </v>
   <v>       0.00364133 </v>
   <v>       0.00364133 </v>
   <v>       0.00364133 </v>
   <v>       0.00273100 </v>
   <v>       0.01092399 </v>
   <v>       0.01092399 </v>
   <v>       0.01092399 </v>
   <v>       0.01092399 </v>
   <v>       0.01092399 </v>
   <v>       0.01092399 </v>
   <v>       0.01092399 </v>
   <v>       0.01092399 </v>
   <v>       0.01092399 </v>
   <v>       0.01092399 </v>
   <v>       0.00546199 </v>
   <v>       0.00273100 </v>
   <v>       0.01092399 </v>
   <v>       0.01092399 </v>
   <v>       0.01092399 </v>
   <v>       0.01092399 </v>
   <v>       0.01092399 </v>
   <v>       0.01092399 </v>
   <v>       0.01092399 </v>
   <v>       0.01092399 </v>
   <v>       0.00546199 </v>
   <v>       0.00273100 </v>
   <v>       0.01092399 </v>
   <v>       0.01092399 </v>
   <v>       0.01092399 </v>
   <v>       0.01092399 </v>
   <v>       0.01092399 </v>
   <v>       0.01092399 </v>
   <v>       0.00546199 </v>
   <v>       0.00273100 </v>
   <v>       0.01092399 </v>
   <v>       0.01092399 </v>
   <v>       0.01092399 </v>
   <v>       0.01092399 </v>
   <v>       0.00546199 </v>
   <v>       0.00273100 </v>
   <v>       0.01092399 </v>
   <v>       0.01092399 </v>
   <v>       0.00546199 </v>
   <v>       0.00273100 </v>
   <v>       0.00546199 </v>
   <v>       0.01092399 </v>
   <v>       0.02184797 </v>
   <v>       0.02184797 </v>
   <v>       0.02184797 </v>
   <v>       0.02184797 </v>
   <v>       0.01092399 </v>
   <v>       0.02184797 </v>
   <v>       0.02184797 </v>
   <v>       0.02184797 </v>
   <v>       0.02184797 </v>
   <v>       0.02184797 </v>
   <v>       0.02184797 </v>
   <v>       0.01092399 </v>
   <v>       0.01092399 </v>
   <v>       0.02184797 </v>
   <v>       0.02184797 </v>
   <v>       0.02184797 </v>
   <v>       0.02184797 </v>
   <v>       0.01092399 </v>
   <v>       0.01092399 </v>
   <v>       0.02184797 </v>
   <v>       0.02184797 </v>
   <v>       0.01092399 </v>
   <v>       0.01092399 </v>
   <v>       0.01092399 </v>
   <v>       0.01092399 </v>
   <v>       0.02184797 </v>
   <v>       0.02184797 </v>
   <v>       0.01092399 </v>
   <v>       0.02184797 </v>
   <v>       0.02184797 </v>
   <v>       0.01092399 </v>
   <v>       0.01092399 </v>
   <v>       0.01092399 </v>
   <v>       0.01092399 </v>
  </varray>
 </kpoints>
 <parameters>
  <separator name="general" >
   <i type="string" name="SYSTEM">unknown system</i>
   <i type="logical" name="LCOMPAT"> F  </i>
  </separator>
  <separator name="electronic" >
   <i type="string" name="PREC">acc</i>
   <i name="ENMAX">    700.00000000</i>
   <i name="ENAUG">    526.41000000</i>
   <i name="EDIFF">      0.00000010</i>
   <i type="int" name="IALGO">    38</i>
   <i type="int" name="IWAVPR">    11</i>
   <i type="int" name="NBANDS">    24</i>
   <i type="int" name="NBANDSLOW">    -1</i>
   <i type="int" name="NBANDSHIGH">    -1</i>
   <i name="NELECT">     39.00000000</i>
   <i type="int" name="TURBO">     0</i>
   <i type="int" name="IRESTART">     0</i>
   <i type="int" name="NREBOOT">     0</i>
   <i type="int" name="NMIN">     0</i>
   <i name="EREF">      0.00000000</i>
   <separator name="electronic smearing" >
    <i type="int" name="ISMEAR">     0</i>
    <i name="SIGMA">      0.01000000</i>
    <i name="KSPACING">      0.50000000</i>
    <i type="logical" name="KGAMMA"> T  </i>
    <i type="logical" name="KBLOWUP"> T  </i>
   </separator>
   <separator name="electronic projectors" >
    <i type="logical" name="LREAL"> F  </i>
    <v name="ROPT">      0.00000000      0.00000000      0.00000000</v>
    <i type="int" name="LMAXPAW">  -100</i>
    <i type="int" name="LMAXMIX">     2</i>
    <i type="logical" name="NLSPLINE"> F  </i>
   </separator>
   <separator name="electronic startup" >
    <i type="int" name="ISTART">     0</i>
    <i type="int" name="ICHARG">     2</i>
    <i type="int" name="INIWAV">     1</i>
   </separator>
   <separator name="electronic spin" >
    <i type="int" name="ISPIN">     1</i>
    <i type="logical" name="LNONCOLLINEAR"> F  </i>
    <v name="MAGMOM">      1.00000000      1.00000000      1.00000000</v>
    <i name="NUPDOWN">     -1.00000000</i>
    <i type="logical" name="LSORBIT"> F  </i>
    <v name="SAXIS">      0.00000000      0.00000000      1.00000000</v>
    <i type="logical" name="LSPIRAL"> F  </i>
    <v name="QSPIRAL">      0.00000000      0.00000000      0.00000000</v>
    <i type="logical" name="LZEROZ"> F  </i>
   </separator>
   <separator name="electronic exchange-correlation" >
    <i type="logical" name="LASPH"> F  </i>
    <i type="logical" name="LMETAGGA"> F  </i>
   </separator>
   <separator name="electronic convergence" >
    <i type="int" name="NELM">    60</i>
    <i type="int" name="NELMDL">    -5</i>
    <i type="int" name="NELMIN">     5</i>
    <i name="ENINI">    700.00000000</i>
    <separator name="electronic convergence detail" >
     <i type="logical" name="LDIAG"> T  </i>
     <i type="logical" name="LSUBROT"> F  </i>
     <i name="WEIMIN">      0.00100000</i>
     <i name="EBREAK">      0.00000000</i>
     <i name="DEPER">      0.30000000</i>
     <i type="int" name="NRMM">     4</i>
     <i name="TIME">      0.40000000</i>
    </separator>
   </separator>
   <separator name="electronic mixer" >
    <i name="AMIX">      0.40000000</i>
    <i name="BMIX">      1.00000000</i>
    <i name="AMIN">      0.10000000</i>
    <i name="AMIX_MAG">      1.60000000</i>
    <i name="BMIX_MAG">      1.00000000</i>
    <separator name="electronic mixer details" >
     <i type="int" name="IMIX">     4</i>
     <i type="logical" name="MIXFIRST"> F  </i>
     <i type="int" name="MAXMIX">   -45</i>
     <i name="WC">    100.00000000</i>
     <i type="int" name="INIMIX">     1</i>
     <i type="int" name="MIXPRE">     1</i>
     <i type="int" name="MREMOVE">     5</i>
    </separator>
   </separator>
   <separator name="electronic dipolcorrection" >
    <i type="logical" name="LDIPOL"> F  </i>
    <i type="logical" name="LMONO"> F  </i>
    <i type="int" name="IDIPOL">     0</i>
    <i name="EPSILON">      1.00000000</i>
    <v name="DIPOL">   -100.00000000   -100.00000000   -100.00000000</v>
    <i name="EFIELD">      0.00000000</i>
   </separator>
  </separator>
  <separator name="grids" >
   <i type="int" name="NGX">    40</i>
   <i type="int" name="NGY">    40</i>
   <i type="int" name="NGZ">    40</i>
   <i type="int" name="NGXF">    80</i>
   <i type="int" name="NGYF">    80</i>
   <i type="int" name="NGZF">    80</i>
   <i type="logical" name="ADDGRID"> T  </i>
  </separator>
  <separator name="ionic" >
   <i type="int" name="NSW">    73</i>
   <i type="int" name="IBRION">     6</i>
   <i type="int" name="MDALGO">     0</i>
   <i type="int" name="ISIF">     3</i>
   <i name="PSTRESS">      0.00000000</i>
   <i name="EDIFFG">     -0.01000000</i>
   <i type="int" name="NFREE">     4</i>
   <i name="POTIM">      0.01000000</i>
   <i name="SMASS">     -3.00000000</i>
   <i name="SCALEE">      1.00000000</i>
  </separator>
  <separator name="ionic md" >
   <i name="TEBEG">      0.00010000</i>
   <i name="TEEND">      0.00010000</i>
   <i type="int" name="NBLOCK">     1</i>
   <i type="int" name="KBLOCK">    73</i>
   <i type="int" name="NPACO">   256</i>
   <i name="APACO">     16.00000000</i>
  </separator>
  <separator name="symmetry" >
   <i type="int" name="ISYM">     2</i>
   <i name="SYMPREC">      0.00000001</i>
  </separator>
  <separator name="dos" >
   <i type="int" name="LORBIT">     0</i>
   <v name="RWIGS">     -1.00000000     -1.00000000     -1.00000000</v>
   <i type="int" name="NEDOS">   301</i>
   <i name="EMIN">     10.00000000</i>
   <i name="EMAX">    -10.00000000</i>
   <i name="EFERMI">      0.00000000</i>
  </separator>
  <separator name="writing" >
   <i type="int" name="NWRITE">     2</i>
   <i type="logical" name="LWAVE"> F  </i>
   <i type="logical" name="LDOWNSAMPLE"> F  </i>
   <i type="logical" name="LCHARG"> F  </i>
   <i type="logical" name="LPARD"> F  </i>
   <i type="logical" name="LVTOT"> F  </i>
   <i type="logical" name="LVHAR"> F  </i>
   <i type="logical" name="LELF"> F  </i>
   <i type="logical" name="LOPTICS"> F  </i>
   <v name="STM">      0.00000000      0.00000000      0.00000000      0.00000000      0.00000000      0.00000000      0.00000000</v>
  </separator>
  <separator name="performance" >
   <i type="int" name="NPAR">    24</i>
   <i type="int" name="NSIM">     4</i>
   <i type="int" name="NBLK">    -1</i>
   <i type="logical" name="LPLANE"> T  </i>
   <i type="logical" name="LSCALAPACK"> T  </i>
   <i type="logical" name="LSCAAWARE"> F  </i>
   <i type="logical" name="LSCALU"> F  </i>
   <i type="logical" name="LASYNC"> F  </i>
   <i type="logical" name="LORBITALREAL"> F  </i>
  </separator>
  <separator name="miscellaneous" >
   <i type="int" name="IDIOT">     3</i>
   <i type="int" name="PHON_NSTRUCT">    -1</i>
   <i type="logical" name="LMUSIC"> F  </i>
   <v name="POMASS">    238.02900000    208.98000000    195.08000000</v>
   <v name="DARWINR">      0.00000000      0.00000000      0.00000000</v>
   <v name="DARWINV">      1.00000000      1.00000000      1.00000000</v>
   <i type="logical" name="LCORR"> T  </i>
  </separator>
  <i type="logical" name="GGA_COMPAT"> T  </i>
  <i type="logical" name="LBERRY"> F  </i>
  <i type="int" name="ICORELEVEL">     0</i>
  <i type="logical" name="LDAU"> F  </i>
  <i type="int" name="I_CONSTRAINED_M">     0</i>
  <separator name="electronic exchange-correlation" >
   <i type="string" name="GGA">PS</i>
   <i type="int" name="VOSKOWN">     0</i>
   <i type="logical" name="LHFCALC"> F  </i>
   <i type="string" name="PRECFOCK"></i>
   <i type="logical" name="LSYMGRAD"> F  </i>
   <i type="logical" name="LHFONE"> F  </i>
   <i type="logical" name="LRHFCALC"> F  </i>
   <i type="logical" name="LTHOMAS"> F  </i>
   <i type="logical" name="LMODELHF"> F  </i>
   <i type="logical" name="LFOCKACE"> F  </i>
   <i name="ENCUT4O">     -1.00000000</i>
   <i type="int" name="EXXOEP">     0</i>
   <i type="int" name="FOURORBIT">     0</i>
   <i name="AEXX">      0.00000000</i>
   <i name="HFALPHA">      0.00000000</i>
   <i name="MCALPHA">      0.00000000</i>
   <i name="ALDAX">      1.00000000</i>
   <i name="AGGAX">      1.00000000</i>
   <i name="ALDAC">      1.00000000</i>
   <i name="AGGAC">      1.00000000</i>
   <i type="int" name="NKREDX">     1</i>
   <i type="int" name="NKREDY">     1</i>
   <i type="int" name="NKREDZ">     1</i>
   <i type="logical" name="SHIFTRED"> F  </i>
   <i type="logical" name="ODDONLY"> F  </i>
   <i type="logical" name="EVENONLY"> F  </i>
   <i type="int" name="LMAXFOCK">     0</i>
   <i type="int" name="NMAXFOCKAE">     0</i>
   <i type="logical" name="LFOCKAEDFT"> F  </i>
   <i name="HFSCREEN">      0.00000000</i>
   <i name="HFSCREENC">      0.00000000</i>
   <i type="int" name="NBANDSGWLOW">     0</i>
  </separator>
  <separator name="vdW DFT" >
   <i type="logical" name="LUSE_VDW"> F  </i>
   <i name="Zab_VDW">     -0.84910000</i>
   <i name="PARAM1">      0.12340000</i>
   <i name="PARAM2">      1.00000000</i>
   <i name="PARAM3">      0.00000000</i>
  </separator>
  <separator name="model GW" >
   <i type="int" name="MODEL_GW">     0</i>
   <i name="MODEL_EPS0">     14.60656716</i>
   <i name="MODEL_ALPHA">      1.00000000</i>
  </separator>
  <separator name="linear response parameters" >
   <i type="logical" name="LEPSILON"> F  </i>
   <i type="logical" name="LRPA"> F  </i>
   <i type="logical" name="LNABLA"> F  </i>
   <i type="logical" name="LVEL"> F  </i>
   <i type="int" name="KINTER">     0</i>
   <i name="CSHIFT">      0.10000000</i>
   <i name="OMEGAMAX">     -1.00000000</i>
   <i name="DEG_THRESHOLD">      0.00200000</i>
   <i name="RTIME">     -0.10000000</i>
   <i name="WPLASMAI">      0.00000000</i>
   <v name="DFIELD">      0.00000000      0.00000000      0.00000000</v>
   <v name="WPLASMA">      0.00000000      0.00000000      0.00000000      0.00000000      0.00000000      0.00000000      0.00000000      0.00000000      0.00000000</v>
  </separator>
  <separator name="orbital magnetization" >
   <i type="logical" name="NUCIND"> F  </i>
   <v name="MAGPOS">      0.00000000      0.00000000      0.00000000</v>
   <i type="logical" name="LNICSALL"> T  </i>
   <i type="logical" name="ORBITALMAG"> F  </i>
   <i type="logical" name="LMAGBLOCH"> F  </i>
   <i type="logical" name="LCHIMAG"> F  </i>
   <i type="logical" name="LGAUGE"> T  </i>
   <i type="int" name="MAGATOM">     0</i>
   <v name="MAGDIPOL">      0.00000000      0.00000000      0.00000000</v>
   <v name="AVECCONST">      0.00000000      0.00000000      0.00000000</v>
  </separator>
  <separator name="response functions" >
   <i type="logical" name="LFINITE_TEMPERATURE"> F  </i>
   <i type="logical" name="LADDER"> F  </i>
   <i type="logical" name="LRPAFORCE"> F  </i>
   <i type="logical" name="LFXC"> F  </i>
   <i type="logical" name="LHARTREE"> T  </i>
   <i type="int" name="IBSE">     0</i>
   <v type="int" name="KPOINT">    -1     0     0     0</v>
   <i type="logical" name="LTCTC"> F  </i>
   <i type="logical" name="LTCTE"> F  </i>
   <i type="logical" name="LTETE"> F  </i>
   <i type="logical" name="LTRIPLET"> F  </i>
   <i type="logical" name="LFXCEPS"> F  </i>
   <i type="logical" name="LFXHEG"> F  </i>
   <i type="int" name="NATURALO">     2</i>
   <i type="logical" name="L2ORDER"> F  </i>
   <i type="logical" name="LDMP1"> F  </i>
   <i type="logical" name="LMP2LT"> F  </i>
   <i type="logical" name="LSMP2LT"> F  </i>
   <i type="logical" name="LUSEW"> F  </i>
   <i name="ENCUTGW">     -2.00000000</i>
   <i name="ENCUTGWSOFT">     -2.00000000</i>
   <i name="ENCUTLF">     -1.00000000</i>
   <i type="int" name="LMAXMP2">    -1</i>
   <i name="SCISSOR">      0.00000000</i>
   <i type="int" name="NOMEGA">     0</i>
   <i type="int" name="NOMEGAR">     0</i>
   <i type="int" name="NBANDSGW">    -1</i>
   <i type="int" name="NBANDSO">    -1</i>
   <i type="int" name="NBANDSV">    -1</i>
   <i type="int" name="NELM">     1</i>
   <i type="int" name="NELMHF">     1</i>
   <i type="int" name="DIM">     3</i>
   <i type="int" name="IESPILON">     4</i>
   <i type="int" name="ANTIRES">     0</i>
   <i name="OMEGAMAX">    -30.00000000</i>
   <i name="OMEGAMIN">    -30.00000000</i>
   <i name="OMEGATL">   -200.00000000</i>
   <i type="int" name="OMEGAGRID">   145</i>
   <i name="CSHIFT">     -0.10000000</i>
   <i type="logical" name="LSELFENERGY"> F  </i>
   <i type="logical" name="LSPECTRAL"> F  </i>
   <i type="logical" name="LSPECTRALGW"> F  </i>
   <i type="logical" name="LSINGLES"> F  </i>
   <i type="logical" name="LFERMIGW"> F  </i>
   <i type="logical" name="ODDONLYGW"> F  </i>
   <i type="logical" name="EVENONLYGW"> F  </i>
   <i type="int" name="NKREDLFX">     1</i>
   <i type="int" name="NKREDLFY">     1</i>
   <i type="int" name="NKREDLFZ">     1</i>
   <i type="int" name="MAXMEM">  2800</i>
   <i type="int" name="TELESCOPE">     0</i>
   <i type="int" name="NTAUPAR">     1</i>
   <i type="int" name="NOMEGAPAR">    -1</i>
   <i name="LAMBDA">      1.00000000</i>
  </separator>
  <separator name="External order field" >
   <i name="OFIELD_KAPPA">      0.00000000</i>
   <v name="OFIELD_K">      0.00000000      0.00000000      0.00000000</v>
   <i name="OFIELD_Q6_NEAR">      0.00000000</i>
   <i name="OFIELD_Q6_FAR">      0.00000000</i>
   <i name="OFIELD_A">      0.00000000</i>
  </separator>
 </parameters>
 <atominfo>
  <atoms>       3 </atoms>
  <types>       3 </types>
  <array name="atoms" >
   <dimension dim="1">ion</dimension>
   <field type="string">element</field>
   <field type="int">atomtype</field>
   <set>
    <rc><c>U </c><c>   1</c></rc>
    <rc><c>Bi</c><c>   2</c></rc>
    <rc><c>Pt</c><c>   3</c></rc>
   </set>
  </array>
  <array name="atomtypes" >
   <dimension dim="1">type</dimension>
   <field type="int">atomspertype</field>
   <field type="string">element</field>
   <field>mass</field>
   <field>valence</field>
   <field type="string">pseudopotential</field>
   <set>
    <rc><c>   1</c><c>U </c><c>    238.02900000</c><c>     14.00000000</c><c>  PAW_PBE U 06Sep2000                   </c></rc>
    <rc><c>   1</c><c>Bi</c><c>    208.98000000</c><c>     15.00000000</c><c>  PAW_PBE Bi_d 06Sep2000                </c></rc>
    <rc><c>   1</c><c>Pt</c><c>    195.08000000</c><c>     10.00000000</c><c>  PAW_PBE Pt 04Feb2005                  </c></rc>
   </set>
  </array>
 </atominfo>
 <structure name="initialpos" >
  <crystal>
   <varray name="basis" >
    <v>       0.00000000       3.31764100       3.31764100 </v>
    <v>       3.31764100       0.00000000       3.31764100 </v>
    <v>       3.31764100       3.31764100       0.00000000 </v>
   </varray>
   <i name="volume">     73.03283578 </i>
   <varray name="rec_basis" >
    <v>      -0.15070950       0.15070950       0.15070950 </v>
    <v>       0.15070950      -0.15070950       0.15070950 </v>
    <v>       0.15070950       0.15070950      -0.15070950 </v>
   </varray>
  </crystal>
  <varray name="positions" >
   <v>       0.25000000       0.25000000       0.25000000 </v>
   <v>       0.75000000       0.75000000       0.75000000 </v>
   <v>       0.00000000       0.00000000       0.00000000 </v>
  </varray>
 </structure>
 <calculation>
  <scstep>
   <time name="dav">    0.88    0.89</time>
   <time name="total">    0.99    1.06</time>
   <energy>
    <i name="alphaZ">    215.31116115 </i>
    <i name="ewald">  -3593.30914339 </i>
    <i name="hartreedc">   -783.94252335 </i>
    <i name="XCdc">     90.34504247 </i>
    <i name="pawpsdc">   3513.29252893 </i>
    <i name="pawaedc">  -3436.88002192 </i>
    <i name="eentropy">     -0.00011882 </i>
    <i name="bandstr">    135.90558556 </i>
    <i name="atom">   4095.35208632 </i>
    <i name="e_fr_energy">    236.07459695 </i>
    <i name="e_wo_entrp">    236.07471577 </i>
    <i name="e_0_energy">    236.07465636 </i>
   </energy>
  </scstep>
  <scstep>
   <time name="dav">    0.56    0.59</time>
   <time name="total">    0.57    0.59</time>
   <energy>
    <i name="e_fr_energy">    -14.95193251 </i>
    <i name="e_wo_entrp">    -14.95081507 </i>
    <i name="e_0_energy">    -14.95137379 </i>
   </energy>
  </scstep>
  <scstep>
   <time name="dav">    0.49    0.50</time>
   <time name="total">    0.49    0.51</time>
   <energy>
    <i name="e_fr_energy">    -25.25591021 </i>
    <i name="e_wo_entrp">    -25.25495628 </i>
    <i name="e_0_energy">    -25.25543324 </i>
   </energy>
  </scstep>
  <scstep>
   <time name="dav">    0.84    0.85</time>
   <time name="total">    0.84    0.85</time>
   <energy>
    <i name="e_fr_energy">    -26.09753625 </i>
    <i name="e_wo_entrp">    -26.09656160 </i>
    <i name="e_0_energy">    -26.09704893 </i>
   </energy>
  </scstep>
  <scstep>
   <time name="dav">    0.48    0.49</time>
   <time name="total">    0.68    0.69</time>
   <energy>
    <i name="e_fr_energy">    -26.10917772 </i>
    <i name="e_wo_entrp">    -26.10823818 </i>
    <i name="e_0_energy">    -26.10870795 </i>
   </energy>
  </scstep>
  <scstep>
   <time name="dav">    0.74    0.74</time>
   <time name="total">    1.02    1.04</time>
   <energy>
    <i name="e_fr_energy">    -34.47368264 </i>
    <i name="e_wo_entrp">    -34.47362041 </i>
    <i name="e_0_energy">    -34.47365153 </i>
   </energy>
  </scstep>
  <scstep>
   <time name="dav">    0.84    0.84</time>
   <time name="total">    1.09    1.12</time>
   <energy>
    <i name="e_fr_energy">    -24.65246637 </i>
    <i name="e_wo_entrp">    -24.65165328 </i>
    <i name="e_0_energy">    -24.65205982 </i>
   </energy>
  </scstep>
  <scstep>
   <time name="dav">    0.74    0.74</time>
   <time name="total">    0.99    1.00</time>
   <energy>
    <i name="e_fr_energy">    -24.05770677 </i>
    <i name="e_wo_entrp">    -24.05626022 </i>
    <i name="e_0_energy">    -24.05698350 </i>
   </energy>
  </scstep>
  <scstep>
   <time name="dav">    0.73    0.73</time>
   <time name="total">    0.97    0.99</time>
   <energy>
    <i name="e_fr_energy">    -23.77527178 </i>
    <i name="e_wo_entrp">    -23.77382938 </i>
    <i name="e_0_energy">    -23.77455058 </i>
   </energy>
  </scstep>
  <scstep>
   <time name="dav">    0.67    0.67</time>
   <time name="total">    0.93    0.94</time>
   <energy>
    <i name="e_fr_energy">    -23.77613606 </i>
    <i name="e_wo_entrp">    -23.77466267 </i>
    <i name="e_0_energy">    -23.77539937 </i>
   </energy>
  </scstep>
  <scstep>
   <time name="dav">    0.76    0.76</time>
   <time name="total">    1.01    1.02</time>
   <energy>
    <i name="e_fr_energy">    -23.76876885 </i>
    <i name="e_wo_entrp">    -23.76711174 </i>
    <i name="e_0_energy">    -23.76794030 </i>
   </energy>
  </scstep>
  <scstep>
   <time name="dav">    0.61    0.61</time>
   <time name="total">    0.86    0.89</time>
   <energy>
    <i name="e_fr_energy">    -23.76869045 </i>
    <i name="e_wo_entrp">    -23.76703872 </i>
    <i name="e_0_energy">    -23.76786458 </i>
   </energy>
  </scstep>
  <scstep>
   <time name="dav">    0.64    0.64</time>
   <time name="total">    0.87    0.90</time>
   <energy>
    <i name="e_fr_energy">    -23.76870401 </i>
    <i name="e_wo_entrp">    -23.76705692 </i>
    <i name="e_0_energy">    -23.76788046 </i>
   </energy>
  </scstep>
  <scstep>
   <time name="dav">    0.79    0.79</time>
   <time name="total">    1.07    1.10</time>
   <energy>
    <i name="e_fr_energy">    -23.76869196 </i>
    <i name="e_wo_entrp">    -23.76703641 </i>
    <i name="e_0_energy">    -23.76786419 </i>
   </energy>
  </scstep>
  <scstep>
   <time name="dav">    0.60    0.60</time>
   <time name="total">    0.87    0.89</time>
   <energy>
    <i name="e_fr_energy">    -23.76869007 </i>
    <i name="e_wo_entrp">    -23.76703627 </i>
    <i name="e_0_energy">    -23.76786317 </i>
   </energy>
  </scstep>
  <scstep>
   <time name="dav">    0.81    0.81</time>
   <time name="total">    1.27    1.29</time>
   <energy>
    <i name="e_fr_energy">    -23.76869004 </i>
    <i name="e_wo_entrp">    -23.76703625 </i>
    <i name="e_0_energy">    -23.76786315 </i>
   </energy>
  </scstep>
  <scstep>
   <time name="dav">    0.41    0.41</time>
   <time name="total">    0.50    0.53</time>
   <energy>
    <i name="alphaZ">    215.31116115 </i>
    <i name="ewald">  -3593.30914339 </i>
    <i name="hartreedc">   -770.31357456 </i>
    <i name="XCdc">     89.94367409 </i>
    <i name="pawpsdc">   4210.87496240 </i>
    <i name="pawaedc">  -4143.89844457 </i>
    <i name="eentropy">     -0.00165373 </i>
    <i name="bandstr">   -127.72775775 </i>
    <i name="atom">   4095.35208632 </i>
    <i name="e_fr_energy">    -23.76869006 </i>
    <i name="e_wo_entrp">    -23.76703632 </i>
    <i name="e_0_energy">    -23.76786319 </i>
   </energy>
  </scstep>
  <structure>
   <crystal>
    <varray name="basis" >
     <v>       0.00000000       3.31764100       3.31764100 </v>
     <v>       3.31764100       0.00000000       3.31764100 </v>
     <v>       3.31764100       3.31764100       0.00000000 </v>
    </varray>
    <i name="volume">     73.03283578 </i>
    <varray name="rec_basis" >
     <v>      -0.15070950       0.15070950       0.15070950 </v>
     <v>       0.15070950      -0.15070950       0.15070950 </v>
     <v>       0.15070950       0.15070950      -0.15070950 </v>
    </varray>
   </crystal>
   <varray name="positions" >
    <v>       0.25000000       0.25000000       0.25000000 </v>
    <v>       0.75000000       0.75000000       0.75000000 </v>
    <v>       0.00000000       0.00000000       0.00000000 </v>
   </varray>
  </structure>
  <varray name="forces" >
   <v>      -0.00000000      -0.00000000      -0.00000000 </v>
   <v>      -0.00000000      -0.00000000      -0.00000000 </v>
   <v>       0.00000000       0.00000000       0.00000000 </v>
  </varray>
  <varray name="stress" >
   <v>      -0.20222010       0.00000000       0.00000000 </v>
   <v>       0.00000000      -0.20222010       0.00000000 </v>
   <v>       0.00000000       0.00000000      -0.20222010 </v>
  </varray>
  <energy>
   <i name="e_fr_energy">    -23.76869006 </i>
   <i name="e_wo_entrp">    -23.76786319 </i>
   <i name="e_0_energy">     -0.00165373 </i>
  </energy>
  <kpoints>
   <generation param="Gamma">
    <v type="int" name="divisions">      13       13       13 </v>
    <v name="usershift">      0.00000000       0.00000000       0.00000000 </v>
    <v name="genvec1">      0.07692308      -0.00000000      -0.00000000 </v>
    <v name="genvec2">      0.00000000       0.07692308       0.00000000 </v>
    <v name="genvec3">     -0.00000000       0.00000000       0.07692308 </v>
    <v name="shift">      0.00000000       0.00000000       0.00000000 </v>
   </generation>
   <varray name="kpointlist" >
    <v>       0.00000000       0.00000000       0.00000000 </v>
    <v>       0.07692308      -0.00000000      -0.00000000 </v>
    <v>       0.15384615       0.00000000       0.00000000 </v>
    <v>       0.23076923      -0.00000000      -0.00000000 </v>
    <v>       0.30769231       0.00000000       0.00000000 </v>
    <v>       0.38461538      -0.00000000      -0.00000000 </v>
    <v>       0.46153846      -0.00000000      -0.00000000 </v>
    <v>       0.07692308       0.07692308       0.00000000 </v>
    <v>       0.15384615       0.07692308      -0.00000000 </v>
    <v>       0.23076923       0.07692308      -0.00000000 </v>
    <v>       0.30769231       0.07692308       0.00000000 </v>
    <v>       0.38461538       0.07692308      -0.00000000 </v>
    <v>       0.46153846       0.07692308      -0.00000000 </v>
    <v>      -0.46153846       0.07692308       0.00000000 </v>
    <v>      -0.38461538       0.07692308       0.00000000 </v>
    <v>      -0.30769231       0.07692308       0.00000000 </v>
    <v>      -0.23076923       0.07692308       0.00000000 </v>
    <v>      -0.15384615       0.07692308       0.00000000 </v>
    <v>      -0.07692308       0.07692308       0.00000000 </v>
    <v>       0.15384615       0.15384615      -0.00000000 </v>
    <v>       0.23076923       0.15384615      -0.00000000 </v>
    <v>       0.30769231       0.15384615       0.00000000 </v>
    <v>       0.38461538       0.15384615      -0.00000000 </v>
    <v>       0.46153846       0.15384615      -0.00000000 </v>
    <v>      -0.46153846       0.15384615      -0.00000000 </v>
    <v>      -0.38461538       0.15384615      -0.00000000 </v>
    <v>      -0.30769231       0.15384615      -0.00000000 </v>
    <v>      -0.23076923       0.15384615       0.00000000 </v>
    <v>      -0.15384615       0.15384615      -0.00000000 </v>
    <v>       0.23076923       0.23076923      -0.00000000 </v>
    <v>       0.30769231       0.23076923       0.00000000 </v>
    <v>       0.38461538       0.23076923      -0.00000000 </v>
    <v>       0.46153846       0.23076923       0.00000000 </v>
    <v>      -0.46153846       0.23076923      -0.00000000 </v>
    <v>      -0.38461538       0.23076923       0.00000000 </v>
    <v>      -0.30769231       0.23076923       0.00000000 </v>
    <v>      -0.23076923       0.23076923       0.00000000 </v>
    <v>       0.30769231       0.30769231      -0.00000000 </v>
    <v>       0.38461538       0.30769231      -0.00000000 </v>
    <v>       0.46153846       0.30769231      -0.00000000 </v>
    <v>      -0.46153846       0.30769231       0.00000000 </v>
    <v>      -0.38461538       0.30769231      -0.00000000 </v>
    <v>      -0.30769231       0.30769231      -0.00000000 </v>
    <v>       0.38461538       0.38461538      -0.00000000 </v>
    <v>       0.46153846       0.38461538       0.00000000 </v>
    <v>      -0.46153846       0.38461538       0.00000000 </v>
    <v>      -0.38461538       0.38461538       0.00000000 </v>
    <v>       0.46153846       0.46153846      -0.00000000 </v>
    <v>      -0.46153846       0.46153846       0.00000000 </v>
    <v>       0.00000000       0.07692308       0.07692308 </v>
    <v>       0.15384615       0.07692308       0.07692308 </v>
    <v>       0.23076923       0.07692308       0.07692308 </v>
    <v>       0.30769231       0.07692308       0.07692308 </v>
    <v>       0.38461538       0.07692308       0.07692308 </v>
    <v>       0.46153846       0.07692308       0.07692308 </v>
    <v>      -0.46153846       0.07692308       0.07692308 </v>
    <v>      -0.38461538       0.07692308       0.07692308 </v>
    <v>      -0.30769231       0.07692308       0.07692308 </v>
    <v>      -0.23076923       0.07692308       0.07692308 </v>
    <v>      -0.15384615       0.07692308       0.07692308 </v>
    <v>      -0.07692308       0.07692308       0.07692308 </v>
    <v>       0.23076923       0.15384615       0.07692308 </v>
    <v>       0.30769231       0.15384615       0.07692308 </v>
    <v>       0.38461538       0.15384615       0.07692308 </v>
    <v>       0.46153846       0.15384615       0.07692308 </v>
    <v>      -0.46153846       0.15384615       0.07692308 </v>
    <v>      -0.38461538       0.15384615       0.07692308 </v>
    <v>      -0.30769231       0.15384615       0.07692308 </v>
    <v>      -0.23076923       0.15384615       0.07692308 </v>
    <v>      -0.15384615       0.15384615       0.07692308 </v>
    <v>      -0.07692308       0.15384615       0.07692308 </v>
    <v>       0.15384615       0.23076923       0.07692308 </v>
    <v>       0.30769231       0.23076923       0.07692308 </v>
    <v>       0.38461538       0.23076923       0.07692308 </v>
    <v>       0.46153846       0.23076923       0.07692308 </v>
    <v>      -0.46153846       0.23076923       0.07692308 </v>
    <v>      -0.38461538       0.23076923       0.07692308 </v>
    <v>      -0.30769231       0.23076923       0.07692308 </v>
    <v>      -0.23076923       0.23076923       0.07692308 </v>
    <v>      -0.15384615       0.23076923       0.07692308 </v>
    <v>       0.15384615       0.30769231       0.07692308 </v>
    <v>       0.23076923       0.30769231       0.07692308 </v>
    <v>       0.38461538       0.30769231       0.07692308 </v>
    <v>       0.46153846       0.30769231       0.07692308 </v>
    <v>      -0.46153846       0.30769231       0.07692308 </v>
    <v>      -0.38461538       0.30769231       0.07692308 </v>
    <v>      -0.30769231       0.30769231       0.07692308 </v>
    <v>      -0.23076923       0.30769231       0.07692308 </v>
    <v>       0.15384615       0.38461538       0.07692308 </v>
    <v>       0.23076923       0.38461538       0.07692308 </v>
    <v>       0.30769231       0.38461538       0.07692308 </v>
    <v>       0.46153846       0.38461538       0.07692308 </v>
    <v>      -0.46153846       0.38461538       0.07692308 </v>
    <v>      -0.38461538       0.38461538       0.07692308 </v>
    <v>      -0.30769231       0.38461538       0.07692308 </v>
    <v>       0.15384615       0.46153846       0.07692308 </v>
    <v>       0.23076923       0.46153846       0.07692308 </v>
    <v>       0.30769231       0.46153846       0.07692308 </v>
    <v>       0.38461538       0.46153846       0.07692308 </v>
    <v>      -0.46153846       0.46153846       0.07692308 </v>
    <v>      -0.38461538       0.46153846       0.07692308 </v>
    <v>       0.15384615      -0.46153846       0.07692308 </v>
    <v>       0.23076923      -0.46153846       0.07692308 </v>
    <v>       0.30769231      -0.46153846       0.07692308 </v>
    <v>       0.38461538      -0.46153846       0.07692308 </v>
    <v>       0.46153846      -0.46153846       0.07692308 </v>
    <v>       0.23076923      -0.38461538       0.07692308 </v>
    <v>       0.30769231      -0.38461538       0.07692308 </v>
    <v>       0.38461538      -0.38461538       0.07692308 </v>
    <v>       0.46153846      -0.38461538       0.07692308 </v>
    <v>       0.23076923      -0.30769231       0.07692308 </v>
    <v>       0.30769231      -0.30769231       0.07692308 </v>
    <v>       0.38461538      -0.30769231       0.07692308 </v>
    <v>       0.23076923      -0.23076923       0.07692308 </v>
    <v>       0.30769231      -0.23076923       0.07692308 </v>
    <v>       0.23076923      -0.15384615       0.07692308 </v>
    <v>       0.00000000       0.15384615       0.15384615 </v>
    <v>       0.30769231       0.15384615       0.15384615 </v>
    <v>       0.38461538       0.15384615       0.15384615 </v>
    <v>       0.46153846       0.15384615       0.15384615 </v>
    <v>      -0.46153846       0.15384615       0.15384615 </v>
    <v>      -0.38461538       0.15384615       0.15384615 </v>
    <v>      -0.30769231       0.15384615       0.15384615 </v>
    <v>      -0.23076923       0.15384615       0.15384615 </v>
    <v>      -0.15384615       0.15384615       0.15384615 </v>
    <v>      -0.07692308       0.15384615       0.15384615 </v>
    <v>       0.38461538       0.23076923       0.15384615 </v>
    <v>       0.46153846       0.23076923       0.15384615 </v>
    <v>      -0.46153846       0.23076923       0.15384615 </v>
    <v>      -0.38461538       0.23076923       0.15384615 </v>
    <v>      -0.30769231       0.23076923       0.15384615 </v>
    <v>      -0.23076923       0.23076923       0.15384615 </v>
    <v>      -0.15384615       0.23076923       0.15384615 </v>
    <v>      -0.07692308       0.23076923       0.15384615 </v>
    <v>       0.46153846       0.30769231       0.15384615 </v>
    <v>      -0.46153846       0.30769231       0.15384615 </v>
    <v>      -0.38461538       0.30769231       0.15384615 </v>
    <v>      -0.30769231       0.30769231       0.15384615 </v>
    <v>      -0.23076923       0.30769231       0.15384615 </v>
    <v>      -0.15384615       0.30769231       0.15384615 </v>
    <v>      -0.46153846       0.38461538       0.15384615 </v>
    <v>      -0.38461538       0.38461538       0.15384615 </v>
    <v>      -0.30769231       0.38461538       0.15384615 </v>
    <v>      -0.23076923       0.38461538       0.15384615 </v>
    <v>       0.30769231       0.46153846       0.15384615 </v>
    <v>      -0.38461538       0.46153846       0.15384615 </v>
    <v>      -0.30769231       0.46153846       0.15384615 </v>
    <v>       0.30769231      -0.46153846       0.15384615 </v>
    <v>       0.38461538      -0.46153846       0.15384615 </v>
    <v>       0.30769231      -0.38461538       0.15384615 </v>
    <v>       0.38461538      -0.38461538       0.15384615 </v>
    <v>       0.46153846      -0.38461538       0.15384615 </v>
    <v>       0.38461538      -0.30769231       0.15384615 </v>
    <v>       0.46153846      -0.30769231       0.15384615 </v>
    <v>       0.38461538      -0.23076923       0.15384615 </v>
    <v>       0.00000000       0.23076923       0.23076923 </v>
    <v>       0.46153846       0.23076923       0.23076923 </v>
    <v>      -0.46153846       0.23076923       0.23076923 </v>
    <v>      -0.38461538       0.23076923       0.23076923 </v>
    <v>      -0.30769231       0.23076923       0.23076923 </v>
    <v>      -0.23076923       0.23076923       0.23076923 </v>
    <v>      -0.15384615       0.23076923       0.23076923 </v>
    <v>      -0.07692308       0.23076923       0.23076923 </v>
    <v>      -0.46153846       0.30769231       0.23076923 </v>
    <v>      -0.38461538       0.30769231       0.23076923 </v>
    <v>      -0.30769231       0.30769231       0.23076923 </v>
    <v>      -0.23076923       0.30769231       0.23076923 </v>
    <v>      -0.15384615       0.30769231       0.23076923 </v>
    <v>      -0.07692308       0.30769231       0.23076923 </v>
    <v>      -0.38461538       0.38461538       0.23076923 </v>
    <v>      -0.30769231       0.38461538       0.23076923 </v>
    <v>      -0.23076923       0.38461538       0.23076923 </v>
    <v>      -0.15384615       0.38461538       0.23076923 </v>
    <v>      -0.30769231       0.46153846       0.23076923 </v>
    <v>      -0.23076923       0.46153846       0.23076923 </v>
    <v>       0.46153846      -0.30769231       0.23076923 </v>
    <v>       0.00000000       0.30769231       0.30769231 </v>
    <v>      -0.38461538       0.30769231       0.30769231 </v>
    <v>      -0.30769231       0.30769231       0.30769231 </v>
    <v>      -0.23076923       0.30769231       0.30769231 </v>
    <v>      -0.15384615       0.30769231       0.30769231 </v>
    <v>      -0.07692308       0.30769231       0.30769231 </v>
    <v>      -0.30769231       0.38461538       0.30769231 </v>
    <v>      -0.23076923       0.38461538       0.30769231 </v>
    <v>      -0.15384615       0.38461538       0.30769231 </v>
    <v>      -0.07692308       0.38461538       0.30769231 </v>
    <v>      -0.23076923       0.46153846       0.30769231 </v>
    <v>      -0.15384615       0.46153846       0.30769231 </v>
    <v>      -0.00000000       0.38461538       0.38461538 </v>
    <v>      -0.23076923       0.38461538       0.38461538 </v>
    <v>      -0.15384615       0.38461538       0.38461538 </v>
    <v>      -0.07692308       0.38461538       0.38461538 </v>
    <v>      -0.15384615       0.46153846       0.38461538 </v>
    <v>      -0.07692308       0.46153846       0.38461538 </v>
    <v>       0.00000000       0.46153846       0.46153846 </v>
    <v>      -0.07692308       0.46153846       0.46153846 </v>
   </varray>
   <varray name="weights" >
    <v>       0.00045517 </v>
    <v>       0.00364133 </v>
    <v>       0.00364133 </v>
    <v>       0.00364133 </v>
    <v>       0.00364133 </v>
    <v>       0.00364133 </v>
    <v>       0.00364133 </v>
    <v>       0.00182066 </v>
    <v>       0.00728266 </v>
    <v>       0.00728266 </v>
    <v>       0.00728266 </v>
    <v>       0.00728266 </v>
    <v>       0.00728266 </v>
    <v>       0.00728266 </v>
    <v>       0.00728266 </v>
    <v>       0.00728266 </v>
    <v>       0.00728266 </v>
    <v>       0.00728266 </v>
    <v>       0.00364133 </v>
    <v>       0.00182066 </v>
    <v>       0.00728266 </v>
    <v>       0.00728266 </v>
    <v>       0.00728266 </v>
    <v>       0.00728266 </v>
    <v>       0.00728266 </v>
    <v>       0.00728266 </v>
    <v>       0.00728266 </v>
    <v>       0.00728266 </v>
    <v>       0.00364133 </v>
    <v>       0.00182066 </v>
    <v>       0.00728266 </v>
    <v>       0.00728266 </v>
    <v>       0.00728266 </v>
    <v>       0.00728266 </v>
    <v>       0.00728266 </v>
    <v>       0.00728266 </v>
    <v>       0.00364133 </v>
    <v>       0.00182066 </v>
    <v>       0.00728266 </v>
    <v>       0.00728266 </v>
    <v>       0.00728266 </v>
    <v>       0.00728266 </v>
    <v>       0.00364133 </v>
    <v>       0.00182066 </v>
    <v>       0.00728266 </v>
    <v>       0.00728266 </v>
    <v>       0.00364133 </v>
    <v>       0.00182066 </v>
    <v>       0.00364133 </v>
    <v>       0.00091033 </v>
    <v>       0.00182066 </v>
    <v>       0.00364133 </v>
    <v>       0.00364133 </v>
    <v>       0.00364133 </v>
    <v>       0.00364133 </v>
    <v>       0.00364133 </v>
    <v>       0.00364133 </v>
    <v>       0.00364133 </v>
    <v>       0.00364133 </v>
    <v>       0.00364133 </v>
    <v>       0.00364133 </v>
    <v>       0.00364133 </v>
    <v>       0.00728266 </v>
    <v>       0.00728266 </v>
    <v>       0.00728266 </v>
    <v>       0.00728266 </v>
    <v>       0.00728266 </v>
    <v>       0.00728266 </v>
    <v>       0.00728266 </v>
    <v>       0.00728266 </v>
    <v>       0.00364133 </v>
    <v>       0.00364133 </v>
    <v>       0.00364133 </v>
    <v>       0.00728266 </v>
    <v>       0.00728266 </v>
    <v>       0.00728266 </v>
    <v>       0.00728266 </v>
    <v>       0.00728266 </v>
    <v>       0.00728266 </v>
    <v>       0.00364133 </v>
    <v>       0.00728266 </v>
    <v>       0.00364133 </v>
    <v>       0.00364133 </v>
    <v>       0.00728266 </v>
    <v>       0.00728266 </v>
    <v>       0.00728266 </v>
    <v>       0.00728266 </v>
    <v>       0.00364133 </v>
    <v>       0.00728266 </v>
    <v>       0.00728266 </v>
    <v>       0.00364133 </v>
    <v>       0.00364133 </v>
    <v>       0.00728266 </v>
    <v>       0.00728266 </v>
    <v>       0.00364133 </v>
    <v>       0.00728266 </v>
    <v>       0.00728266 </v>
    <v>       0.00728266 </v>
    <v>       0.00364133 </v>
    <v>       0.00364133 </v>
    <v>       0.00364133 </v>
    <v>       0.00728266 </v>
    <v>       0.00728266 </v>
    <v>       0.00728266 </v>
    <v>       0.00728266 </v>
    <v>       0.00364133 </v>
    <v>       0.00728266 </v>
    <v>       0.00728266 </v>
    <v>       0.00728266 </v>
    <v>       0.00364133 </v>
    <v>       0.00728266 </v>
    <v>       0.00728266 </v>
    <v>       0.00364133 </v>
    <v>       0.00728266 </v>
    <v>       0.00364133 </v>
    <v>       0.00364133 </v>
    <v>       0.00091033 </v>
    <v>       0.00182066 </v>
    <v>       0.00364133 </v>
    <v>       0.00364133 </v>
    <v>       0.00364133 </v>
    <v>       0.00364133 </v>
    <v>       0.00364133 </v>
    <v>       0.00364133 </v>
    <v>       0.00364133 </v>
    <v>       0.00364133 </v>
    <v>       0.00364133 </v>
    <v>       0.00728266 </v>
    <v>       0.00728266 </v>
    <v>       0.00728266 </v>
    <v>       0.00728266 </v>
    <v>       0.00728266 </v>
    <v>       0.00728266 </v>
    <v>       0.00364133 </v>
    <v>       0.00364133 </v>
    <v>       0.00728266 </v>
    <v>       0.00728266 </v>
    <v>       0.00728266 </v>
    <v>       0.00728266 </v>
    <v>       0.00364133 </v>
    <v>       0.00364133 </v>
    <v>       0.00728266 </v>
    <v>       0.00728266 </v>
    <v>       0.00364133 </v>
    <v>       0.00364133 </v>
    <v>       0.00364133 </v>
    <v>       0.00364133 </v>
    <v>       0.00728266 </v>
    <v>       0.00364133 </v>
    <v>       0.00728266 </v>
    <v>       0.00728266 </v>
    <v>       0.00364133 </v>
    <v>       0.00728266 </v>
    <v>       0.00364133 </v>
    <v>       0.00364133 </v>
    <v>       0.00091033 </v>
    <v>       0.00182066 </v>
    <v>       0.00364133 </v>
    <v>       0.00364133 </v>
    <v>       0.00364133 </v>
    <v>       0.00364133 </v>
    <v>       0.00364133 </v>
    <v>       0.00364133 </v>
    <v>       0.00364133 </v>
    <v>       0.00728266 </v>
    <v>       0.00728266 </v>
    <v>       0.00728266 </v>
    <v>       0.00728266 </v>
    <v>       0.00364133 </v>
    <v>       0.00364133 </v>
    <v>       0.00728266 </v>
    <v>       0.00728266 </v>
    <v>       0.00364133 </v>
    <v>       0.00364133 </v>
    <v>       0.00364133 </v>
    <v>       0.00364133 </v>
    <v>       0.00091033 </v>
    <v>       0.00182066 </v>
    <v>       0.00364133 </v>
    <v>       0.00364133 </v>
    <v>       0.00364133 </v>
    <v>       0.00364133 </v>
    <v>       0.00364133 </v>
    <v>       0.00728266 </v>
    <v>       0.00728266 </v>
    <v>       0.00364133 </v>
    <v>       0.00364133 </v>
    <v>       0.00364133 </v>
    <v>       0.00091033 </v>
    <v>       0.00182066 </v>
    <v>       0.00364133 </v>
    <v>       0.00364133 </v>
    <v>       0.00364133 </v>
    <v>       0.00364133 </v>
    <v>       0.00091033 </v>
    <v>       0.00182066 </v>
   </varray>
  </kpoints>
  <time name="totalsc">   23.75   24.68</time>
 </calculation>
 <calculation>
  <scstep>
   <time name="dav">    1.26    1.27</time>
   <time name="total">    1.60    1.62</time>
   <energy>
    <i name="alphaZ">    211.08937367 </i>
    <i name="ewald">  -3569.54460140 </i>
    <i name="hartreedc">   -765.22211731 </i>
    <i name="XCdc">     89.12021955 </i>
    <i name="pawpsdc">   4210.85538930 </i>
    <i name="pawaedc">  -4143.87899813 </i>
    <i name="eentropy">     -0.00133776 </i>
    <i name="bandstr">   -152.00433209 </i>
    <i name="atom">   4095.35208632 </i>
    <i name="e_fr_energy">    -24.23431786 </i>
    <i name="e_wo_entrp">    -24.23298009 </i>
    <i name="e_0_energy">    -24.23364897 </i>
   </energy>
  </scstep>
  <scstep>
   <time name="dav">    1.85    1.85</time>
   <time name="total">    2.13    2.15</time>
   <energy>
    <i name="e_fr_energy">    -24.49178182 </i>
    <i name="e_wo_entrp">    -24.49138964 </i>
    <i name="e_0_energy">    -24.49158573 </i>
   </energy>
  </scstep>
  <scstep>
   <time name="dav">    1.54    1.55</time>
   <time name="total">    1.89    2.09</time>
   <energy>
    <i name="e_fr_energy">    -23.88234402 </i>
    <i name="e_wo_entrp">    -23.88148364 </i>
    <i name="e_0_energy">    -23.88191383 </i>
   </energy>
  </scstep>
  <scstep>
   <time name="dav">    1.91    1.91</time>
   <time name="total">    2.16    2.20</time>
   <energy>
    <i name="e_fr_energy">    -23.76892091 </i>
    <i name="e_wo_entrp">    -23.76736847 </i>
    <i name="e_0_energy">    -23.76814469 </i>
   </energy>
  </scstep>
  <scstep>
   <time name="dav">    1.56    1.56</time>
   <time name="total">    1.82    1.84</time>
   <energy>
    <i name="e_fr_energy">    -23.75790094 </i>
    <i name="e_wo_entrp">    -23.75602996 </i>
    <i name="e_0_energy">    -23.75696545 </i>
   </energy>
  </scstep>
  <scstep>
   <time name="dav">    1.68    1.68</time>
   <time name="total">    1.94    1.96</time>
   <energy>
    <i name="e_fr_energy">    -23.75638947 </i>
    <i name="e_wo_entrp">    -23.75471317 </i>
    <i name="e_0_energy">    -23.75555132 </i>
   </energy>
  </scstep>
  <scstep>
   <time name="dav">    1.88    1.88</time>
   <time name="total">    2.18    2.20</time>
   <energy>
    <i name="e_fr_energy">    -23.75620134 </i>
    <i name="e_wo_entrp">    -23.75440860 </i>
    <i name="e_0_energy">    -23.75530497 </i>
   </energy>
  </scstep>
  <scstep>
   <time name="dav">    1.62    1.62</time>
   <time name="total">    1.90    1.92</time>
   <energy>
    <i name="e_fr_energy">    -23.75617194 </i>
    <i name="e_wo_entrp">    -23.75444872 </i>
    <i name="e_0_energy">    -23.75531033 </i>
   </energy>
  </scstep>
  <scstep>
   <time name="dav">    1.84    1.84</time>
   <time name="total">    2.11    2.13</time>
   <energy>
    <i name="e_fr_energy">    -23.75607669 </i>
    <i name="e_wo_entrp">    -23.75428876 </i>
    <i name="e_0_energy">    -23.75518272 </i>
   </energy>
  </scstep>
  <scstep>
   <time name="dav">    1.73    1.73</time>
   <time name="total">    2.01    2.03</time>
   <energy>
    <i name="e_fr_energy">    -23.75603016 </i>
    <i name="e_wo_entrp">    -23.75426743 </i>
    <i name="e_0_energy">    -23.75514880 </i>
   </energy>
  </scstep>
  <scstep>
   <time name="dav">    1.82    1.82</time>
   <time name="total">    2.09    2.11</time>
   <energy>
    <i name="e_fr_energy">    -23.75602799 </i>
    <i name="e_wo_entrp">    -23.75426244 </i>
    <i name="e_0_energy">    -23.75514522 </i>
   </energy>
  </scstep>
  <scstep>
   <time name="dav">    1.79    1.79</time>
   <time name="total">    2.06    2.08</time>
   <energy>
    <i name="e_fr_energy">    -23.75602511 </i>
    <i name="e_wo_entrp">    -23.75425632 </i>
    <i name="e_0_energy">    -23.75514071 </i>
   </energy>
  </scstep>
  <scstep>
   <time name="dav">    1.34    1.34</time>
   <time name="total">    1.44    1.45</time>
   <energy>
    <i name="alphaZ">    211.08937367 </i>
    <i name="ewald">  -3569.54460140 </i>
    <i name="hartreedc">   -781.09493089 </i>
    <i name="XCdc">     89.72536886 </i>
    <i name="pawpsdc">   4164.80077214 </i>
    <i name="pawaedc">  -4097.52954336 </i>
    <i name="eentropy">     -0.00176821 </i>
    <i name="bandstr">   -136.55278215 </i>
    <i name="atom">   4095.35208632 </i>
    <i name="e_fr_energy">    -23.75602502 </i>
    <i name="e_wo_entrp">    -23.75425681 </i>
    <i name="e_0_energy">    -23.75514091 </i>
   </energy>
  </scstep>
  <structure>
   <crystal>
    <varray name="basis" >
     <v>       0.00000000       3.31764100       3.31764100 </v>
     <v>       3.38399382       0.00000000       3.31764100 </v>
     <v>       3.38399382       3.31764100       0.00000000 </v>
    </varray>
    <i name="volume">     74.49349249 </i>
    <varray name="rec_basis" >
     <v>      -0.14775441       0.15070950       0.15070950 </v>
     <v>       0.14775441      -0.15070950       0.15070950 </v>
     <v>       0.14775441       0.15070950      -0.15070950 </v>
    </varray>
   </crystal>
   <varray name="positions" >
    <v>       0.25000000       0.25000000       0.25000000 </v>
    <v>       0.75000000       0.75000000       0.75000000 </v>
    <v>       0.00000000       0.00000000       0.00000000 </v>
   </varray>
  </structure>
  <varray name="forces" >
   <v>       0.00000000       0.00000000       0.00000000 </v>
   <v>       0.00000000       0.00000000       0.00000000 </v>
   <v>      -0.00000000      -0.00000000      -0.00000000 </v>
  </varray>
  <varray name="stress" >
   <v>     -27.45776112       0.00000000       0.00000000 </v>
   <v>       0.00000000     -19.02983088       0.00000000 </v>
   <v>      -0.00000000       0.00000000     -19.02983088 </v>
  </varray>
  <energy>
   <i name="e_fr_energy">    -23.75602502 </i>
   <i name="e_wo_entrp">    -23.75514091 </i>
   <i name="e_0_energy">     -0.00176821 </i>
  </energy>
  <kpoints>
   <generation param="Gamma">
    <v type="int" name="divisions">      13       13       13 </v>
    <v name="usershift">      0.00000000       0.00000000       0.00000000 </v>
    <v name="genvec1">      0.07692308      -0.00000000      -0.00000000 </v>
    <v name="genvec2">      0.00000000       0.07692308       0.00000000 </v>
    <v name="genvec3">     -0.00000000       0.00000000       0.07692308 </v>
    <v name="shift">      0.00000000       0.00000000       0.00000000 </v>
   </generation>
   <varray name="kpointlist" >
    <v>       0.00000000       0.00000000       0.00000000 </v>
    <v>       0.07692308       0.00000000      -0.00000000 </v>
    <v>       0.15384615       0.00000000      -0.00000000 </v>
    <v>       0.23076923      -0.00000000      -0.00000000 </v>
    <v>       0.30769231       0.00000000      -0.00000000 </v>
    <v>       0.38461538      -0.00000000      -0.00000000 </v>
    <v>       0.46153846       0.00000000      -0.00000000 </v>
    <v>       0.07692308       0.07692308       0.00000000 </v>
    <v>       0.15384615       0.07692308       0.00000000 </v>
    <v>       0.23076923       0.07692308      -0.00000000 </v>
    <v>       0.30769231       0.07692308       0.00000000 </v>
    <v>       0.38461538       0.07692308      -0.00000000 </v>
    <v>       0.46153846       0.07692308       0.00000000 </v>
    <v>      -0.46153846       0.07692308      -0.00000000 </v>
    <v>      -0.38461538       0.07692308       0.00000000 </v>
    <v>      -0.30769231       0.07692308      -0.00000000 </v>
    <v>      -0.23076923       0.07692308       0.00000000 </v>
    <v>      -0.15384615       0.07692308       0.00000000 </v>
    <v>      -0.07692308       0.07692308       0.00000000 </v>
    <v>       0.15384615       0.15384615       0.00000000 </v>
    <v>       0.23076923       0.15384615      -0.00000000 </v>
    <v>       0.30769231       0.15384615       0.00000000 </v>
    <v>       0.38461538       0.15384615      -0.00000000 </v>
    <v>       0.46153846       0.15384615      -0.00000000 </v>
    <v>      -0.46153846       0.15384615       0.00000000 </v>
    <v>      -0.38461538       0.15384615       0.00000000 </v>
    <v>      -0.30769231       0.15384615       0.00000000 </v>
    <v>      -0.23076923       0.15384615       0.00000000 </v>
    <v>      -0.15384615       0.15384615       0.00000000 </v>
    <v>       0.23076923       0.23076923      -0.00000000 </v>
    <v>       0.30769231       0.23076923       0.00000000 </v>
    <v>       0.38461538       0.23076923      -0.00000000 </v>
    <v>       0.46153846       0.23076923       0.00000000 </v>
    <v>      -0.46153846       0.23076923      -0.00000000 </v>
    <v>      -0.38461538       0.23076923       0.00000000 </v>
    <v>      -0.30769231       0.23076923      -0.00000000 </v>
    <v>      -0.23076923       0.23076923       0.00000000 </v>
    <v>       0.30769231       0.30769231       0.00000000 </v>
    <v>       0.38461538       0.30769231      -0.00000000 </v>
    <v>       0.46153846       0.30769231       0.00000000 </v>
    <v>      -0.46153846       0.30769231       0.00000000 </v>
    <v>      -0.38461538       0.30769231      -0.00000000 </v>
    <v>      -0.30769231       0.30769231       0.00000000 </v>
    <v>       0.38461538       0.38461538      -0.00000000 </v>
    <v>       0.46153846       0.38461538       0.00000000 </v>
    <v>      -0.46153846       0.38461538       0.00000000 </v>
    <v>      -0.38461538       0.38461538       0.00000000 </v>
    <v>       0.46153846       0.46153846       0.00000000 </v>
    <v>      -0.46153846       0.46153846       0.00000000 </v>
    <v>       0.00000000       0.07692308       0.07692308 </v>
    <v>       0.15384615       0.07692308       0.07692308 </v>
    <v>       0.23076923       0.07692308       0.07692308 </v>
    <v>       0.30769231       0.07692308       0.07692308 </v>
    <v>       0.38461538       0.07692308       0.07692308 </v>
    <v>       0.46153846       0.07692308       0.07692308 </v>
    <v>      -0.46153846       0.07692308       0.07692308 </v>
    <v>      -0.38461538       0.07692308       0.07692308 </v>
    <v>      -0.30769231       0.07692308       0.07692308 </v>
    <v>      -0.23076923       0.07692308       0.07692308 </v>
    <v>      -0.15384615       0.07692308       0.07692308 </v>
    <v>      -0.07692308       0.07692308       0.07692308 </v>
    <v>       0.23076923       0.15384615       0.07692308 </v>
    <v>       0.30769231       0.15384615       0.07692308 </v>
    <v>       0.38461538       0.15384615       0.07692308 </v>
    <v>       0.46153846       0.15384615       0.07692308 </v>
    <v>      -0.46153846       0.15384615       0.07692308 </v>
    <v>      -0.38461538       0.15384615       0.07692308 </v>
    <v>      -0.30769231       0.15384615       0.07692308 </v>
    <v>      -0.23076923       0.15384615       0.07692308 </v>
    <v>      -0.15384615       0.15384615       0.07692308 </v>
    <v>      -0.07692308       0.15384615       0.07692308 </v>
    <v>       0.15384615       0.23076923       0.07692308 </v>
    <v>       0.30769231       0.23076923       0.07692308 </v>
    <v>       0.38461538       0.23076923       0.07692308 </v>
    <v>       0.46153846       0.23076923       0.07692308 </v>
    <v>      -0.46153846       0.23076923       0.07692308 </v>
    <v>      -0.38461538       0.23076923       0.07692308 </v>
    <v>      -0.30769231       0.23076923       0.07692308 </v>
    <v>      -0.23076923       0.23076923       0.07692308 </v>
    <v>      -0.15384615       0.23076923       0.07692308 </v>
    <v>       0.15384615       0.30769231       0.07692308 </v>
    <v>       0.23076923       0.30769231       0.07692308 </v>
    <v>       0.38461538       0.30769231       0.07692308 </v>
    <v>       0.46153846       0.30769231       0.07692308 </v>
    <v>      -0.46153846       0.30769231       0.07692308 </v>
    <v>      -0.38461538       0.30769231       0.07692308 </v>
    <v>      -0.30769231       0.30769231       0.07692308 </v>
    <v>      -0.23076923       0.30769231       0.07692308 </v>
    <v>       0.15384615       0.38461538       0.07692308 </v>
    <v>       0.23076923       0.38461538       0.07692308 </v>
    <v>       0.30769231       0.38461538       0.07692308 </v>
    <v>       0.46153846       0.38461538       0.07692308 </v>
    <v>      -0.46153846       0.38461538       0.07692308 </v>
    <v>      -0.38461538       0.38461538       0.07692308 </v>
    <v>      -0.30769231       0.38461538       0.07692308 </v>
    <v>       0.15384615       0.46153846       0.07692308 </v>
    <v>       0.23076923       0.46153846       0.07692308 </v>
    <v>       0.30769231       0.46153846       0.07692308 </v>
    <v>       0.38461538       0.46153846       0.07692308 </v>
    <v>      -0.46153846       0.46153846       0.07692308 </v>
    <v>      -0.38461538       0.46153846       0.07692308 </v>
    <v>       0.15384615      -0.46153846       0.07692308 </v>
    <v>       0.23076923      -0.46153846       0.07692308 </v>
    <v>       0.30769231      -0.46153846       0.07692308 </v>
    <v>       0.38461538      -0.46153846       0.07692308 </v>
    <v>       0.46153846      -0.46153846       0.07692308 </v>
    <v>       0.23076923      -0.38461538       0.07692308 </v>
    <v>       0.30769231      -0.38461538       0.07692308 </v>
    <v>       0.38461538      -0.38461538       0.07692308 </v>
    <v>       0.46153846      -0.38461538       0.07692308 </v>
    <v>       0.23076923      -0.30769231       0.07692308 </v>
    <v>       0.30769231      -0.30769231       0.07692308 </v>
    <v>       0.38461538      -0.30769231       0.07692308 </v>
    <v>       0.23076923      -0.23076923       0.07692308 </v>
    <v>       0.30769231      -0.23076923       0.07692308 </v>
    <v>       0.23076923      -0.15384615       0.07692308 </v>
    <v>       0.00000000       0.15384615       0.15384615 </v>
    <v>       0.30769231       0.15384615       0.15384615 </v>
    <v>       0.38461538       0.15384615       0.15384615 </v>
    <v>       0.46153846       0.15384615       0.15384615 </v>
    <v>      -0.46153846       0.15384615       0.15384615 </v>
    <v>      -0.38461538       0.15384615       0.15384615 </v>
    <v>      -0.30769231       0.15384615       0.15384615 </v>
    <v>      -0.23076923       0.15384615       0.15384615 </v>
    <v>      -0.15384615       0.15384615       0.15384615 </v>
    <v>      -0.07692308       0.15384615       0.15384615 </v>
    <v>       0.38461538       0.23076923       0.15384615 </v>
    <v>       0.46153846       0.23076923       0.15384615 </v>
    <v>      -0.46153846       0.23076923       0.15384615 </v>
    <v>      -0.38461538       0.23076923       0.15384615 </v>
    <v>      -0.30769231       0.23076923       0.15384615 </v>
    <v>      -0.23076923       0.23076923       0.15384615 </v>
    <v>      -0.15384615       0.23076923       0.15384615 </v>
    <v>      -0.07692308       0.23076923       0.15384615 </v>
    <v>       0.46153846       0.30769231       0.15384615 </v>
    <v>      -0.46153846       0.30769231       0.15384615 </v>
    <v>      -0.38461538       0.30769231       0.15384615 </v>
    <v>      -0.30769231       0.30769231       0.15384615 </v>
    <v>      -0.23076923       0.30769231       0.15384615 </v>
    <v>      -0.15384615       0.30769231       0.15384615 </v>
    <v>      -0.46153846       0.38461538       0.15384615 </v>
    <v>      -0.38461538       0.38461538       0.15384615 </v>
    <v>      -0.30769231       0.38461538       0.15384615 </v>
    <v>      -0.23076923       0.38461538       0.15384615 </v>
    <v>       0.30769231       0.46153846       0.15384615 </v>
    <v>      -0.38461538       0.46153846       0.15384615 </v>
    <v>      -0.30769231       0.46153846       0.15384615 </v>
    <v>       0.30769231      -0.46153846       0.15384615 </v>
    <v>       0.38461538      -0.46153846       0.15384615 </v>
    <v>       0.30769231      -0.38461538       0.15384615 </v>
    <v>       0.38461538      -0.38461538       0.15384615 </v>
    <v>       0.46153846      -0.38461538       0.15384615 </v>
    <v>       0.38461538      -0.30769231       0.15384615 </v>
    <v>       0.46153846      -0.30769231       0.15384615 </v>
    <v>       0.38461538      -0.23076923       0.15384615 </v>
    <v>       0.00000000       0.23076923       0.23076923 </v>
    <v>       0.46153846       0.23076923       0.23076923 </v>
    <v>      -0.46153846       0.23076923       0.23076923 </v>
    <v>      -0.38461538       0.23076923       0.23076923 </v>
    <v>      -0.30769231       0.23076923       0.23076923 </v>
    <v>      -0.23076923       0.23076923       0.23076923 </v>
    <v>      -0.15384615       0.23076923       0.23076923 </v>
    <v>      -0.07692308       0.23076923       0.23076923 </v>
    <v>      -0.46153846       0.30769231       0.23076923 </v>
    <v>      -0.38461538       0.30769231       0.23076923 </v>
    <v>      -0.30769231       0.30769231       0.23076923 </v>
    <v>      -0.23076923       0.30769231       0.23076923 </v>
    <v>      -0.15384615       0.30769231       0.23076923 </v>
    <v>      -0.07692308       0.30769231       0.23076923 </v>
    <v>      -0.38461538       0.38461538       0.23076923 </v>
    <v>      -0.30769231       0.38461538       0.23076923 </v>
    <v>      -0.23076923       0.38461538       0.23076923 </v>
    <v>      -0.15384615       0.38461538       0.23076923 </v>
    <v>      -0.30769231       0.46153846       0.23076923 </v>
    <v>      -0.23076923       0.46153846       0.23076923 </v>
    <v>       0.46153846      -0.30769231       0.23076923 </v>
    <v>       0.00000000       0.30769231       0.30769231 </v>
    <v>      -0.38461538       0.30769231       0.30769231 </v>
    <v>      -0.30769231       0.30769231       0.30769231 </v>
    <v>      -0.23076923       0.30769231       0.30769231 </v>
    <v>      -0.15384615       0.30769231       0.30769231 </v>
    <v>      -0.07692308       0.30769231       0.30769231 </v>
    <v>      -0.30769231       0.38461538       0.30769231 </v>
    <v>      -0.23076923       0.38461538       0.30769231 </v>
    <v>      -0.15384615       0.38461538       0.30769231 </v>
    <v>      -0.07692308       0.38461538       0.30769231 </v>
    <v>      -0.23076923       0.46153846       0.30769231 </v>
    <v>      -0.15384615       0.46153846       0.30769231 </v>
    <v>      -0.00000000       0.38461538       0.38461538 </v>
    <v>      -0.23076923       0.38461538       0.38461538 </v>
    <v>      -0.15384615       0.38461538       0.38461538 </v>
    <v>      -0.07692308       0.38461538       0.38461538 </v>
    <v>      -0.15384615       0.46153846       0.38461538 </v>
    <v>      -0.07692308       0.46153846       0.38461538 </v>
    <v>       0.00000000       0.46153846       0.46153846 </v>
    <v>      -0.07692308       0.46153846       0.46153846 </v>
   </varray>
   <varray name="weights" >
    <v>       0.00045517 </v>
    <v>       0.00364133 </v>
    <v>       0.00364133 </v>
    <v>       0.00364133 </v>
    <v>       0.00364133 </v>
    <v>       0.00364133 </v>
    <v>       0.00364133 </v>
    <v>       0.00182066 </v>
    <v>       0.00728266 </v>
    <v>       0.00728266 </v>
    <v>       0.00728266 </v>
    <v>       0.00728266 </v>
    <v>       0.00728266 </v>
    <v>       0.00728266 </v>
    <v>       0.00728266 </v>
    <v>       0.00728266 </v>
    <v>       0.00728266 </v>
    <v>       0.00728266 </v>
    <v>       0.00364133 </v>
    <v>       0.00182066 </v>
    <v>       0.00728266 </v>
    <v>       0.00728266 </v>
    <v>       0.00728266 </v>
    <v>       0.00728266 </v>
    <v>       0.00728266 </v>
    <v>       0.00728266 </v>
    <v>       0.00728266 </v>
    <v>       0.00728266 </v>
    <v>       0.00364133 </v>
    <v>       0.00182066 </v>
    <v>       0.00728266 </v>
    <v>       0.00728266 </v>
    <v>       0.00728266 </v>
    <v>       0.00728266 </v>
    <v>       0.00728266 </v>
    <v>       0.00728266 </v>
    <v>       0.00364133 </v>
    <v>       0.00182066 </v>
    <v>       0.00728266 </v>
    <v>       0.00728266 </v>
    <v>       0.00728266 </v>
    <v>       0.00728266 </v>
    <v>       0.00364133 </v>
    <v>       0.00182066 </v>
    <v>       0.00728266 </v>
    <v>       0.00728266 </v>
    <v>       0.00364133 </v>
    <v>       0.00182066 </v>
    <v>       0.00364133 </v>
    <v>       0.00091033 </v>
    <v>       0.00182066 </v>
    <v>       0.00364133 </v>
    <v>       0.00364133 </v>
    <v>       0.00364133 </v>
    <v>       0.00364133 </v>
    <v>       0.00364133 </v>
    <v>       0.00364133 </v>
    <v>       0.00364133 </v>
    <v>       0.00364133 </v>
    <v>       0.00364133 </v>
    <v>       0.00364133 </v>
    <v>       0.00364133 </v>
    <v>       0.00728266 </v>
    <v>       0.00728266 </v>
    <v>       0.00728266 </v>
    <v>       0.00728266 </v>
    <v>       0.00728266 </v>
    <v>       0.00728266 </v>
    <v>       0.00728266 </v>
    <v>       0.00728266 </v>
    <v>       0.00364133 </v>
    <v>       0.00364133 </v>
    <v>       0.00364133 </v>
    <v>       0.00728266 </v>
    <v>       0.00728266 </v>
    <v>       0.00728266 </v>
    <v>       0.00728266 </v>
    <v>       0.00728266 </v>
    <v>       0.00728266 </v>
    <v>       0.00364133 </v>
    <v>       0.00728266 </v>
    <v>       0.00364133 </v>
    <v>       0.00364133 </v>
    <v>       0.00728266 </v>
    <v>       0.00728266 </v>
    <v>       0.00728266 </v>
    <v>       0.00728266 </v>
    <v>       0.00364133 </v>
    <v>       0.00728266 </v>
    <v>       0.00728266 </v>
    <v>       0.00364133 </v>
    <v>       0.00364133 </v>
    <v>       0.00728266 </v>
    <v>       0.00728266 </v>
    <v>       0.00364133 </v>
    <v>       0.00728266 </v>
    <v>       0.00728266 </v>
    <v>       0.00728266 </v>
    <v>       0.00364133 </v>
    <v>       0.00364133 </v>
    <v>       0.00364133 </v>
    <v>       0.00728266 </v>
    <v>       0.00728266 </v>
    <v>       0.00728266 </v>
    <v>       0.00728266 </v>
    <v>       0.00364133 </v>
    <v>       0.00728266 </v>
    <v>       0.00728266 </v>
    <v>       0.00728266 </v>
    <v>       0.00364133 </v>
    <v>       0.00728266 </v>
    <v>       0.00728266 </v>
    <v>       0.00364133 </v>
    <v>       0.00728266 </v>
    <v>       0.00364133 </v>
    <v>       0.00364133 </v>
    <v>       0.00091033 </v>
    <v>       0.00182066 </v>
    <v>       0.00364133 </v>
    <v>       0.00364133 </v>
    <v>       0.00364133 </v>
    <v>       0.00364133 </v>
    <v>       0.00364133 </v>
    <v>       0.00364133 </v>
    <v>       0.00364133 </v>
    <v>       0.00364133 </v>
    <v>       0.00364133 </v>
    <v>       0.00728266 </v>
    <v>       0.00728266 </v>
    <v>       0.00728266 </v>
    <v>       0.00728266 </v>
    <v>       0.00728266 </v>
    <v>       0.00728266 </v>
    <v>       0.00364133 </v>
    <v>       0.00364133 </v>
    <v>       0.00728266 </v>
    <v>       0.00728266 </v>
    <v>       0.00728266 </v>
    <v>       0.00728266 </v>
    <v>       0.00364133 </v>
    <v>       0.00364133 </v>
    <v>       0.00728266 </v>
    <v>       0.00728266 </v>
    <v>       0.00364133 </v>
    <v>       0.00364133 </v>
    <v>       0.00364133 </v>
    <v>       0.00364133 </v>
    <v>       0.00728266 </v>
    <v>       0.00364133 </v>
    <v>       0.00728266 </v>
    <v>       0.00728266 </v>
    <v>       0.00364133 </v>
    <v>       0.00728266 </v>
    <v>       0.00364133 </v>
    <v>       0.00364133 </v>
    <v>       0.00091033 </v>
    <v>       0.00182066 </v>
    <v>       0.00364133 </v>
    <v>       0.00364133 </v>
    <v>       0.00364133 </v>
    <v>       0.00364133 </v>
    <v>       0.00364133 </v>
    <v>       0.00364133 </v>
    <v>       0.00364133 </v>
    <v>       0.00728266 </v>
    <v>       0.00728266 </v>
    <v>       0.00728266 </v>
    <v>       0.00728266 </v>
    <v>       0.00364133 </v>
    <v>       0.00364133 </v>
    <v>       0.00728266 </v>
    <v>       0.00728266 </v>
    <v>       0.00364133 </v>
    <v>       0.00364133 </v>
    <v>       0.00364133 </v>
    <v>       0.00364133 </v>
    <v>       0.00091033 </v>
    <v>       0.00182066 </v>
    <v>       0.00364133 </v>
    <v>       0.00364133 </v>
    <v>       0.00364133 </v>
    <v>       0.00364133 </v>
    <v>       0.00364133 </v>
    <v>       0.00728266 </v>
    <v>       0.00728266 </v>
    <v>       0.00364133 </v>
    <v>       0.00364133 </v>
    <v>       0.00364133 </v>
    <v>       0.00091033 </v>
    <v>       0.00182066 </v>
    <v>       0.00364133 </v>
    <v>       0.00364133 </v>
    <v>       0.00364133 </v>
    <v>       0.00364133 </v>
    <v>       0.00091033 </v>
    <v>       0.00182066 </v>
   </varray>
  </kpoints>
  <time name="totalsc">   39.37   40.82</time>
 </calculation>
 <calculation>
  <scstep>
   <time name="dav">    1.14    1.14</time>
   <time name="total">    1.51    1.53</time>
   <energy>
    <i name="alphaZ">    213.17936747 </i>
    <i name="ewald">  -3581.37921678 </i>
    <i name="hartreedc">   -783.59422062 </i>
    <i name="XCdc">     90.13818480 </i>
    <i name="pawpsdc">   4164.78477799 </i>
    <i name="pawaedc">  -4097.51356722 </i>
    <i name="eentropy">     -0.00092168 </i>
    <i name="bandstr">   -124.83379712 </i>
    <i name="atom">   4095.35208632 </i>
    <i name="e_fr_energy">    -23.86730684 </i>
    <i name="e_wo_entrp">    -23.86638516 </i>
    <i name="e_0_energy">    -23.86684600 </i>
   </energy>
  </scstep>
  <scstep>
   <time name="dav">    1.62    1.62</time>
   <time name="total">    1.90    1.92</time>
   <energy>
    <i name="e_fr_energy">    -23.88101423 </i>
    <i name="e_wo_entrp">    -23.87950086 </i>
    <i name="e_0_energy">    -23.88025754 </i>
   </energy>
  </scstep>
  <scstep>
   <time name="dav">    1.48    1.48</time>
   <time name="total">    1.75    1.79</time>
   <energy>
    <i name="e_fr_energy">    -23.78167955 </i>
    <i name="e_wo_entrp">    -23.78027683 </i>
    <i name="e_0_energy">    -23.78097819 </i>
   </energy>
  </scstep>
  <scstep>
   <time name="dav">    1.67    1.67</time>
   <time name="total">    1.94    1.97</time>
   <energy>
    <i name="e_fr_energy">    -23.76909228 </i>
    <i name="e_wo_entrp">    -23.76748288 </i>
    <i name="e_0_energy">    -23.76828758 </i>
   </energy>
  </scstep>
  <scstep>
   <time name="dav">    1.88    1.88</time>
   <time name="total">    2.16    2.24</time>
   <energy>
    <i name="e_fr_energy">    -23.76598886 </i>
    <i name="e_wo_entrp">    -23.76429201 </i>
    <i name="e_0_energy">    -23.76514044 </i>
   </energy>
  </scstep>
  <scstep>
   <time name="dav">    1.64    1.64</time>
   <time name="total">    1.99    2.01</time>
   <energy>
    <i name="e_fr_energy">    -23.76559038 </i>
    <i name="e_wo_entrp">    -23.76387538 </i>
    <i name="e_0_energy">    -23.76473288 </i>
   </energy>
  </scstep>
  <scstep>
   <time name="dav">    1.74    1.74</time>
   <time name="total">    2.06    2.08</time>
   <energy>
    <i name="e_fr_energy">    -23.76557247 </i>
    <i name="e_wo_entrp">    -23.76387024 </i>
    <i name="e_0_energy">    -23.76472136 </i>
   </energy>
  </scstep>
  <scstep>
   <time name="dav">    1.58    1.58</time>
   <time name="total">    1.85    1.87</time>
   <energy>
    <i name="e_fr_energy">    -23.76558428 </i>
    <i name="e_wo_entrp">    -23.76388242 </i>
    <i name="e_0_energy">    -23.76473335 </i>
   </energy>
  </scstep>
  <scstep>
   <time name="dav">    1.61    1.61</time>
   <time name="total">    1.89    1.91</time>
   <energy>
    <i name="e_fr_energy">    -23.76558383 </i>
    <i name="e_wo_entrp">    -23.76388239 </i>
    <i name="e_0_energy">    -23.76473311 </i>
   </energy>
  </scstep>
  <scstep>
   <time name="dav">    1.73    1.73</time>
   <time name="total">    2.01    2.02</time>
   <energy>
    <i name="e_fr_energy">    -23.76558313 </i>
    <i name="e_wo_entrp">    -23.76388270 </i>
    <i name="e_0_energy">    -23.76473292 </i>
   </energy>
  </scstep>
[...]
       <r>    9.8316    1.0000 </r>
       <r>   10.1140    0.0006 </r>
       <r>   10.3029    0.0000 </r>
       <r>   10.3568    0.0000 </r>
       <r>   10.4505    0.0000 </r>
       <r>   10.5163    0.0000 </r>
      </set>
      <set comment="kpoint 81">
       <r>  -34.0238    1.0000 </r>
       <r>  -12.8483    1.0000 </r>
       <r>  -12.8313    1.0000 </r>
       <r>  -12.8043    1.0000 </r>
       <r>  -12.8010    1.0000 </r>
       <r>  -12.7941    1.0000 </r>
       <r>   -9.4542    1.0000 </r>
       <r>   -9.3944    1.0000 </r>
       <r>   -9.2983    1.0000 </r>
       <r>   -1.4484    1.0000 </r>
       <r>    4.5603    1.0000 </r>
       <r>    4.7939    1.0000 </r>
       <r>    5.2257    1.0000 </r>
       <r>    5.8617    1.0000 </r>
       <r>    6.0896    1.0000 </r>
       <r>    6.5984    1.0000 </r>
       <r>    6.9961    1.0000 </r>
       <r>    8.4470    1.0000 </r>
       <r>    9.8107    1.0000 </r>
       <r>   10.0972    0.1950 </r>
       <r>   10.2910    0.0000 </r>
       <r>   10.3468    0.0000 </r>
       <r>   10.4245    0.0000 </r>
       <r>   10.5347    0.0000 </r>
      </set>
      <set comment="kpoint 82">
       <r>  -34.0236    1.0000 </r>
       <r>  -12.8381    1.0000 </r>
       <r>  -12.8248    1.0000 </r>
       <r>  -12.8080    1.0000 </r>
       <r>  -12.7978    1.0000 </r>
       <r>  -12.7930    1.0000 </r>
       <r>   -9.4678    1.0000 </r>
       <r>   -9.3768    1.0000 </r>
       <r>   -9.3340    1.0000 </r>
       <r>   -1.5504    1.0000 </r>
       <r>    4.7822    1.0000 </r>
       <r>    5.0256    1.0000 </r>
       <r>    5.3499    1.0000 </r>
       <r>    5.8083    1.0000 </r>
       <r>    6.0748    1.0000 </r>
       <r>    6.2251    1.0000 </r>
       <r>    7.2722    1.0000 </r>
       <r>    8.5656    1.0000 </r>
       <r>    9.8908    1.0000 </r>
       <r>   10.1133    0.0008 </r>
       <r>   10.2423    0.0000 </r>
       <r>   10.4076    0.0000 </r>
       <r>   10.4832    0.0000 </r>
       <r>   10.5128    0.0000 </r>
      </set>
      <set comment="kpoint 83">
       <r>  -34.0235    1.0000 </r>
       <r>  -12.8423    1.0000 </r>
       <r>  -12.8250    1.0000 </r>
       <r>  -12.8062    1.0000 </r>
       <r>  -12.7997    1.0000 </r>
       <r>  -12.7930    1.0000 </r>
       <r>   -9.4557    1.0000 </r>
       <r>   -9.3929    1.0000 </r>
       <r>   -9.3254    1.0000 </r>
       <r>   -1.5167    1.0000 </r>
       <r>    4.7498    1.0000 </r>
       <r>    5.0401    1.0000 </r>
       <r>    5.3172    1.0000 </r>
       <r>    5.8307    1.0000 </r>
       <r>    6.1042    1.0000 </r>
       <r>    6.3112    1.0000 </r>
       <r>    6.9394    1.0000 </r>
       <r>    8.5585    1.0000 </r>
       <r>    9.8720    1.0000 </r>
       <r>   10.1237    0.0000 </r>
       <r>   10.2745    0.0000 </r>
       <r>   10.4197    0.0000 </r>
       <r>   10.4639    0.0000 </r>
       <r>   10.4893    0.0000 </r>
      </set>
      <set comment="kpoint 84">
       <r>  -34.0235    1.0000 </r>
       <r>  -12.8448    1.0000 </r>
       <r>  -12.8248    1.0000 </r>
       <r>  -12.8051    1.0000 </r>
       <r>  -12.8016    1.0000 </r>
       <r>  -12.7928    1.0000 </r>
       <r>   -9.4459    1.0000 </r>
       <r>   -9.3985    1.0000 </r>
       <r>   -9.3260    1.0000 </r>
       <r>   -1.4979    1.0000 </r>
       <r>    4.7163    1.0000 </r>
       <r>    4.9983    1.0000 </r>
       <r>    5.3352    1.0000 </r>
       <r>    5.8499    1.0000 </r>
       <r>    6.1495    1.0000 </r>
       <r>    6.4494    1.0000 </r>
       <r>    6.6740    1.0000 </r>
       <r>    8.5771    1.0000 </r>
       <r>    9.8590    1.0000 </r>
       <r>   10.1349    0.0000 </r>
       <r>   10.3127    0.0000 </r>
       <r>   10.3722    0.0000 </r>
       <r>   10.4578    0.0000 </r>
       <r>   10.5048    0.0000 </r>
      </set>
     </set>
    </set>
   </array>
  </eigenvalues>
  <separator name="orbital magnetization" >
   <v name="MAGDIPOLOUT">      0.00000000      0.00000000      0.00000000</v>
  </separator>
  <dos>
   <i name="efermi">     10.09147924 </i>
   <total>
    <array>
     <dimension dim="1">gridpoints</dimension>
     <dimension dim="2">spin</dimension>
     <field>energy</field>
     <field>total</field>
     <field>integrated</field>
     <set>
      <set comment="spin 1">
       <r>   -36.2687     0.0000     0.0000 </r>
       <r>   -36.1045     0.0000     0.0000 </r>
       <r>   -35.9403     0.0000     0.0000 </r>
       <r>   -35.7761     0.0000     0.0000 </r>
       <r>   -35.6119     0.0000     0.0000 </r>
       <r>   -35.4477     0.0000     0.0000 </r>
       <r>   -35.2834     0.0000     0.0000 </r>
       <r>   -35.1192     0.0000     0.0000 </r>
       <r>   -34.9550     0.0000     0.0000 </r>
       <r>   -34.7908     0.0000     0.0000 </r>
       <r>   -34.6266     0.0000     0.0000 </r>
       <r>   -34.4624     0.0000     0.0000 </r>
       <r>   -34.2982     0.0000     0.0000 </r>
       <r>   -34.1339     0.0000     0.0000 </r>
       <r>   -33.9697    12.1793     2.0000 </r>
       <r>   -33.8055     0.0000     2.0000 </r>
       <r>   -33.6413     0.0000     2.0000 </r>
       <r>   -33.4771     0.0000     2.0000 </r>
       <r>   -33.3129     0.0000     2.0000 </r>
       <r>   -33.1487     0.0000     2.0000 </r>
       <r>   -32.9845     0.0000     2.0000 </r>
       <r>   -32.8202     0.0000     2.0000 </r>
       <r>   -32.6560     0.0000     2.0000 </r>
       <r>   -32.4918     0.0000     2.0000 </r>
       <r>   -32.3276     0.0000     2.0000 </r>
       <r>   -32.1634     0.0000     2.0000 </r>
       <r>   -31.9992     0.0000     2.0000 </r>
       <r>   -31.8350     0.0000     2.0000 </r>
       <r>   -31.6707     0.0000     2.0000 </r>
       <r>   -31.5065     0.0000     2.0000 </r>
       <r>   -31.3423     0.0000     2.0000 </r>
       <r>   -31.1781     0.0000     2.0000 </r>
       <r>   -31.0139     0.0000     2.0000 </r>
       <r>   -30.8497     0.0000     2.0000 </r>
       <r>   -30.6855     0.0000     2.0000 </r>
       <r>   -30.5213     0.0000     2.0000 </r>
       <r>   -30.3570     0.0000     2.0000 </r>
       <r>   -30.1928     0.0000     2.0000 </r>
       <r>   -30.0286     0.0000     2.0000 </r>
       <r>   -29.8644     0.0000     2.0000 </r>
       <r>   -29.7002     0.0000     2.0000 </r>
       <r>   -29.5360     0.0000     2.0000 </r>
       <r>   -29.3718     0.0000     2.0000 </r>
       <r>   -29.2076     0.0000     2.0000 </r>
       <r>   -29.0433     0.0000     2.0000 </r>
       <r>   -28.8791     0.0000     2.0000 </r>
       <r>   -28.7149     0.0000     2.0000 </r>
       <r>   -28.5507     0.0000     2.0000 </r>
       <r>   -28.3865     0.0000     2.0000 </r>
       <r>   -28.2223     0.0000     2.0000 </r>
       <r>   -28.0581     0.0000     2.0000 </r>
       <r>   -27.8938     0.0000     2.0000 </r>
       <r>   -27.7296     0.0000     2.0000 </r>
       <r>   -27.5654     0.0000     2.0000 </r>
       <r>   -27.4012     0.0000     2.0000 </r>
       <r>   -27.2370     0.0000     2.0000 </r>
       <r>   -27.0728     0.0000     2.0000 </r>
       <r>   -26.9086     0.0000     2.0000 </r>
       <r>   -26.7444     0.0000     2.0000 </r>
       <r>   -26.5801     0.0000     2.0000 </r>
       <r>   -26.4159     0.0000     2.0000 </r>
       <r>   -26.2517     0.0000     2.0000 </r>
       <r>   -26.0875     0.0000     2.0000 </r>
       <r>   -25.9233     0.0000     2.0000 </r>
       <r>   -25.7591     0.0000     2.0000 </r>
       <r>   -25.5949     0.0000     2.0000 </r>
       <r>   -25.4306     0.0000     2.0000 </r>
       <r>   -25.2664     0.0000     2.0000 </r>
       <r>   -25.1022     0.0000     2.0000 </r>
       <r>   -24.9380     0.0000     2.0000 </r>
       <r>   -24.7738     0.0000     2.0000 </r>
       <r>   -24.6096     0.0000     2.0000 </r>
       <r>   -24.4454     0.0000     2.0000 </r>
       <r>   -24.2812     0.0000     2.0000 </r>
       <r>   -24.1169     0.0000     2.0000 </r>
       <r>   -23.9527     0.0000     2.0000 </r>
       <r>   -23.7885     0.0000     2.0000 </r>
       <r>   -23.6243     0.0000     2.0000 </r>
       <r>   -23.4601     0.0000     2.0000 </r>
       <r>   -23.2959     0.0000     2.0000 </r>
       <r>   -23.1317     0.0000     2.0000 </r>
       <r>   -22.9675     0.0000     2.0000 </r>
       <r>   -22.8032     0.0000     2.0000 </r>
       <r>   -22.6390     0.0000     2.0000 </r>
       <r>   -22.4748     0.0000     2.0000 </r>
       <r>   -22.3106     0.0000     2.0000 </r>
       <r>   -22.1464     0.0000     2.0000 </r>
       <r>   -21.9822     0.0000     2.0000 </r>
       <r>   -21.8180     0.0000     2.0000 </r>
       <r>   -21.6537     0.0000     2.0000 </r>
       <r>   -21.4895     0.0000     2.0000 </r>
       <r>   -21.3253     0.0000     2.0000 </r>
       <r>   -21.1611     0.0000     2.0000 </r>
       <r>   -20.9969     0.0000     2.0000 </r>
       <r>   -20.8327     0.0000     2.0000 </r>
       <r>   -20.6685     0.0000     2.0000 </r>
       <r>   -20.5043     0.0000     2.0000 </r>
       <r>   -20.3400     0.0000     2.0000 </r>
       <r>   -20.1758     0.0000     2.0000 </r>
       <r>   -20.0116     0.0000     2.0000 </r>
       <r>   -19.8474     0.0000     2.0000 </r>
       <r>   -19.6832     0.0000     2.0000 </r>
       <r>   -19.5190     0.0000     2.0000 </r>
       <r>   -19.3548     0.0000     2.0000 </r>
       <r>   -19.1905     0.0000     2.0000 </r>
       <r>   -19.0263     0.0000     2.0000 </r>
       <r>   -18.8621     0.0000     2.0000 </r>
       <r>   -18.6979     0.0000     2.0000 </r>
       <r>   -18.5337     0.0000     2.0000 </r>
       <r>   -18.3695     0.0000     2.0000 </r>
       <r>   -18.2053     0.0000     2.0000 </r>
       <r>   -18.0411     0.0000     2.0000 </r>
       <r>   -17.8768     0.0000     2.0000 </r>
       <r>   -17.7126     0.0000     2.0000 </r>
       <r>   -17.5484     0.0000     2.0000 </r>
       <r>   -17.3842     0.0000     2.0000 </r>
       <r>   -17.2200     0.0000     2.0000 </r>
       <r>   -17.0558     0.0000     2.0000 </r>
       <r>   -16.8916     0.0000     2.0000 </r>
       <r>   -16.7274     0.0000     2.0000 </r>
       <r>   -16.5631     0.0000     2.0000 </r>
       <r>   -16.3989     0.0000     2.0000 </r>
       <r>   -16.2347     0.0000     2.0000 </r>
       <r>   -16.0705     0.0000     2.0000 </r>
       <r>   -15.9063     0.0000     2.0000 </r>
       <r>   -15.7421     0.0000     2.0000 </r>
       <r>   -15.5779     0.0000     2.0000 </r>
       <r>   -15.4136     0.0000     2.0000 </r>
       <r>   -15.2494     0.0000     2.0000 </r>
       <r>   -15.0852     0.0000     2.0000 </r>
       <r>   -14.9210     0.0000     2.0000 </r>
       <r>   -14.7568     0.0000     2.0000 </r>
       <r>   -14.5926     0.0000     2.0000 </r>
       <r>   -14.4284     0.0000     2.0000 </r>
       <r>   -14.2642     0.0000     2.0000 </r>
       <r>   -14.0999     0.0000     2.0000 </r>
       <r>   -13.9357     0.0000     2.0000 </r>
       <r>   -13.7715     0.0000     2.0000 </r>
       <r>   -13.6073     0.0000     2.0000 </r>
       <r>   -13.4431     0.0000     2.0000 </r>
       <r>   -13.2789     0.0000     2.0000 </r>
       <r>   -13.1147     0.0000     2.0000 </r>
       <r>   -12.9504     0.0000     2.0000 </r>
       <r>   -12.7862    59.0642    11.6991 </r>
       <r>   -12.6220     0.0000    12.0000 </r>
       <r>   -12.4578     0.0000    12.0000 </r>
       <r>   -12.2936     0.0000    12.0000 </r>
       <r>   -12.1294     0.0000    12.0000 </r>
       <r>   -11.9652     0.0000    12.0000 </r>
       <r>   -11.8010     0.0000    12.0000 </r>
       <r>   -11.6367     0.0000    12.0000 </r>
       <r>   -11.4725     0.0000    12.0000 </r>
       <r>   -11.3083     0.0000    12.0000 </r>
       <r>   -11.1441     0.0000    12.0000 </r>
       <r>   -10.9799     0.0000    12.0000 </r>
       <r>   -10.8157     0.0000    12.0000 </r>
       <r>   -10.6515     0.0000    12.0000 </r>
       <r>   -10.4873     0.0000    12.0000 </r>
       <r>   -10.3230     0.0000    12.0000 </r>
       <r>   -10.1588     0.0000    12.0000 </r>
       <r>    -9.9946     0.0000    12.0000 </r>
       <r>    -9.8304     0.0000    12.0000 </r>
       <r>    -9.6662     0.0000    12.0000 </r>
       <r>    -9.5020     1.3335    12.2190 </r>
       <r>    -9.3378     8.9264    15.2810 </r>
       <r>    -9.1735     0.0000    18.0000 </r>
       <r>    -9.0093     0.0000    18.0000 </r>
       <r>    -8.8451     0.0000    18.0000 </r>
       <r>    -8.6809     0.0000    18.0000 </r>
       <r>    -8.5167     0.0000    18.0000 </r>
       <r>    -8.3525     0.0000    18.0000 </r>
       <r>    -8.1883     0.0000    18.0000 </r>
       <r>    -8.0241     0.0000    18.0000 </r>
       <r>    -7.8598     0.0000    18.0000 </r>
       <r>    -7.6956     0.0000    18.0000 </r>
       <r>    -7.5314     0.0000    18.0000 </r>
       <r>    -7.3672     0.0000    18.0000 </r>
       <r>    -7.2030     0.0000    18.0000 </r>
       <r>    -7.0388     0.0000    18.0000 </r>
       <r>    -6.8746     0.0000    18.0000 </r>
       <r>    -6.7103     0.0000    18.0000 </r>
       <r>    -6.5461     0.0000    18.0000 </r>
       <r>    -6.3819     0.0000    18.0000 </r>
       <r>    -6.2177     0.0000    18.0000 </r>
       <r>    -6.0535     0.0000    18.0000 </r>
       <r>    -5.8893     0.0000    18.0000 </r>
       <r>    -5.7251     0.0000    18.0000 </r>
       <r>    -5.5609     0.0000    18.0000 </r>
       <r>    -5.3966     0.0000    18.0000 </r>
       <r>    -5.2324     0.0000    18.0000 </r>
       <r>    -5.0682     0.0000    18.0000 </r>
       <r>    -4.9040     0.0000    18.0000 </r>
       <r>    -4.7398     0.0000    18.0000 </r>
       <r>    -4.5756     0.0000    18.0000 </r>
       <r>    -4.4114     0.0000    18.0000 </r>
       <r>    -4.2472     0.0000    18.0000 </r>
       <r>    -4.0829     0.0000    18.0000 </r>
       <r>    -3.9187     0.0000    18.0000 </r>
       <r>    -3.7545     0.0000    18.0000 </r>
       <r>    -3.5903     0.0000    18.0000 </r>
       <r>    -3.4261     0.0000    18.0000 </r>
       <r>    -3.2619     0.0000    18.0000 </r>
       <r>    -3.0977     0.0000    18.0000 </r>
       <r>    -2.9334     0.0000    18.0000 </r>
       <r>    -2.7692     0.0000    18.0000 </r>
       <r>    -2.6050     0.0000    18.0000 </r>
       <r>    -2.4408     0.0042    18.0007 </r>
       <r>    -2.2766     0.0432    18.0153 </r>
       <r>    -2.1124     0.0759    18.0589 </r>
       <r>    -1.9482     0.2086    18.1371 </r>
       <r>    -1.7840     0.5384    18.2423 </r>
       <r>    -1.6197     1.0909    18.4805 </r>
       <r>    -1.4555     2.8658    19.2653 </r>
       <r>    -1.2913     1.1565    19.8913 </r>
       <r>    -1.1271     0.0000    20.0000 </r>
       <r>    -0.9629     0.0000    20.0000 </r>
       <r>    -0.7987     0.0000    20.0000 </r>
       <r>    -0.6345     0.0000    20.0000 </r>
       <r>    -0.4702     0.0000    20.0000 </r>
       <r>    -0.3060     0.0000    20.0000 </r>
       <r>    -0.1418     0.0000    20.0000 </r>
       <r>     0.0224     0.0000    20.0000 </r>
       <r>     0.1866     0.0000    20.0000 </r>
       <r>     0.3508     0.0000    20.0000 </r>
       <r>     0.5150     0.0000    20.0000 </r>
       <r>     0.6792     0.0000    20.0000 </r>
       <r>     0.8435     0.0000    20.0000 </r>
       <r>     1.0077     0.0000    20.0000 </r>
       <r>     1.1719     0.0000    20.0000 </r>
       <r>     1.3361     0.0000    20.0000 </r>
       <r>     1.5003     0.0000    20.0000 </r>
       <r>     1.6645     0.0000    20.0000 </r>
       <r>     1.8287     0.0000    20.0000 </r>
       <r>     1.9930     0.0000    20.0000 </r>
       <r>     2.1572     0.0000    20.0000 </r>
       <r>     2.3214     0.0000    20.0000 </r>
       <r>     2.4856     0.0000    20.0000 </r>
       <r>     2.6498     0.0000    20.0000 </r>
       <r>     2.8140     0.0000    20.0000 </r>
       <r>     2.9782     0.0000    20.0000 </r>
       <r>     3.1424     0.0000    20.0000 </r>
       <r>     3.3067     0.0000    20.0000 </r>
       <r>     3.4709     0.0000    20.0000 </r>
       <r>     3.6351     0.0000    20.0000 </r>
       <r>     3.7993     0.0441    20.0072 </r>
       <r>     3.9635     0.4249    20.1208 </r>
       <r>     4.1277     1.5772    20.6723 </r>
       <r>     4.2919     1.1106    21.1146 </r>
       <r>     4.4561     1.4877    21.3804 </r>
       <r>     4.6204     0.3033    21.5245 </r>
       <r>     4.7846     1.5454    21.9106 </r>
       <r>     4.9488     3.5595    23.1262 </r>
       <r>     5.1130     2.8918    24.0343 </r>
       <r>     5.2772     2.5369    24.9610 </r>
       <r>     5.4414     2.1050    25.8240 </r>
       <r>     5.6056     0.0824    26.0245 </r>
       <r>     5.7699     0.8067    26.2035 </r>
       <r>     5.9341     5.0692    28.2125 </r>
       <r>     6.0983     4.7231    29.6359 </r>
       <r>     6.2625     0.6432    30.2713 </r>
       <r>     6.4267     1.2089    30.7210 </r>
       <r>     6.5909     1.2346    31.2350 </r>
       <r>     6.7551     0.6652    31.5294 </r>
       <r>     6.9193     0.5728    31.7436 </r>
       <r>     7.0836     0.5555    31.9501 </r>
       <r>     7.2478     0.3248    32.0979 </r>
       <r>     7.4120     0.2659    32.4324 </r>
       <r>     7.5762     0.3489    32.6062 </r>
       <r>     7.7404     1.1789    32.9883 </r>
       <r>     7.9046     0.4650    33.1660 </r>
       <r>     8.0688     1.6569    33.5038 </r>
       <r>     8.2331     0.3256    33.6256 </r>
       <r>     8.3973     4.0688    34.4697 </r>
       <r>     8.5615     2.8013    35.7363 </r>
       <r>     8.7257     0.1120    35.9437 </r>
       <r>     8.8899     0.1554    35.9982 </r>
       <r>     9.0541     0.0000    36.0009 </r>
       <r>     9.2183     0.0443    36.0082 </r>
       <r>     9.3825     0.1458    36.0540 </r>
       <r>     9.5468     1.6731    36.4941 </r>
       <r>     9.7110     2.2367    37.1547 </r>
       <r>     9.8752     2.1237    37.8845 </r>
       <r>    10.0394     0.8679    38.1371 </r>
       <r>    10.2036     6.2721    41.1847 </r>
       <r>    10.3678     9.4825    43.6391 </r>
       <r>    10.5320     8.3471    46.8145 </r>
       <r>    10.6962     1.0750    47.9835 </r>
       <r>    10.8605     0.0000    48.0000 </r>
       <r>    11.0247     0.0000    48.0000 </r>
       <r>    11.1889     0.0000    48.0000 </r>
       <r>    11.3531     0.0000    48.0000 </r>
       <r>    11.5173     0.0000    48.0000 </r>
       <r>    11.6815     0.0000    48.0000 </r>
       <r>    11.8457     0.0000    48.0000 </r>
       <r>    12.0100     0.0000    48.0000 </r>
       <r>    12.1742     0.0000    48.0000 </r>
       <r>    12.3384     0.0000    48.0000 </r>
       <r>    12.5026     0.0000    48.0000 </r>
       <r>    12.6668     0.0000    48.0000 </r>
       <r>    12.8310     0.0000    48.0000 </r>
       <r>    12.9952     0.0000    48.0000 </r>
      </set>
     </set>
    </array>
   </total>
  </dos>
 </calculation>
 <structure name="finalpos" >
  <crystal>
   <varray name="basis" >
    <v>       0.00000000       3.31764100       3.31764100 </v>
    <v>       3.31764100       0.00000000       3.31764100 </v>
    <v>       3.31764100       3.31764100       0.00000000 </v>
   </varray>
   <i name="volume">     73.03283578 </i>
   <varray name="rec_basis" >
    <v>      -0.15070950       0.15070950       0.15070950 </v>
    <v>       0.15070950      -0.15070950       0.15070950 </v>
    <v>       0.15070950       0.15070950      -0.15070950 </v>
   </varray>
  </crystal>
  <varray name="positions" >
   <v>       0.25000000       0.25000000       0.25000000 </v>
   <v>       0.75000000       0.75000000       0.75000000 </v>
   <v>       0.00301419      -0.00301419      -0.00301419 </v>
  </varray>
 </structure>
</modeling>
