   2   2   0   0
  0.2450892E+02  0.4107930E-09  0.4107930E-09  0.4107930E-09  0.0000000E+00
   1.0000000000000000E-004
  CAR 
 unknown system                          
     20.42951531    -24.26863396  301     -1.21302827      1.00000000
    -24.269  0.0000E+00  0.0000E+00
    -24.120  0.0000E+00  0.0000E+00
    -23.971  0.0000E+00  0.0000E+00
    -23.822  0.0000E+00  0.0000E+00
    -23.673  0.0000E+00  0.0000E+00
    -23.524  0.0000E+00  0.0000E+00
    -23.375  0.0000E+00  0.0000E+00
    -23.226  0.0000E+00  0.0000E+00
    -23.077  0.0000E+00  0.0000E+00
    -22.928  0.0000E+00  0.0000E+00
    -22.779  0.0000E+00  0.0000E+00
    -22.630  0.0000E+00  0.0000E+00
    -22.481  0.0000E+00  0.0000E+00
    -22.332  0.0000E+00  0.0000E+00
    -22.183  0.4027E+02  0.6000E+01
    -22.034  0.0000E+00  0.6000E+01
    -21.885  0.0000E+00  0.6000E+01
    -21.736  0.0000E+00  0.6000E+01
    -21.587  0.0000E+00  0.6000E+01
    -21.438  0.0000E+00  0.6000E+01
    -21.289  0.0000E+00  0.6000E+01
    -21.140  0.0000E+00  0.6000E+01
    -20.991  0.0000E+00  0.6000E+01
    -20.842  0.0000E+00  0.6000E+01
    -20.693  0.0000E+00  0.6000E+01
    -20.544  0.0000E+00  0.6000E+01
    -20.395  0.0000E+00  0.6000E+01
    -20.246  0.0000E+00  0.6000E+01
    -20.097  0.0000E+00  0.6000E+01
    -19.948  0.0000E+00  0.6000E+01
    -19.799  0.0000E+00  0.6000E+01
    -19.650  0.0000E+00  0.6000E+01
    -19.501  0.0000E+00  0.6000E+01
    -19.352  0.0000E+00  0.6000E+01
    -19.203  0.0000E+00  0.6000E+01
    -19.054  0.0000E+00  0.6000E+01
    -18.905  0.0000E+00  0.6000E+01
    -18.756  0.0000E+00  0.6000E+01
    -18.607  0.0000E+00  0.6000E+01
    -18.458  0.0000E+00  0.6000E+01
    -18.309  0.0000E+00  0.6000E+01
    -18.160  0.0000E+00  0.6000E+01
    -18.011  0.0000E+00  0.6000E+01
    -17.862  0.0000E+00  0.6000E+01
    -17.713  0.0000E+00  0.6000E+01
    -17.564  0.0000E+00  0.6000E+01
    -17.415  0.0000E+00  0.6000E+01
    -17.266  0.0000E+00  0.6000E+01
    -17.117  0.0000E+00  0.6000E+01
    -16.968  0.0000E+00  0.6000E+01
    -16.819  0.0000E+00  0.6000E+01
    -16.670  0.0000E+00  0.6000E+01
    -16.521  0.0000E+00  0.6000E+01
    -16.372  0.0000E+00  0.6000E+01
    -16.223  0.0000E+00  0.6000E+01
    -16.074  0.0000E+00  0.6000E+01
    -15.925  0.0000E+00  0.6000E+01
    -15.776  0.0000E+00  0.6000E+01
    -15.627  0.0000E+00  0.6000E+01
    -15.478  0.0000E+00  0.6000E+01
    -15.329  0.0000E+00  0.6000E+01
    -15.180  0.0000E+00  0.6000E+01
    -15.031  0.0000E+00  0.6000E+01
    -14.882  0.0000E+00  0.6000E+01
    -14.733  0.0000E+00  0.6000E+01
    -14.584  0.0000E+00  0.6000E+01
    -14.435  0.0000E+00  0.6000E+01
    -14.286  0.0000E+00  0.6000E+01
    -14.137  0.0000E+00  0.6000E+01
    -13.988  0.0000E+00  0.6000E+01
    -13.839  0.0000E+00  0.6000E+01
    -13.690  0.0000E+00  0.6000E+01
    -13.541  0.4112E+01  0.6226E+01
    -13.392  0.3546E+02  0.7718E+01
    -13.243  0.9959E+00  0.8000E+01
    -13.094  0.0000E+00  0.8000E+01
    -12.945  0.0000E+00  0.8000E+01
    -12.796  0.0000E+00  0.8000E+01
    -12.647  0.0000E+00  0.8000E+01
    -12.498  0.0000E+00  0.8000E+01
    -12.349  0.0000E+00  0.8000E+01
    -12.200  0.0000E+00  0.8000E+01
    -12.051  0.0000E+00  0.8000E+01
    -11.902  0.0000E+00  0.8000E+01
    -11.753  0.0000E+00  0.8000E+01
    -11.604  0.0000E+00  0.8000E+01
    -11.455  0.0000E+00  0.8000E+01
    -11.306  0.0000E+00  0.8000E+01
    -11.157  0.0000E+00  0.8000E+01
    -11.008  0.0000E+00  0.8000E+01
    -10.859  0.0000E+00  0.8000E+01
    -10.710  0.0000E+00  0.8000E+01
    -10.561  0.0000E+00  0.8000E+01
    -10.412  0.0000E+00  0.8000E+01
    -10.263  0.0000E+00  0.8000E+01
    -10.114  0.0000E+00  0.8000E+01
     -9.965  0.0000E+00  0.8000E+01
     -9.816  0.0000E+00  0.8000E+01
     -9.667  0.0000E+00  0.8000E+01
     -9.518  0.0000E+00  0.8000E+01
     -9.369  0.0000E+00  0.8000E+01
     -9.220  0.0000E+00  0.8000E+01
     -9.071  0.0000E+00  0.8000E+01
     -8.922  0.0000E+00  0.8000E+01
     -8.773  0.0000E+00  0.8000E+01
     -8.624  0.0000E+00  0.8000E+01
     -8.475  0.0000E+00  0.8000E+01
     -8.326  0.0000E+00  0.8000E+01
     -8.177  0.0000E+00  0.8000E+01
     -8.028  0.0000E+00  0.8000E+01
     -7.879  0.0000E+00  0.8000E+01
     -7.730  0.0000E+00  0.8000E+01
     -7.581  0.0000E+00  0.8000E+01
     -7.432  0.0000E+00  0.8000E+01
     -7.283  0.0000E+00  0.8000E+01
     -7.134  0.0000E+00  0.8000E+01
     -6.985  0.0000E+00  0.8000E+01
     -6.836  0.0000E+00  0.8000E+01
     -6.687  0.0000E+00  0.8000E+01
     -6.538  0.0000E+00  0.8000E+01
     -6.389  0.0000E+00  0.8000E+01
     -6.240  0.0000E+00  0.8000E+01
     -6.091  0.0000E+00  0.8000E+01
     -5.942  0.0000E+00  0.8000E+01
     -5.793  0.0000E+00  0.8000E+01
     -5.644  0.0000E+00  0.8000E+01
     -5.495  0.0000E+00  0.8000E+01
     -5.346  0.0000E+00  0.8000E+01
     -5.197  0.0000E+00  0.8000E+01
     -5.048  0.0000E+00  0.8000E+01
     -4.899  0.0000E+00  0.8000E+01
     -4.750  0.0000E+00  0.8000E+01
     -4.601  0.0000E+00  0.8000E+01
     -4.452  0.0000E+00  0.8000E+01
     -4.303  0.0000E+00  0.8000E+01
     -4.154  0.0000E+00  0.8000E+01
     -4.005  0.0000E+00  0.8000E+01
     -3.856  0.0000E+00  0.8000E+01
     -3.707  0.0000E+00  0.8000E+01
     -3.558  0.0000E+00  0.8000E+01
     -3.409  0.0000E+00  0.8000E+01
     -3.261  0.0000E+00  0.8000E+01
     -3.112  0.0000E+00  0.8000E+01
     -2.963  0.0000E+00  0.8000E+01
     -2.814  0.7469E+00  0.8026E+01
     -2.665  0.1979E+01  0.8215E+01
     -2.516  0.8667E+01  0.8824E+01
     -2.367  0.3428E+01  0.9561E+01
     -2.218  0.1099E+01  0.9755E+01
     -2.069  0.2636E+01  0.1005E+02
     -1.920  0.2846E+01  0.1044E+02
     -1.771  0.4497E+01  0.1093E+02
     -1.622  0.8545E+01  0.1187E+02
     -1.473  0.9454E+01  0.1297E+02
     -1.324  0.5180E+01  0.1380E+02
     -1.175  0.7087E+00  0.1400E+02
     -1.026  0.0000E+00  0.1400E+02
     -0.877  0.0000E+00  0.1400E+02
     -0.728  0.0000E+00  0.1400E+02
     -0.579  0.0000E+00  0.1400E+02
     -0.430  0.0000E+00  0.1400E+02
     -0.281  0.0000E+00  0.1400E+02
     -0.132  0.0000E+00  0.1400E+02
      0.017  0.0000E+00  0.1400E+02
      0.166  0.0000E+00  0.1400E+02
      0.315  0.0000E+00  0.1400E+02
      0.464  0.0000E+00  0.1400E+02
      0.613  0.0000E+00  0.1400E+02
      0.762  0.0000E+00  0.1400E+02
      0.911  0.0000E+00  0.1400E+02
      1.060  0.0000E+00  0.1400E+02
      1.209  0.0000E+00  0.1400E+02
      1.358  0.0000E+00  0.1400E+02
      1.507  0.0000E+00  0.1400E+02
      1.656  0.0000E+00  0.1400E+02
      1.805  0.0000E+00  0.1400E+02
      1.954  0.0000E+00  0.1400E+02
      2.103  0.0000E+00  0.1400E+02
      2.252  0.0000E+00  0.1400E+02
      2.401  0.0000E+00  0.1400E+02
      2.550  0.0000E+00  0.1400E+02
      2.699  0.0000E+00  0.1400E+02
      2.848  0.0000E+00  0.1400E+02
      2.997  0.0000E+00  0.1400E+02
      3.146  0.0000E+00  0.1400E+02
      3.295  0.0000E+00  0.1400E+02
      3.444  0.0000E+00  0.1400E+02
      3.593  0.5929E-03  0.1400E+02
      3.742  0.3758E-01  0.1400E+02
      3.891  0.5186E-01  0.1401E+02
      4.040  0.7301E-01  0.1402E+02
      4.189  0.9117E-01  0.1403E+02
      4.338  0.1099E+00  0.1405E+02
      4.487  0.1308E+00  0.1406E+02
      4.636  0.1529E+00  0.1408E+02
      4.785  0.1774E+00  0.1411E+02
      4.934  0.2051E+00  0.1414E+02
      5.083  0.2358E+00  0.1417E+02
      5.232  0.2717E+00  0.1421E+02
      5.381  0.3172E+00  0.1425E+02
      5.530  0.3740E+00  0.1430E+02
      5.679  0.4421E+00  0.1436E+02
      5.828  0.5789E+00  0.1444E+02
      5.977  0.8426E+00  0.1454E+02
      6.126  0.1033E+01  0.1467E+02
      6.275  0.1204E+01  0.1485E+02
      6.424  0.1217E+01  0.1503E+02
      6.573  0.1182E+01  0.1521E+02
      6.722  0.1156E+01  0.1539E+02
      6.871  0.1078E+01  0.1555E+02
      7.020  0.1191E+01  0.1571E+02
      7.169  0.1327E+01  0.1590E+02
      7.318  0.1118E+01  0.1610E+02
      7.467  0.7121E+00  0.1621E+02
      7.616  0.1238E+01  0.1634E+02
      7.765  0.2756E+01  0.1667E+02
      7.914  0.1531E+01  0.1694E+02
      8.063  0.1401E+01  0.1716E+02
      8.212  0.1861E+01  0.1739E+02
      8.361  0.2504E+01  0.1771E+02
      8.510  0.2645E+01  0.1812E+02
      8.659  0.2895E+01  0.1850E+02
      8.808  0.2047E+01  0.1887E+02
      8.957  0.1666E+01  0.1915E+02
      9.106  0.1211E+01  0.1935E+02
      9.255  0.1022E+01  0.1952E+02
      9.404  0.8057E+00  0.1965E+02
      9.553  0.5286E+00  0.1975E+02
      9.702  0.8241E+00  0.1985E+02
      9.851  0.1114E+01  0.1999E+02
     10.000  0.2449E+01  0.2024E+02
     10.149  0.1831E+01  0.2051E+02
     10.298  0.2710E+01  0.2083E+02
     10.447  0.1932E+01  0.2120E+02
     10.596  0.1211E+01  0.2142E+02
     10.745  0.1113E+01  0.2159E+02
     10.894  0.1098E+01  0.2175E+02
     11.043  0.9486E+00  0.2191E+02
     11.192  0.8831E+00  0.2204E+02
     11.341  0.8286E+00  0.2217E+02
     11.490  0.7628E+00  0.2229E+02
     11.639  0.7515E+00  0.2240E+02
     11.788  0.9367E+00  0.2252E+02
     11.937  0.1137E+01  0.2268E+02
     12.086  0.1423E+01  0.2286E+02
     12.235  0.1734E+01  0.2311E+02
     12.384  0.1852E+01  0.2337E+02
     12.533  0.1751E+01  0.2365E+02
     12.682  0.1368E+01  0.2388E+02
     12.831  0.9267E+00  0.2406E+02
     12.980  0.8325E+00  0.2418E+02
     13.129  0.9644E+00  0.2432E+02
     13.278  0.9300E+00  0.2446E+02
     13.427  0.9355E+00  0.2459E+02
     13.576  0.9890E+00  0.2474E+02
     13.725  0.1968E+01  0.2492E+02
     13.874  0.1801E+01  0.2519E+02
     14.023  0.1978E+01  0.2547E+02
     14.172  0.1563E+01  0.2575E+02
     14.321  0.1665E+01  0.2598E+02
     14.470  0.1485E+01  0.2622E+02
     14.619  0.8460E+00  0.2638E+02
     14.768  0.7275E+00  0.2650E+02
     14.917  0.2131E+01  0.2669E+02
     15.066  0.2869E+01  0.2706E+02
     15.215  0.2587E+01  0.2749E+02
     15.364  0.1698E+01  0.2780E+02
     15.513  0.1601E+01  0.2804E+02
     15.662  0.1916E+01  0.2831E+02
     15.811  0.2008E+01  0.2858E+02
     15.960  0.1964E+01  0.2889E+02
     16.109  0.2077E+01  0.2919E+02
     16.258  0.2096E+01  0.2950E+02
     16.407  0.2081E+01  0.2981E+02
     16.556  0.2003E+01  0.3012E+02
     16.705  0.1762E+01  0.3040E+02
     16.854  0.1427E+01  0.3062E+02
     17.003  0.1864E+01  0.3085E+02
     17.152  0.2440E+01  0.3119E+02
     17.301  0.2234E+01  0.3154E+02
     17.450  0.1243E+01  0.3181E+02
     17.599  0.5167E+00  0.3193E+02
     17.748  0.1387E+00  0.3197E+02
     17.897  0.7571E-01  0.3199E+02
     18.046  0.3738E-01  0.3200E+02
     18.195  0.1244E-01  0.3200E+02
     18.344  0.8848E-03  0.3200E+02
     18.493  0.0000E+00  0.3200E+02
     18.642  0.0000E+00  0.3200E+02
     18.791  0.0000E+00  0.3200E+02
     18.940  0.0000E+00  0.3200E+02
     19.089  0.0000E+00  0.3200E+02
     19.238  0.0000E+00  0.3200E+02
     19.387  0.0000E+00  0.3200E+02
     19.536  0.0000E+00  0.3200E+02
     19.685  0.0000E+00  0.3200E+02
     19.834  0.0000E+00  0.3200E+02
     19.983  0.0000E+00  0.3200E+02
     20.132  0.0000E+00  0.3200E+02
     20.281  0.0000E+00  0.3200E+02
     20.430  0.0000E+00  0.3200E+02
