   2   2   0   0
  0.2354465E+02  0.4053334E-09  0.4053334E-09  0.4053334E-09  0.0000000E+00
  1.000000000000000E-004
  CAR 
 unknown system                          
     14.60075557     -9.14229105  301      3.60970357      1.00000000
     -9.142  0.0000E+00  0.0000E+00
     -9.063  0.0000E+00  0.0000E+00
     -8.984  0.0000E+00  0.0000E+00
     -8.905  0.0000E+00  0.0000E+00
     -8.826  0.0000E+00  0.0000E+00
     -8.747  0.0000E+00  0.0000E+00
     -8.667  0.0000E+00  0.0000E+00
     -8.588  0.0000E+00  0.0000E+00
     -8.509  0.0000E+00  0.0000E+00
     -8.430  0.0000E+00  0.0000E+00
     -8.351  0.0000E+00  0.0000E+00
     -8.272  0.0000E+00  0.0000E+00
     -8.193  0.0000E+00  0.0000E+00
     -8.113  0.0000E+00  0.0000E+00
     -8.034  0.9086E-01  0.1117E-02
     -7.955  0.1769E+00  0.1186E-01
     -7.876  0.2478E+00  0.2893E-01
     -7.797  0.3063E+00  0.5074E-01
     -7.718  0.3558E+00  0.7699E-01
     -7.639  0.4103E+00  0.1073E+00
     -7.559  0.4579E+00  0.1416E+00
     -7.480  0.5112E+00  0.1799E+00
     -7.401  0.5648E+00  0.2224E+00
     -7.322  0.6230E+00  0.2694E+00
     -7.243  0.6870E+00  0.3212E+00
     -7.164  0.7588E+00  0.3784E+00
     -7.085  0.8383E+00  0.4415E+00
     -7.005  0.9408E+00  0.5118E+00
     -6.926  0.1062E+01  0.5909E+00
     -6.847  0.1228E+01  0.6809E+00
     -6.768  0.1505E+01  0.7880E+00
     -6.689  0.1977E+01  0.9275E+00
     -6.610  0.1931E+01  0.1082E+01
     -6.531  0.1960E+01  0.1236E+01
     -6.451  0.1998E+01  0.1393E+01
     -6.372  0.2097E+01  0.1554E+01
     -6.293  0.2280E+01  0.1726E+01
     -6.214  0.3838E+01  0.1931E+01
     -6.135  0.0000E+00  0.2000E+01
     -6.056  0.0000E+00  0.2000E+01
     -5.977  0.0000E+00  0.2000E+01
     -5.897  0.0000E+00  0.2000E+01
     -5.818  0.0000E+00  0.2000E+01
     -5.739  0.0000E+00  0.2000E+01
     -5.660  0.0000E+00  0.2000E+01
     -5.581  0.0000E+00  0.2000E+01
     -5.502  0.0000E+00  0.2000E+01
     -5.423  0.0000E+00  0.2000E+01
     -5.343  0.0000E+00  0.2000E+01
     -5.264  0.0000E+00  0.2000E+01
     -5.185  0.0000E+00  0.2000E+01
     -5.106  0.0000E+00  0.2000E+01
     -5.027  0.0000E+00  0.2000E+01
     -4.948  0.0000E+00  0.2000E+01
     -4.869  0.0000E+00  0.2000E+01
     -4.789  0.0000E+00  0.2000E+01
     -4.710  0.0000E+00  0.2000E+01
     -4.631  0.0000E+00  0.2000E+01
     -4.552  0.0000E+00  0.2000E+01
     -4.473  0.0000E+00  0.2000E+01
     -4.394  0.0000E+00  0.2000E+01
     -4.315  0.0000E+00  0.2000E+01
     -4.235  0.0000E+00  0.2000E+01
     -4.156  0.0000E+00  0.2000E+01
     -4.077  0.0000E+00  0.2000E+01
     -3.998  0.0000E+00  0.2000E+01
     -3.919  0.0000E+00  0.2000E+01
     -3.840  0.0000E+00  0.2000E+01
     -3.761  0.0000E+00  0.2000E+01
     -3.681  0.0000E+00  0.2000E+01
     -3.602  0.0000E+00  0.2000E+01
     -3.523  0.0000E+00  0.2000E+01
     -3.444  0.0000E+00  0.2000E+01
     -3.365  0.0000E+00  0.2000E+01
     -3.286  0.0000E+00  0.2000E+01
     -3.207  0.0000E+00  0.2000E+01
     -3.127  0.0000E+00  0.2000E+01
     -3.048  0.0000E+00  0.2000E+01
     -2.969  0.0000E+00  0.2000E+01
     -2.890  0.0000E+00  0.2000E+01
     -2.811  0.0000E+00  0.2000E+01
     -2.732  0.0000E+00  0.2000E+01
     -2.653  0.0000E+00  0.2000E+01
     -2.573  0.0000E+00  0.2000E+01
     -2.494  0.0000E+00  0.2000E+01
     -2.415  0.0000E+00  0.2000E+01
     -2.336  0.0000E+00  0.2000E+01
     -2.257  0.0000E+00  0.2000E+01
     -2.178  0.0000E+00  0.2000E+01
     -2.099  0.0000E+00  0.2000E+01
     -2.019  0.0000E+00  0.2000E+01
     -1.940  0.0000E+00  0.2000E+01
     -1.861  0.0000E+00  0.2000E+01
     -1.782  0.1930E+00  0.2004E+01
     -1.703  0.5824E+00  0.2033E+01
     -1.624  0.1109E+01  0.2100E+01
     -1.545  0.1715E+01  0.2210E+01
     -1.465  0.3437E+01  0.2396E+01
     -1.386  0.3166E+01  0.2742E+01
     -1.307  0.1742E+01  0.2927E+01
     -1.228  0.1291E+01  0.3047E+01
     -1.149  0.1050E+01  0.3137E+01
     -1.070  0.8868E+00  0.3214E+01
     -0.991  0.7529E+00  0.3278E+01
     -0.911  0.6790E+00  0.3335E+01
     -0.832  0.6088E+00  0.3386E+01
     -0.753  0.5326E+00  0.3431E+01
     -0.674  0.4947E+00  0.3471E+01
     -0.595  0.4586E+00  0.3509E+01
     -0.516  0.4190E+00  0.3544E+01
     -0.437  0.3770E+00  0.3576E+01
     -0.357  0.3538E+00  0.3604E+01
     -0.278  0.3332E+00  0.3632E+01
     -0.199  0.3116E+00  0.3657E+01
     -0.120  0.2899E+00  0.3681E+01
     -0.041  0.2653E+00  0.3703E+01
      0.038  0.2477E+00  0.3723E+01
      0.117  0.2355E+00  0.3742E+01
      0.197  0.2229E+00  0.3760E+01
      0.276  0.5347E+00  0.3788E+01
      0.355  0.8780E+00  0.3847E+01
      0.434  0.1596E+01  0.3932E+01
      0.513  0.1401E+01  0.4047E+01
      0.592  0.1257E+01  0.4153E+01
      0.672  0.1188E+01  0.4249E+01
      0.751  0.1145E+01  0.4341E+01
      0.830  0.1143E+01  0.4431E+01
      0.909  0.1085E+01  0.4520E+01
      0.988  0.1122E+01  0.4607E+01
      1.067  0.1187E+01  0.4698E+01
      1.146  0.1285E+01  0.4796E+01
      1.226  0.1315E+01  0.4898E+01
      1.305  0.1360E+01  0.5005E+01
      1.384  0.1485E+01  0.5118E+01
      1.463  0.1704E+01  0.5243E+01
      1.542  0.1923E+01  0.5390E+01
      1.621  0.1826E+01  0.5535E+01
      1.700  0.1803E+01  0.5679E+01
      1.780  0.1767E+01  0.5820E+01
      1.859  0.1772E+01  0.5961E+01
      1.938  0.1736E+01  0.6100E+01
      2.017  0.1705E+01  0.6236E+01
      2.096  0.1695E+01  0.6370E+01
      2.175  0.1678E+01  0.6504E+01
      2.254  0.1662E+01  0.6636E+01
      2.334  0.1648E+01  0.6767E+01
      2.413  0.1621E+01  0.6896E+01
      2.492  0.1615E+01  0.7024E+01
      2.571  0.1622E+01  0.7152E+01
      2.650  0.1622E+01  0.7281E+01
      2.729  0.1603E+01  0.7408E+01
      2.808  0.1273E+01  0.7526E+01
      2.888  0.1045E+01  0.7617E+01
      2.967  0.8997E+00  0.7694E+01
      3.046  0.7783E+00  0.7760E+01
      3.125  0.6765E+00  0.7817E+01
      3.204  0.5898E+00  0.7867E+01
      3.283  0.4982E+00  0.7911E+01
      3.362  0.4110E+00  0.7946E+01
      3.442  0.3146E+00  0.7976E+01
      3.521  0.1545E+00  0.7995E+01
      3.600  0.0000E+00  0.8000E+01
      3.679  0.0000E+00  0.8000E+01
      3.758  0.0000E+00  0.8000E+01
      3.837  0.0000E+00  0.8000E+01
      3.916  0.0000E+00  0.8000E+01
      3.996  0.0000E+00  0.8000E+01
      4.075  0.0000E+00  0.8000E+01
      4.154  0.0000E+00  0.8000E+01
      4.233  0.0000E+00  0.8000E+01
      4.312  0.0000E+00  0.8000E+01
      4.391  0.0000E+00  0.8000E+01
      4.470  0.0000E+00  0.8000E+01
      4.550  0.0000E+00  0.8000E+01
      4.629  0.0000E+00  0.8000E+01
      4.708  0.0000E+00  0.8000E+01
      4.787  0.0000E+00  0.8000E+01
      4.866  0.0000E+00  0.8000E+01
      4.945  0.0000E+00  0.8000E+01
      5.024  0.0000E+00  0.8000E+01
      5.104  0.5893E-02  0.8000E+01
      5.183  0.6397E-01  0.8003E+01
      5.262  0.1071E+00  0.8010E+01
      5.341  0.1441E+00  0.8020E+01
      5.420  0.1829E+00  0.8033E+01
      5.499  0.2262E+00  0.8049E+01
      5.578  0.2734E+00  0.8069E+01
      5.658  0.3456E+00  0.8093E+01
      5.737  0.4408E+00  0.8124E+01
      5.816  0.5450E+00  0.8163E+01
      5.895  0.6263E+00  0.8209E+01
      5.974  0.7530E+00  0.8264E+01
      6.053  0.8672E+00  0.8328E+01
      6.132  0.9763E+00  0.8401E+01
      6.212  0.1119E+01  0.8483E+01
      6.291  0.1286E+01  0.8579E+01
      6.370  0.1467E+01  0.8687E+01
      6.449  0.1649E+01  0.8810E+01
      6.528  0.1900E+01  0.8950E+01
      6.607  0.1895E+01  0.9104E+01
      6.686  0.1809E+01  0.9250E+01
      6.766  0.1759E+01  0.9391E+01
      6.845  0.1690E+01  0.9528E+01
      6.924  0.1533E+01  0.9656E+01
      7.003  0.1513E+01  0.9775E+01
      7.082  0.1275E+01  0.9886E+01
      7.161  0.1092E+01  0.9979E+01
      7.240  0.1027E+01  0.1006E+02
      7.320  0.1045E+01  0.1014E+02
      7.399  0.1076E+01  0.1023E+02
      7.478  0.8821E+00  0.1030E+02
      7.557  0.8180E+00  0.1037E+02
      7.636  0.7515E+00  0.1043E+02
      7.715  0.8219E+00  0.1049E+02
      7.794  0.8675E+00  0.1056E+02
      7.874  0.1168E+01  0.1064E+02
      7.953  0.1800E+01  0.1075E+02
      8.032  0.2830E+01  0.1094E+02
      8.111  0.2345E+01  0.1115E+02
      8.190  0.2153E+01  0.1133E+02
      8.269  0.1723E+01  0.1148E+02
      8.348  0.1538E+01  0.1161E+02
      8.428  0.1327E+01  0.1172E+02
      8.507  0.1463E+01  0.1183E+02
      8.586  0.1358E+01  0.1194E+02
      8.665  0.1292E+01  0.1204E+02
      8.744  0.1343E+01  0.1215E+02
      8.823  0.1312E+01  0.1226E+02
      8.902  0.1387E+01  0.1236E+02
      8.982  0.1584E+01  0.1248E+02
      9.061  0.1752E+01  0.1261E+02
      9.140  0.1856E+01  0.1276E+02
      9.219  0.1535E+01  0.1289E+02
      9.298  0.1628E+01  0.1302E+02
      9.377  0.1597E+01  0.1315E+02
      9.456  0.1647E+01  0.1328E+02
      9.536  0.1373E+01  0.1340E+02
      9.615  0.1229E+01  0.1350E+02
      9.694  0.1206E+01  0.1359E+02
      9.773  0.1187E+01  0.1369E+02
      9.852  0.1245E+01  0.1378E+02
      9.931  0.1205E+01  0.1388E+02
     10.010  0.1228E+01  0.1398E+02
     10.090  0.1220E+01  0.1408E+02
     10.169  0.1154E+01  0.1417E+02
     10.248  0.8957E+00  0.1425E+02
     10.327  0.9138E+00  0.1432E+02
     10.406  0.9555E+00  0.1440E+02
     10.485  0.9835E+00  0.1447E+02
     10.564  0.9829E+00  0.1455E+02
     10.644  0.9645E+00  0.1463E+02
     10.723  0.9952E+00  0.1470E+02
     10.802  0.1081E+01  0.1479E+02
     10.881  0.1147E+01  0.1488E+02
     10.960  0.1189E+01  0.1497E+02
     11.039  0.1204E+01  0.1506E+02
     11.118  0.1108E+01  0.1515E+02
     11.198  0.9929E+00  0.1524E+02
     11.277  0.1053E+01  0.1532E+02
     11.356  0.9310E+00  0.1540E+02
     11.435  0.7983E+00  0.1547E+02
     11.514  0.6967E+00  0.1552E+02
     11.593  0.4518E+00  0.1558E+02
     11.672  0.4207E+00  0.1561E+02
     11.752  0.3983E+00  0.1565E+02
     11.831  0.3775E+00  0.1568E+02
     11.910  0.3555E+00  0.1571E+02
     11.989  0.3309E+00  0.1573E+02
     12.068  0.3110E+00  0.1576E+02
     12.147  0.3057E+00  0.1578E+02
     12.226  0.3057E+00  0.1581E+02
     12.306  0.2758E+00  0.1583E+02
     12.385  0.2424E+00  0.1585E+02
     12.464  0.2177E+00  0.1587E+02
     12.543  0.1984E+00  0.1588E+02
     12.622  0.1837E+00  0.1590E+02
     12.701  0.1744E+00  0.1591E+02
     12.780  0.1626E+00  0.1593E+02
     12.860  0.1496E+00  0.1594E+02
     12.939  0.1473E+00  0.1595E+02
     13.018  0.1307E+00  0.1596E+02
     13.097  0.1114E+00  0.1597E+02
     13.176  0.8955E-01  0.1598E+02
     13.255  0.7063E-01  0.1599E+02
     13.334  0.5478E-01  0.1599E+02
     13.414  0.4198E-01  0.1599E+02
     13.493  0.4866E-01  0.1600E+02
     13.572  0.0000E+00  0.1600E+02
     13.651  0.0000E+00  0.1600E+02
     13.730  0.0000E+00  0.1600E+02
     13.809  0.0000E+00  0.1600E+02
     13.888  0.0000E+00  0.1600E+02
     13.968  0.0000E+00  0.1600E+02
     14.047  0.0000E+00  0.1600E+02
     14.126  0.0000E+00  0.1600E+02
     14.205  0.0000E+00  0.1600E+02
     14.284  0.0000E+00  0.1600E+02
     14.363  0.0000E+00  0.1600E+02
     14.442  0.0000E+00  0.1600E+02
     14.522  0.0000E+00  0.1600E+02
     14.601  0.0000E+00  0.1600E+02
