    2    2    1    1
  0.2354465E+02  0.4053334E-09  0.4053334E-09  0.4053334E-09  0.0000000E+00
  1.000000000000000E-004
  CAR 
 unknown system                          
      8    220      8
 
  0.0000000E+00  0.0000000E+00  0.0000000E+00  0.1457938E-03
    1       -8.063062   1.000000
    2        3.579343   1.000000
    3        3.579343   1.000000
    4        3.579343   1.000000
    5        5.367733   0.000000
    6        7.799331   0.000000
    7        7.799331   0.000000
    8        7.799332   0.000000
 
  0.5263158E-01  0.0000000E+00  0.0000000E+00  0.1166351E-02
    1       -8.036840   1.000000
    2        3.206695   1.000000
    3        3.548962   1.000000
    4        3.548962   1.000000
    5        5.655620   0.000000
    6        7.826521   0.000000
    7        7.854450   0.000000
    8        7.854450   0.000000
 
  0.1052632E+00  0.0000000E+00  0.0000000E+00  0.1166351E-02
    1       -7.959051   1.000000
    2        2.463921   1.000000
    3        3.465438   1.000000
    4        3.465439   1.000000
    5        6.070052   0.000000
    6        8.002085   0.000000
    7        8.002085   0.000000
    8        8.009960   0.000000
 
  0.1578947E+00  0.0000000E+00  0.0000000E+00  0.1166351E-02
    1       -7.832703   1.000000
    2        1.645204   1.000000
    3        3.347128   1.000000
    4        3.347128   1.000000
    5        6.221344   0.000000
    6        8.192008   0.000000
    7        8.192008   0.000000
    8        8.503289   0.000000
 
  0.2105263E+00  0.0000000E+00  0.0000000E+00  0.1166351E-02
    1       -7.663345   1.000000
    2        0.837267   1.000000
    3        3.214586   1.000000
    4        3.214586   1.000000
    5        6.152824   0.000000
    6        8.352885   0.000000
    7        8.352885   0.000000
    8        9.226055   0.000000
 
  0.2631579E+00  0.0000000E+00  0.0000000E+00  0.1166351E-02
    1       -7.460337   1.000000
    2        0.079519   1.000000
    3        3.084942   1.000000
    4        3.084942   1.000000
    5        6.007250   0.000000
    6        8.425805   0.000000
    7        8.425805   0.000000
    8       10.014722   0.000000
 
  0.3157895E+00  0.0000000E+00  0.0000000E+00  0.1166351E-02
    1       -7.238594   1.000000
    2       -0.597984   1.000000
    3        2.970468   1.000000
    4        2.970469   1.000000
    5        5.856554   0.000000
    6        8.407506   0.000000
    7        8.407506   0.000000
    8       10.719797   0.000000
 
  0.3684211E+00  0.0000000E+00  0.0000000E+00  0.1166351E-02
    1       -7.021159   1.000000
    2       -1.163324   1.000000
    3        2.879222   1.000000
    4        2.879222   1.000000
    5        5.730455   0.000000
    6        8.341343   0.000000
    7        8.341343   0.000000
    8       11.139231   0.000000
 
  0.4210526E+00  0.0000000E+00  0.0000000E+00  0.1166351E-02
    1       -6.840843   1.000000
    2       -1.578222   1.000000
    3        2.816138   1.000000
    4        2.816138   1.000000
    5        5.641846   0.000000
    6        8.273430   0.000000
    7        8.273430   0.000000
    8       11.252462   0.000000
 
  0.4736842E+00  0.0000000E+00  0.0000000E+00  0.1166351E-02
    1       -6.736235   1.000000
    2       -1.800870   1.000000
    3        2.783980   1.000000
    4        2.783980   1.000000
    5        5.596431   0.000000
    6        8.232958   0.000000
    7        8.232958   0.000000
    8       11.258408   0.000000
 
  0.5263158E-01  0.5263158E-01  0.0000000E+00  0.8747631E-03
    1       -8.028081   1.000000
    2        3.198002   1.000000
    3        3.479906   1.000000
    4        3.479906   1.000000
    5        5.767435   0.000000
    6        7.665902   0.000000
    7        7.952545   0.000000
    8        7.952546   0.000000
 
  0.1052632E+00  0.5263158E-01  0.0000000E+00  0.3499052E-02
    1       -7.967435   1.000000
    2        2.631585   1.000000
    3        3.364853   1.000000
    4        3.426310   1.000000
    5        6.163579   0.000000
    6        7.601793   0.000000
    7        8.140160   0.000000
    8        8.161202   0.000000
 
  0.1578947E+00  0.5263158E-01  0.0000000E+00  0.3499052E-02
    1       -7.857181   1.000000
    2        1.869307   1.000000
    3        3.225711   1.000000
    4        3.345275   1.000000
    5        6.409199   0.000000
    6        7.716174   0.000000
    7        8.367194   0.000000
    8        8.530578   0.000000
 
  0.2105263E+00  0.5263158E-01  0.0000000E+00  0.3499052E-02
    1       -7.701908   1.000000
    2        1.078324   1.000000
    3        3.083263   1.000000
    4        3.221785   1.000000
    5        6.394462   0.000000
    6        7.957926   0.000000
    7        8.563866   0.000000
    8        9.055326   0.000000
 
  0.2631579E+00  0.5263158E-01  0.0000000E+00  0.3499052E-02
    1       -7.509581   1.000000
    2        0.316705   1.000000
    3        2.953447   1.000000
    4        3.077297   1.000000
    5        6.263679   0.000000
    6        8.145467   0.000000
    7        8.665016   0.000000
    8        9.653225   0.000000
 
  0.3157895E+00  0.5263158E-01  0.0000000E+00  0.3499052E-02
    1       -7.292997   1.000000
    2       -0.379944   1.000000
    3        2.847035   1.000000
    4        2.931479   1.000000
    5        6.113088   0.000000
    6        8.207603   0.000000
    7        8.654215   0.000000
    8       10.264675   0.000000
 
  0.3684211E+00  0.5263158E-01  0.0000000E+00  0.3499052E-02
    1       -7.072179   1.000000
    2       -0.978977   1.000000
    3        2.770657   1.000000
    4        2.798591   1.000000
    5        5.980371   0.000000
    6        8.186117   0.000000
    7        8.570297   0.000000
    8       10.835089   0.000000
 
  0.4210526E+00  0.5263158E-01  0.0000000E+00  0.3499052E-02
    1       -6.876551   1.000000
    2       -1.443447   1.000000
    3        2.688259   1.000000
    4        2.727884   1.000000
    5        5.881141   0.000000
    6        8.145773   0.000000
    7        8.465013   0.000000
    8       11.218227   0.000000
 
  0.4736842E+00  0.5263158E-01  0.0000000E+00  0.3499052E-02
    1       -6.743567   1.000000
    2       -1.731395   1.000000
    3        2.606900   1.000000
    4        2.720022   1.000000
    5        5.822395   0.000000
    6        8.127888   0.000000
    7        8.375159   0.000000
    8       11.357638   0.000000
 
 -0.4736842E+00  0.5263158E-01  0.0000000E+00  0.3499052E-02
    1       -6.707355   1.000000
    2       -1.806397   1.000000
    3        2.558746   1.000000
    4        2.746685   1.000000
    5        5.807147   0.000000
    6        8.151049   0.000000
    7        8.320218   0.000000
    8       11.385769   0.000000
 
 -0.4210526E+00  0.5263158E-01  0.0000000E+00  0.3499052E-02
    1       -6.778709   1.000000
    2       -1.657109   1.000000
    3        2.546472   1.000000
    4        2.806014   1.000000
    5        5.836088   0.000000
    6        8.218406   0.000000
    7        8.305966   0.000000
    8       11.358692   0.000000
 
 -0.3684211E+00  0.5263158E-01  0.0000000E+00  0.3499052E-02
    1       -6.936996   1.000000
    2       -1.305360   1.000000
    3        2.571457   1.000000
    4        2.894735   1.000000
    5        5.907889   0.000000
    6        8.319917   0.000000
    7        8.325494   0.000000
    8       11.199023   0.000000
 
 -0.3157895E+00  0.5263158E-01  0.0000000E+00  0.3499052E-02
    1       -7.144933   1.000000
    2       -0.791529   1.000000
    3        2.633724   1.000000
    4        3.007862   1.000000
    5        6.018389   0.000000
    6        8.356626   0.000000
    7        8.428601   0.000000
    8       10.771842   0.000000
 
 -0.2631579E+00  0.5263158E-01  0.0000000E+00  0.3499052E-02
    1       -7.367099   1.000000
    2       -0.156701   1.000000
    3        2.731643   1.000000
    4        3.138056   1.000000
    5        6.157907   0.000000
    6        8.359539   0.000000
    7        8.491093   0.000000
    8       10.144047   0.000000
 
 -0.2105263E+00  0.5263158E-01  0.0000000E+00  0.3499052E-02
    1       -7.577387   1.000000
    2        0.563410   1.000000
    3        2.861483   1.000000
    4        3.274716   1.000000
    5        6.303917   0.000000
    6        8.290743   0.000000
    7        8.423387   0.000000
    8        9.490758   0.000000
 
 -0.1578947E+00  0.5263158E-01  0.0000000E+00  0.3499052E-02
    1       -7.758450   1.000000
    2        1.334495   1.000000
    3        3.016909   1.000000
    4        3.402987   1.000000
    5        6.400013   0.000000
    6        8.146323   0.000000
    7        8.170427   0.000000
    8        8.929371   0.000000
 
 -0.1052632E+00  0.5263158E-01  0.0000000E+00  0.3499052E-02
    1       -7.899361   1.000000
    2        2.111357   1.000000
    3        3.189750   1.000000
    4        3.503807   1.000000
    5        6.319393   0.000000
    6        7.879672   0.000000
    7        7.981456   0.000000
    8        8.483312   0.000000
 
 -0.5263158E-01  0.5263158E-01  0.0000000E+00  0.1749526E-02
    1       -7.993400   1.000000
    2        2.801433   1.000000
    3        3.377037   1.000000
    4        3.557058   1.000000
    5        5.980764   0.000000
    6        7.782513   0.000000
    7        7.868112   0.000000
    8        8.120611   0.000000
 
  0.1052632E+00  0.1052632E+00  0.0000000E+00  0.8747631E-03
    1       -7.924204   1.000000
    2        2.474246   1.000000
    3        3.222726   1.000000
    4        3.222726   1.000000
    5        6.517311   0.000000
    6        7.330562   0.000000
    7        8.369664   0.000000
    8        8.369664   0.000000
 
  0.1578947E+00  0.1052632E+00  0.0000000E+00  0.3499052E-02
    1       -7.830936   1.000000
    2        1.929506   1.000000
    3        3.063540   1.000000
    4        3.108672   1.000000
    5        6.830692   0.000000
    6        7.231516   0.000000
    7        8.641736   0.000000
    8        8.689303   0.000000
 
  0.2105263E+00  0.1052632E+00  0.0000000E+00  0.3499052E-02
    1       -7.691432   1.000000
    2        1.233766   1.000000
    3        2.908369   1.000000
    4        2.986594   1.000000
    5        6.839032   0.000000
    6        7.438221   0.000000
    7        8.889184   0.000000
    8        9.030960   0.000000
 
  0.2631579E+00  0.1052632E+00  0.0000000E+00  0.3499052E-02
    1       -7.512468   1.000000
    2        0.516067   1.000000
    3        2.772610   1.000000
    4        2.824986   1.000000
    5        6.707291   0.000000
    6        7.753351   0.000000
    7        9.040648   0.000000
    8        9.249960   0.000000
 
  0.3157895E+00  0.1052632E+00  0.0000000E+00  0.3499052E-02
    1       -7.305025   1.000000
    2       -0.166586   1.000000
    3        2.643654   1.000000
    4        2.666431   1.000000
    5        6.561004   0.000000
    6        7.972568   0.000000
    7        9.062097   0.000000
    8        9.509911   0.000000
 
  0.3684211E+00  0.1052632E+00  0.0000000E+00  0.3499052E-02
    1       -7.086422   1.000000
    2       -0.774301   1.000000
    3        2.464913   1.000000
    4        2.595951   1.000000
    5        6.430590   0.000000
    6        8.030242   0.000000
    7        8.981925   0.000000
    8        9.984963   0.000000
 
  0.4210526E+00  0.1052632E+00  0.0000000E+00  0.3499052E-02
    1       -6.882519   1.000000
    2       -1.268399   1.000000
    3        2.304997   1.000000
    4        2.564269   1.000000
    5        6.330601   0.000000
    6        8.010013   0.000000
    7        8.855758   0.000000
    8       10.606200   0.000000
 
  0.4736842E+00  0.1052632E+00  0.0000000E+00  0.3499052E-02
    1       -6.728007   1.000000
    2       -1.606693   1.000000
    3        2.174757   1.000000
    4        2.572177   1.000000
    5        6.268770   0.000000
    6        7.992431   0.000000
    7        8.728464   0.000000
    8       11.206136   0.000000
 
 -0.4736842E+00  0.1052632E+00  0.0000000E+00  0.3499052E-02
    1       -6.658951   1.000000
    2       -1.749091   1.000000
    3        2.081529   1.000000
    4        2.618555   1.000000
    5        6.248627   0.000000
    6        8.012553   0.000000
    7        8.626175   0.000000
    8       11.560633   0.000000
 
 -0.4210526E+00  0.1052632E+00  0.0000000E+00  0.3499052E-02
    1       -6.694985   1.000000
    2       -1.674580   1.000000
    3        2.030501   1.000000
    4        2.700496   1.000000
    5        6.270825   0.000000
    6        8.080903   0.000000
    7        8.559870   0.000000
    8       11.578874   0.000000
 
 -0.3684211E+00  0.1052632E+00  0.0000000E+00  0.3499052E-02
    1       -6.825538   1.000000
    2       -1.394932   1.000000
    3        2.025534   1.000000
    4        2.813198   1.000000
    5        6.333752   0.000000
    6        8.193184   0.000000
    7        8.527545   0.000000
    8       11.271481   0.000000
 
 -0.3157895E+00  0.1052632E+00  0.0000000E+00  0.3499052E-02
    1       -7.017573   1.000000
    2       -0.947266   1.000000
    3        2.069772   1.000000
    4        2.949601   1.000000
    5        6.433150   0.000000
    6        8.327608   0.000000
    7        8.512354   0.000000
    8       10.702877   0.000000
 
 -0.2631579E+00  0.1052632E+00  0.0000000E+00  0.3499052E-02
    1       -7.234659   1.000000
    2       -0.376431   1.000000
    3        2.166252   1.000000
    4        3.099690   1.000000
    5        6.559793   0.000000
    6        8.426593   0.000000
    7        8.479393   0.000000
    8       10.070287   0.000000
 
 -0.2105263E+00  0.1052632E+00  0.0000000E+00  0.3499052E-02
    1       -7.447891   1.000000
    2        0.273075   1.000000
    3        2.319155   1.000000
    4        3.249657   1.000000
    5        6.691562   0.000000
    6        8.364079   0.000000
    7        8.387239   0.000000
    8        9.569189   0.000000
 
 -0.1578947E+00  0.1052632E+00  0.0000000E+00  0.3499052E-02
    1       -7.637466   1.000000
    2        0.951853   1.000000
    3        2.536335   1.000000
    4        3.381194   1.000000
    5        6.766929   0.000000
    6        8.082996   0.000000
    7        8.232400   0.000000
    8        9.260594   0.000000
 
 -0.1052632E+00  0.1052632E+00  0.0000000E+00  0.1749526E-02
    1       -7.790605   1.000000
    2        1.592405   1.000000
    3        2.830656   1.000000
    4        3.472587   1.000000
    5        6.646847   0.000000
    6        7.862514   0.000000
    7        8.072831   0.000000
    8        8.931168   0.000000
 
  0.1578947E+00  0.1578947E+00  0.0000000E+00  0.8747631E-03
    1       -7.754939   1.000000
    2        1.699823   1.000000
    3        2.887266   1.000000
    4        2.887266   1.000000
    5        6.895268   0.000000
    6        7.210619   0.000000
    7        8.967618   0.000000
    8        8.967618   0.000000
 
  0.2105263E+00  0.1578947E+00  0.0000000E+00  0.3499052E-02
    1       -7.632282   1.000000
    2        1.208060   1.000000
    3        2.718731   1.000000
    4        2.726779   1.000000
    5        6.763194   0.000000
    6        7.397600   0.000000
    7        9.230011   0.000000
    8        9.280738   0.000000
 
  0.2631579E+00  0.1578947E+00  0.0000000E+00  0.3499052E-02
    1       -7.468724   1.000000
    2        0.605261   1.000000
    3        2.542856   1.000000
    4        2.573458   1.000000
    5        6.724491   0.000000
    6        7.569658   0.000000
    7        9.197243   0.000000
    8        9.505136   0.000000
 
  0.3157895E+00  0.1578947E+00  0.0000000E+00  0.3499052E-02
    1       -7.273772   1.000000
    2       -0.013018   1.000000
    3        2.322994   1.000000
    4        2.461623   1.000000
    5        6.668278   0.000000
    6        7.858948   0.000000
    7        9.087074   0.000000
    8        9.586376   0.000000
 
  0.3684211E+00  0.1578947E+00  0.0000000E+00  0.3499052E-02
    1       -7.062426   1.000000
    2       -0.591101   1.000000
    3        2.092725   1.000000
    4        2.389382   1.000000
    5        6.587402   0.000000
    6        8.143945   0.000000
    7        9.173583   0.000000
    8        9.534760   0.000000
 
  0.4210526E+00  0.1578947E+00  0.0000000E+00  0.3499052E-02
    1       -6.857214   1.000000
    2       -1.084275   1.000000
    3        1.876916   1.000000
    4        2.359896   1.000000
    5        6.518336   0.000000
    6        8.223328   0.000000
    7        9.406852   0.000000
    8        9.640731   0.000000
 
  0.4736842E+00  0.1578947E+00  0.0000000E+00  0.3499052E-02
    1       -6.689265   1.000000
    2       -1.448494   1.000000
    3        1.692569   1.000000
    4        2.374018   1.000000
    5        6.484367   0.000000
    6        8.197717   0.000000
    7        9.256690   0.000000
    8       10.345182   0.000000
 
 -0.4736842E+00  0.1578947E+00  0.0000000E+00  0.3499052E-02
    1       -6.593768   1.000000
    2       -1.641315   1.000000
    3        1.550880   1.000000
    4        2.430578   1.000000
    5        6.495055   0.000000
    6        8.177340   0.000000
    7        9.118001   0.000000
    8       11.099546   0.000000
 
 -0.4210526E+00  0.1578947E+00  0.0000000E+00  0.3499052E-02
    1       -6.595952   1.000000
    2       -1.634734   1.000000
    3        1.459916   1.000000
    4        2.526405   1.000000
    5        6.551475   0.000000
    6        8.196128   0.000000
    7        9.006625   0.000000
    8       11.585805   0.000000
 
 -0.3684211E+00  0.1578947E+00  0.0000000E+00  0.3499052E-02
    1       -6.695099   1.000000
    2       -1.430923   1.000000
    3        1.426704   1.000000
    4        2.656103   1.000000
    5        6.648986   0.000000
    6        8.262024   0.000000
    7        8.923752   0.000000
    8       11.292772   0.000000
 
 -0.3157895E+00  0.1578947E+00  0.0000000E+00  0.3499052E-02
    1       -6.865111   1.000000
    2       -1.062723   1.000000
    3        1.459103   1.000000
    4        2.811463   1.000000
    5        6.777909   0.000000
    6        8.366059   0.000000
    7        8.854488   0.000000
    8       10.614755   0.000000
 
 -0.2631579E+00  0.1578947E+00  0.0000000E+00  0.3499052E-02
    1       -7.070847   1.000000
    2       -0.580097   1.000000
    3        1.568378   1.000000
    4        2.980610   1.000000
    5        6.921127   0.000000
    6        8.463247   0.000000
    7        8.764483   0.000000
    8        9.930114   0.000000
 
 -0.2105263E+00  0.1578947E+00  0.0000000E+00  0.3499052E-02
    1       -7.281644   1.000000
    2       -0.041414   1.000000
    3        1.772550   1.000000
    4        3.146962   1.000000
    5        7.040857   0.000000
    6        8.412725   0.000000
    7        8.614522   0.000000
    8        9.474534   0.000000
 
 -0.1578947E+00  0.1578947E+00  0.0000000E+00  0.1749526E-02
    1       -7.475419   1.000000
    2        0.487924   1.000000
    3        2.094889   1.000000
    4        3.288799   1.000000
    5        7.033424   0.000000
    6        8.170440   0.000000
    7        8.413240   0.000000
    8        9.358805   0.000000
 
  0.2105263E+00  0.2105263E+00  0.0000000E+00  0.8747631E-03
    1       -7.526889   1.000000
    2        0.941212   1.000000
    3        2.537495   1.000000
    4        2.537495   1.000000
    5        6.461316   0.000000
    6        7.453811   0.000000
    7        9.677539   0.000000
    8        9.677540   0.000000
 
  0.2631579E+00  0.2105263E+00  0.0000000E+00  0.3499052E-02
    1       -7.380178   1.000000
    2        0.505011   1.000000
    3        2.350627   1.000000
    4        2.380972   1.000000
    5        6.346478   0.000000
    6        7.403658   0.000000
    7        9.751939   0.000000
    8       10.001669   0.000000
 
  0.3157895E+00  0.2105263E+00  0.0000000E+00  0.3499052E-02
    1       -7.200500   1.000000
    2        0.002623   1.000000
    3        2.106669   1.000000
    4        2.259805   1.000000
    5        6.356396   0.000000
    6        7.463340   0.000000
    7        9.582744   0.000000
    8       10.177178   0.000000
 
  0.3684211E+00  0.2105263E+00  0.0000000E+00  0.3499052E-02
    1       -7.000946   1.000000
    2       -0.497795   1.000000
    3        1.823045   1.000000
    4        2.180507   1.000000
    5        6.357654   0.000000
    6        7.769915   0.000000
    7        9.414592   0.000000
    8       10.185743   0.000000
 
  0.4210526E+00  0.2105263E+00  0.0000000E+00  0.3499052E-02
    1       -6.801183   1.000000
    2       -0.946892   1.000000
    3        1.539621   1.000000
    4        2.146586   1.000000
    5        6.332895   0.000000
    6        8.268253   0.000000
    7        9.322418   0.000000
    8       10.078714   0.000000
 
  0.4736842E+00  0.2105263E+00  0.0000000E+00  0.3499052E-02
    1       -6.628589   1.000000
    2       -1.299565   1.000000
    3        1.286925   1.000000
    4        2.159201   1.000000
    5        6.327083   0.000000
    6        8.681614   0.000000
    7        9.512881   0.000000
    8        9.921157   0.000000
 
 -0.4736842E+00  0.2105263E+00  0.0000000E+00  0.3499052E-02
    1       -6.515607   1.000000
    2       -1.512917   1.000000
    3        1.084151   1.000000
    4        2.217488   1.000000
    5        6.366381   0.000000
    6        8.766601   0.000000
    7        9.756878   0.000000
    8       10.170479   0.000000
 
 -0.4210526E+00  0.2105263E+00  0.0000000E+00  0.3499052E-02
    1       -6.489349   1.000000
    2       -1.555613   1.000000
    3        0.944447   1.000000
    4        2.318496   1.000000
    5        6.458753   0.000000
    6        8.762247   0.000000
    7        9.606924   0.000000
    8       10.964066   0.000000
 
 -0.3684211E+00  0.2105263E+00  0.0000000E+00  0.3499052E-02
    1       -6.556711   1.000000
    2       -1.423455   1.000000
    3        0.879944   1.000000
    4        2.456916   1.000000
    5        6.601522   0.000000
    6        8.773141   0.000000
    7        9.473409   0.000000
    8       11.207756   0.000000
 
 -0.3157895E+00  0.2105263E+00  0.0000000E+00  0.3499052E-02
    1       -6.699861   1.000000
    2       -1.146450   1.000000
    3        0.906447   1.000000
    4        2.624335   1.000000
    5        6.782529   0.000000
    6        8.814617   0.000000
    7        9.337610   0.000000
    8       10.539811   0.000000
 
 -0.2631579E+00  0.2105263E+00  0.0000000E+00  0.3499052E-02
    1       -6.887615   1.000000
    2       -0.781278   1.000000
    3        1.047814   1.000000
    4        2.808184   1.000000
    5        6.974235   0.000000
    6        8.855210   0.000000
    7        9.157851   0.000000
    8        9.817003   0.000000
 
 -0.2105263E+00  0.2105263E+00  0.0000000E+00  0.1749526E-02
    1       -7.089428   1.000000
    2       -0.395844   1.000000
    3        1.333389   1.000000
    4        2.990454   1.000000
    5        7.110674   0.000000
    6        8.705016   0.000000
    7        8.902282   0.000000
    8        9.430089   0.000000
 
  0.2631579E+00  0.2631579E+00  0.0000000E+00  0.8747631E-03
    1       -7.251108   1.000000
    2        0.221942   1.000000
    3        2.212729   1.000000
    4        2.212729   1.000000
    5        6.053883   0.000000
    6        7.164010   0.000000
    7       10.454987   0.000000
    8       10.455553   0.000000
 
  0.3157895E+00  0.2631579E+00  0.0000000E+00  0.3499052E-02
    1       -7.088923   1.000000
    2       -0.157750   1.000000
    3        2.015882   1.000000
    4        2.080247   1.000000
    5        5.964962   0.000000
    6        7.014638   0.000000
    7       10.483928   0.000000
    8       10.770745   0.000000
 
  0.3684211E+00  0.2631579E+00  0.0000000E+00  0.3499052E-02
    1       -6.905256   1.000000
    2       -0.557950   1.000000
    3        1.724991   1.000000
    4        1.990645   1.000000
    5        5.999451   0.000000
    6        7.089333   0.000000
    7       10.324506   0.000000
    8       10.886678   0.000000
 
  0.4210526E+00  0.2631579E+00  0.0000000E+00  0.3499052E-02
    1       -6.717482   1.000000
    2       -0.927990   1.000000
    3        1.385606   1.000000
    4        1.947929   1.000000
    5        6.025992   0.000000
    6        7.468908   0.000000
    7       10.162884   0.000000
    8       10.832832   0.000000
 
  0.4736842E+00  0.2631579E+00  0.0000000E+00  0.3499052E-02
    1       -6.549492   1.000000
    2       -1.227456   1.000000
    3        1.054736   1.000000
    4        1.953702   1.000000
    5        6.044920   0.000000
    6        8.081344   0.000000
    7       10.035239   0.000000
    8       10.686496   0.000000
 
 -0.4736842E+00  0.2631579E+00  0.0000000E+00  0.3499052E-02
    1       -6.429972   1.000000
    2       -1.419763   1.000000
    3        0.772789   1.000000
    4        2.007524   1.000000
    5        6.098349   0.000000
    6        8.794751   0.000000
    7        9.993617   0.000000
    8       10.506612   0.000000
 
 -0.4210526E+00  0.2631579E+00  0.0000000E+00  0.3499052E-02
    1       -6.384643   1.000000
    2       -1.478236   1.000000
    3        0.567003   1.000000
    4        2.106900   1.000000
    5        6.204843   0.000000
    6        9.342329   0.000000
    7       10.243195   0.000000
    8       10.320650   0.000000
 
 -0.3684211E+00  0.2631579E+00  0.0000000E+00  0.3499052E-02
    1       -6.424328   1.000000
    2       -1.400731   1.000000
    3        0.461460   1.000000
    4        2.246961   1.000000
    5        6.366563   0.000000
    6        9.495299   0.000000
    7       10.127348   0.000000
    8       10.833007   0.000000
 
 -0.3157895E+00  0.2631579E+00  0.0000000E+00  0.3499052E-02
    1       -6.538582   1.000000
    2       -1.220464   1.000000
    3        0.486069   1.000000
    4        2.419709   1.000000
    5        6.574116   0.000000
    6        9.522393   0.000000
    7        9.893177   0.000000
    8       10.501451   0.000000
 
 -0.2631579E+00  0.2631579E+00  0.0000000E+00  0.1749526E-02
    1       -6.702348   1.000000
    2       -0.997328   1.000000
    3        0.676265   1.000000
    4        2.612832   1.000000
    5        6.800713   0.000000
    6        9.404227   0.000000
    7        9.566251   0.000000
    8        9.879370   0.000000
 
  0.3157895E+00  0.3157895E+00  0.0000000E+00  0.8747631E-03
    1       -6.945757   1.000000
    2       -0.438249   1.000000
    3        1.935644   1.000000
    4        1.935644   1.000000
    5        5.698397   0.000000
    6        6.704462   0.000000
    7       11.271680   0.000000
    8       11.271828   0.000000
 
  0.3684211E+00  0.3157895E+00  0.0000000E+00  0.3499052E-02
    1       -6.781671   1.000000
    2       -0.755556   1.000000
    3        1.741957   1.000000
    4        1.833956   1.000000
    5        5.640396   0.000000
    6        6.583162   0.000000
    7       11.329463   0.000000
    8       11.566418   0.000000
 
  0.4210526E+00  0.3157895E+00  0.0000000E+00  0.3499052E-02
    1       -6.612246   1.000000
    2       -1.050346   1.000000
    3        1.423526   1.000000
    4        1.779794   1.000000
    5        5.698574   0.000000
    6        6.739115   0.000000
    7       11.186013   0.000000
    8       11.622016   0.000000
 
  0.4736842E+00  0.3157895E+00  0.0000000E+00  0.3499052E-02
    1       -6.458435   1.000000
    2       -1.282990   1.000000
    3        1.049734   1.000000
    4        1.775281   1.000000
    5        5.755584   0.000000
    6        7.211178   0.000000
    7       11.030947   0.000000
    8       11.515948   0.000000
 
 -0.4736842E+00  0.3157895E+00  0.0000000E+00  0.3499052E-02
    1       -6.344765   1.000000
    2       -1.425163   1.000000
    3        0.693287   1.000000
    4        1.820474   1.000000
    5        5.825074   0.000000
    6        7.906500   0.000000
    7       10.898798   0.000000
    8       11.331033   0.000000
 
 -0.4210526E+00  0.3157895E+00  0.0000000E+00  0.3499052E-02
    1       -6.293222   1.000000
    2       -1.462944   1.000000
    3        0.409323   1.000000
    4        1.913412   1.000000
    5        5.939476   0.000000
    6        8.723787   0.000000
    7       10.814141   0.000000
    8       11.103391   0.000000
 
 -0.3684211E+00  0.3157895E+00  0.0000000E+00  0.3499052E-02
    1       -6.314408   1.000000
    2       -1.409142   1.000000
    3        0.246954   1.000000
    4        2.049822   1.000000
    5        6.108755   0.000000
    6        9.538915   0.000000
    7       10.818341   0.000000
    8       10.823728   0.000000
 
 -0.3157895E+00  0.3157895E+00  0.0000000E+00  0.1749526E-02
    1       -6.402419   1.000000
    2       -1.310731   1.000000
    3        0.259898   1.000000
    4        2.222418   1.000000
    5        6.327777   0.000000
    6        9.977532   0.000000
    7       10.418760   0.000000
    8       10.696604   0.000000
 
  0.3684211E+00  0.3684211E+00  0.0000000E+00  0.8747631E-03
    1       -6.640205   1.000000
    2       -1.010384   1.000000
    3        1.719409   1.000000
    4        1.719409   1.000000
    5        5.409600   0.000000
    6        6.300345   0.000000
    7       12.103466   0.000000
    8       12.103554   0.000000
 
  0.4210526E+00  0.3684211E+00  0.0000000E+00  0.3499052E-02
    1       -6.495225   1.000000
    2       -1.250975   1.000000
    3        1.540037   1.000000
    4        1.652338   1.000000
    5        5.388801   0.000000
    6        6.248521   0.000000
    7       12.198590   0.000000
    8       12.364447   0.000000
 
  0.4736842E+00  0.3684211E+00  0.0000000E+00  0.3499052E-02
    1       -6.365252   1.000000
    2       -1.431563   1.000000
    3        1.216609   1.000000
    4        1.635446   1.000000
    5        5.480656   0.000000
    6        6.496236   0.000000
    7       12.073518   0.000000
    8       12.355351   0.000000
 