       N       E                     dE             d eps       ncg     rms          rms(c)
DAV:   1     0.138193109194E+02    0.13819E+02   -0.30508E+03  3592   0.744E+02
DAV:   2    -0.898375709750E+01   -0.22803E+02   -0.22395E+02  4616   0.886E+01
DAV:   3    -0.958713803150E+01   -0.60338E+00   -0.60338E+00  4464   0.191E+01
DAV:   4    -0.958967529322E+01   -0.25373E-02   -0.25373E-02  5584   0.136E+00
DAV:   5    -0.958968203757E+01   -0.67444E-05   -0.67444E-05  4632   0.583E-02    0.266E+00
RMM:   6    -0.940346553989E+01    0.18622E+00   -0.21252E-01  3536   0.242E+00    0.147E+00
RMM:   7    -0.937273560972E+01    0.30730E-01   -0.11748E-01  3708   0.191E+00    0.458E-01
RMM:   8    -0.937301281330E+01   -0.27720E-03   -0.58619E-03  3797   0.612E-01    0.479E-02
RMM:   9    -0.937327262424E+01   -0.25981E-03   -0.27683E-04  4142   0.132E-01    0.204E-02
RMM:  10    -0.937330694513E+01   -0.34321E-04   -0.53430E-05  3999   0.558E-02    0.405E-03
RMM:  11    -0.937330967388E+01   -0.27287E-05   -0.70284E-06  4151   0.199E-02    0.280E-03
RMM:  12    -0.937330896166E+01    0.71221E-06   -0.99228E-07  3297   0.584E-03
   1 F= -.93733090E+01 E0= -.93733090E+01  d E =0.000000E+00
