 running on   48 total cores
 distrk:  each k-point on   12 cores,    4 groups
 distr:  one band on   12 cores,    1 groups
 using from now: INCAR     
 vasp.5.4.4.18Apr17-6-g9f103f2a35 (build Nov 04 2020 14:40:39) complex          
  
 POSCAR found type information on POSCAR  Al As
 POSCAR found :  2 types and       2 ions
 scaLAPACK will be used

 ----------------------------------------------------------------------------- 
|                                                                             |
|           W    W    AA    RRRRR   N    N  II  N    N   GGGG   !!!           |
|           W    W   A  A   R    R  NN   N  II  NN   N  G    G  !!!           |
|           W    W  A    A  R    R  N N  N  II  N N  N  G       !!!           |
|           W WW W  AAAAAA  RRRRR   N  N N  II  N  N N  G  GGG   !            |
|           WW  WW  A    A  R   R   N   NN  II  N   NN  G    G                |
|           W    W  A    A  R    R  N    N  II  N    N   GGGG   !!!           |
|                                                                             |
|      You have enabled k-point parallelism (KPAR>1).                         |
|      This developmental code was originally  written by Paul Kent at ORNL,  |
|      and carefully double checked in Vienna.                                |
|      GW as well as linear response parallelism added by Martijn Marsman     |
|      and Georg Kresse.                                                      |
|      Carefully verify results versus KPAR=1.                                |
|      Report problems to Paul Kent and Vienna.                               |
|                                                                             |
 ----------------------------------------------------------------------------- 

 LDA part: xc-table for Pade appr. of Perdew
 POSCAR found type information on POSCAR  Al As
 POSCAR found :  2 types and       2 ions
 generate k-points for:   19   19   19
 POSCAR, INCAR and KPOINTS ok, starting setup
 FFT: planning ...
 WAVECAR not read
 entering main loop
       N       E                     dE             d eps       ncg     rms          rms(c)
DAV:   1     0.138193109194E+02    0.13819E+02   -0.30508E+03  3592   0.744E+02
DAV:   2    -0.898375709750E+01   -0.22803E+02   -0.22395E+02  4616   0.886E+01
DAV:   3    -0.958713803150E+01   -0.60338E+00   -0.60338E+00  4464   0.191E+01
DAV:   4    -0.958967529322E+01   -0.25373E-02   -0.25373E-02  5584   0.136E+00
DAV:   5    -0.958968203757E+01   -0.67444E-05   -0.67444E-05  4632   0.583E-02    0.266E+00
RMM:   6    -0.940346553989E+01    0.18622E+00   -0.21252E-01  3536   0.242E+00    0.147E+00
RMM:   7    -0.937273560972E+01    0.30730E-01   -0.11748E-01  3708   0.191E+00    0.458E-01
RMM:   8    -0.937301281330E+01   -0.27720E-03   -0.58619E-03  3797   0.612E-01    0.479E-02
RMM:   9    -0.937327262424E+01   -0.25981E-03   -0.27683E-04  4142   0.132E-01    0.204E-02
RMM:  10    -0.937330694513E+01   -0.34321E-04   -0.53430E-05  3999   0.558E-02    0.405E-03
RMM:  11    -0.937330967388E+01   -0.27287E-05   -0.70284E-06  4151   0.199E-02    0.280E-03
RMM:  12    -0.937330896166E+01    0.71221E-06   -0.99228E-07  3297   0.584E-03
   1 F= -.93733090E+01 E0= -.93733090E+01  d E =0.000000E+00
