   2   2   0   0
  0.1508586E+02  0.3494393E-09  0.3494393E-09  0.3494393E-09  0.0000000E+00
  1.000000000000000E-004
  CAR 
 unknown system                          
     16.70955069    -10.64848395  301      5.13368228      1.00000000
    -10.648  0.0000E+00  0.0000E+00
    -10.557  0.0000E+00  0.0000E+00
    -10.466  0.0000E+00  0.0000E+00
    -10.375  0.0000E+00  0.0000E+00
    -10.284  0.0000E+00  0.0000E+00
    -10.193  0.0000E+00  0.0000E+00
    -10.101  0.0000E+00  0.0000E+00
    -10.010  0.0000E+00  0.0000E+00
     -9.919  0.0000E+00  0.0000E+00
     -9.828  0.0000E+00  0.0000E+00
     -9.737  0.0000E+00  0.0000E+00
     -9.645  0.0000E+00  0.0000E+00
     -9.554  0.0000E+00  0.0000E+00
     -9.463  0.0000E+00  0.0000E+00
     -9.372  0.4519E-01  0.7273E-03
     -9.281  0.9422E-01  0.7348E-02
     -9.189  0.1291E+00  0.1774E-01
     -9.098  0.1587E+00  0.3079E-01
     -9.007  0.1793E+00  0.4617E-01
     -8.916  0.2027E+00  0.6363E-01
     -8.825  0.2211E+00  0.8292E-01
     -8.733  0.2420E+00  0.1040E+00
     -8.642  0.2585E+00  0.1268E+00
     -8.551  0.2768E+00  0.1512E+00
     -8.460  0.2945E+00  0.1773E+00
     -8.369  0.3110E+00  0.2049E+00
     -8.277  0.3289E+00  0.2341E+00
     -8.186  0.3461E+00  0.2649E+00
     -8.095  0.3633E+00  0.2972E+00
     -8.004  0.3815E+00  0.3312E+00
     -7.913  0.4002E+00  0.3668E+00
     -7.821  0.4191E+00  0.4042E+00
     -7.730  0.4393E+00  0.4433E+00
     -7.639  0.4608E+00  0.4843E+00
     -7.548  0.4838E+00  0.5274E+00
     -7.457  0.5090E+00  0.5726E+00
     -7.366  0.5367E+00  0.6203E+00
     -7.274  0.5683E+00  0.6706E+00
     -7.183  0.6061E+00  0.7241E+00
     -7.092  0.6526E+00  0.7814E+00
     -7.001  0.7134E+00  0.8436E+00
     -6.910  0.8299E+00  0.9130E+00
     -6.818  0.9106E+00  0.9957E+00
     -6.727  0.8840E+00  0.1078E+01
     -6.636  0.8773E+00  0.1158E+01
     -6.545  0.8620E+00  0.1237E+01
     -6.454  0.8397E+00  0.1315E+01
     -6.362  0.8367E+00  0.1391E+01
     -6.271  0.8224E+00  0.1467E+01
     -6.180  0.8146E+00  0.1541E+01
     -6.089  0.8159E+00  0.1615E+01
     -5.998  0.8194E+00  0.1690E+01
     -5.906  0.8434E+00  0.1766E+01
     -5.815  0.9103E+00  0.1844E+01
     -5.724  0.1222E+01  0.1938E+01
     -5.633  0.3344E+00  0.1997E+01
     -5.542  0.0000E+00  0.2000E+01
     -5.450  0.0000E+00  0.2000E+01
     -5.359  0.0000E+00  0.2000E+01
     -5.268  0.0000E+00  0.2000E+01
     -5.177  0.0000E+00  0.2000E+01
     -5.086  0.0000E+00  0.2000E+01
     -4.994  0.0000E+00  0.2000E+01
     -4.903  0.0000E+00  0.2000E+01
     -4.812  0.0000E+00  0.2000E+01
     -4.721  0.0000E+00  0.2000E+01
     -4.630  0.0000E+00  0.2000E+01
     -4.539  0.0000E+00  0.2000E+01
     -4.447  0.0000E+00  0.2000E+01
     -4.356  0.0000E+00  0.2000E+01
     -4.265  0.0000E+00  0.2000E+01
     -4.174  0.0000E+00  0.2000E+01
     -4.083  0.0000E+00  0.2000E+01
     -3.991  0.0000E+00  0.2000E+01
     -3.900  0.0000E+00  0.2000E+01
     -3.809  0.0000E+00  0.2000E+01
     -3.718  0.0000E+00  0.2000E+01
     -3.627  0.0000E+00  0.2000E+01
     -3.535  0.0000E+00  0.2000E+01
     -3.444  0.0000E+00  0.2000E+01
     -3.353  0.0000E+00  0.2000E+01
     -3.262  0.0000E+00  0.2000E+01
     -3.171  0.0000E+00  0.2000E+01
     -3.079  0.0000E+00  0.2000E+01
     -2.988  0.0000E+00  0.2000E+01
     -2.897  0.1822E+00  0.2007E+01
     -2.806  0.4194E+00  0.2034E+01
     -2.715  0.6469E+00  0.2084E+01
     -2.623  0.9468E+00  0.2157E+01
     -2.532  0.1447E+01  0.2264E+01
     -2.441  0.2683E+01  0.2451E+01
     -2.350  0.1468E+01  0.2634E+01
     -2.259  0.1066E+01  0.2748E+01
     -2.167  0.9007E+00  0.2837E+01
     -2.076  0.7679E+00  0.2913E+01
     -1.985  0.6816E+00  0.2979E+01
     -1.894  0.6190E+00  0.3038E+01
     -1.803  0.5580E+00  0.3092E+01
     -1.712  0.5141E+00  0.3140E+01
     -1.620  0.4818E+00  0.3186E+01
     -1.529  0.4496E+00  0.3228E+01
     -1.438  0.4129E+00  0.3267E+01
     -1.347  0.3914E+00  0.3304E+01
     -1.256  0.3725E+00  0.3339E+01
     -1.164  0.3518E+00  0.3372E+01
     -1.073  0.3296E+00  0.3403E+01
     -0.982  0.3107E+00  0.3432E+01
     -0.891  0.2984E+00  0.3460E+01
     -0.800  0.2854E+00  0.3487E+01
     -0.708  0.2720E+00  0.3512E+01
     -0.617  0.2564E+00  0.3536E+01
     -0.526  0.2421E+00  0.3559E+01
     -0.435  0.2335E+00  0.3580E+01
     -0.344  0.2250E+00  0.3601E+01
     -0.252  0.4472E+00  0.3632E+01
     -0.161  0.6187E+00  0.3680E+01
     -0.070  0.7592E+00  0.3743E+01
      0.021  0.1079E+01  0.3825E+01
      0.112  0.1000E+01  0.3919E+01
      0.204  0.9256E+00  0.4009E+01
      0.295  0.8907E+00  0.4091E+01
      0.386  0.8639E+00  0.4172E+01
      0.477  0.8313E+00  0.4249E+01
      0.568  0.8133E+00  0.4324E+01
      0.660  0.8536E+00  0.4402E+01
      0.751  0.8924E+00  0.4482E+01
      0.842  0.8959E+00  0.4563E+01
      0.933  0.9127E+00  0.4645E+01
      1.024  0.9456E+00  0.4730E+01
      1.115  0.9707E+00  0.4818E+01
      1.207  0.1031E+01  0.4909E+01
      1.298  0.1066E+01  0.5005E+01
      1.389  0.1202E+01  0.5109E+01
      1.480  0.1337E+01  0.5227E+01
      1.571  0.1286E+01  0.5344E+01
      1.663  0.1270E+01  0.5461E+01
      1.754  0.1247E+01  0.5575E+01
      1.845  0.1232E+01  0.5688E+01
      1.936  0.1210E+01  0.5800E+01
      2.027  0.1197E+01  0.5910E+01
      2.119  0.1185E+01  0.6018E+01
      2.210  0.1166E+01  0.6125E+01
      2.301  0.1152E+01  0.6231E+01
      2.392  0.1130E+01  0.6335E+01
      2.483  0.1111E+01  0.6437E+01
      2.575  0.1103E+01  0.6538E+01
      2.666  0.1089E+01  0.6638E+01
      2.757  0.1073E+01  0.6737E+01
      2.848  0.1059E+01  0.6834E+01
      2.939  0.1046E+01  0.6930E+01
      3.031  0.1034E+01  0.7025E+01
      3.122  0.1022E+01  0.7119E+01
      3.213  0.1003E+01  0.7211E+01
      3.304  0.1005E+01  0.7303E+01
      3.395  0.9857E+00  0.7393E+01
      3.487  0.7871E+00  0.7475E+01
      3.578  0.6796E+00  0.7542E+01
      3.669  0.6054E+00  0.7601E+01
      3.760  0.5422E+00  0.7653E+01
      3.851  0.4872E+00  0.7700E+01
      3.942  0.4409E+00  0.7742E+01
      4.034  0.4024E+00  0.7780E+01
      4.125  0.3621E+00  0.7815E+01
      4.216  0.3263E+00  0.7847E+01
      4.307  0.2914E+00  0.7875E+01
      4.398  0.2592E+00  0.7900E+01
      4.490  0.2310E+00  0.7922E+01
      4.581  0.1996E+00  0.7942E+01
      4.672  0.1689E+00  0.7959E+01
      4.763  0.1495E+00  0.7973E+01
      4.854  0.1150E+00  0.7985E+01
      4.946  0.7749E-01  0.7994E+01
      5.037  0.4223E-01  0.7999E+01
      5.128  0.0000E+00  0.8000E+01
      5.219  0.0000E+00  0.8000E+01
      5.310  0.0000E+00  0.8000E+01
      5.402  0.0000E+00  0.8000E+01
      5.493  0.0000E+00  0.8000E+01
      5.584  0.0000E+00  0.8000E+01
      5.675  0.0000E+00  0.8000E+01
      5.766  0.0000E+00  0.8000E+01
      5.858  0.0000E+00  0.8000E+01
      5.949  0.0000E+00  0.8000E+01
      6.040  0.0000E+00  0.8000E+01
      6.131  0.0000E+00  0.8000E+01
      6.222  0.0000E+00  0.8000E+01
      6.313  0.0000E+00  0.8000E+01
      6.405  0.1531E-01  0.8000E+01
      6.496  0.1008E+00  0.8006E+01
      6.587  0.1596E+00  0.8018E+01
      6.678  0.2177E+00  0.8035E+01
      6.769  0.2832E+00  0.8057E+01
      6.861  0.3357E+00  0.8086E+01
      6.952  0.3768E+00  0.8118E+01
      7.043  0.4193E+00  0.8155E+01
      7.134  0.4633E+00  0.8195E+01
      7.225  0.5099E+00  0.8239E+01
      7.317  0.5961E+00  0.8289E+01
      7.408  0.7055E+00  0.8349E+01
      7.499  0.7755E+00  0.8416E+01
      7.590  0.8599E+00  0.8490E+01
      7.681  0.9538E+00  0.8573E+01
      7.773  0.1069E+01  0.8665E+01
      7.864  0.1222E+01  0.8769E+01
      7.955  0.1459E+01  0.8890E+01
      8.046  0.1959E+01  0.9044E+01
      8.137  0.1719E+01  0.9219E+01
      8.229  0.1484E+01  0.9363E+01
      8.320  0.1346E+01  0.9490E+01
      8.411  0.1271E+01  0.9610E+01
      8.502  0.1228E+01  0.9723E+01
      8.593  0.1163E+01  0.9833E+01
      8.685  0.1040E+01  0.9936E+01
      8.776  0.9480E+00  0.1003E+02
      8.867  0.8509E+00  0.1010E+02
      8.958  0.7866E+00  0.1018E+02
      9.049  0.7821E+00  0.1025E+02
      9.140  0.8458E+00  0.1033E+02
      9.232  0.8101E+00  0.1040E+02
      9.323  0.8989E+00  0.1048E+02
      9.414  0.1008E+01  0.1056E+02
      9.505  0.1204E+01  0.1066E+02
      9.596  0.2104E+01  0.1081E+02
      9.688  0.2453E+01  0.1102E+02
      9.779  0.1635E+01  0.1120E+02
      9.870  0.1555E+01  0.1135E+02
      9.961  0.1414E+01  0.1148E+02
     10.052  0.1274E+01  0.1160E+02
     10.144  0.1264E+01  0.1172E+02
     10.235  0.1183E+01  0.1183E+02
     10.326  0.1075E+01  0.1193E+02
     10.417  0.1031E+01  0.1203E+02
     10.508  0.9839E+00  0.1212E+02
     10.600  0.1029E+01  0.1221E+02
     10.691  0.9753E+00  0.1230E+02
     10.782  0.1019E+01  0.1239E+02
     10.873  0.1087E+01  0.1249E+02
     10.964  0.1227E+01  0.1259E+02
     11.056  0.1308E+01  0.1271E+02
     11.147  0.1303E+01  0.1283E+02
     11.238  0.1291E+01  0.1295E+02
     11.329  0.1224E+01  0.1306E+02
     11.420  0.1267E+01  0.1318E+02
     11.512  0.1228E+01  0.1329E+02
     11.603  0.1184E+01  0.1340E+02
     11.694  0.1180E+01  0.1351E+02
     11.785  0.1139E+01  0.1361E+02
     11.876  0.1077E+01  0.1371E+02
     11.967  0.1062E+01  0.1381E+02
     12.059  0.1011E+01  0.1391E+02
     12.150  0.9203E+00  0.1400E+02
     12.241  0.7842E+00  0.1407E+02
     12.332  0.7319E+00  0.1414E+02
     12.423  0.7243E+00  0.1421E+02
     12.515  0.7466E+00  0.1428E+02
     12.606  0.7666E+00  0.1434E+02
     12.697  0.7736E+00  0.1441E+02
     12.788  0.7886E+00  0.1449E+02
     12.879  0.8160E+00  0.1456E+02
     12.971  0.8477E+00  0.1463E+02
     13.062  0.8858E+00  0.1471E+02
     13.153  0.9556E+00  0.1480E+02
     13.244  0.1073E+01  0.1489E+02
     13.335  0.1274E+01  0.1500E+02
     13.427  0.1667E+01  0.1513E+02
     13.518  0.1166E+01  0.1526E+02
     13.609  0.9668E+00  0.1536E+02
     13.700  0.1019E+01  0.1545E+02
     13.791  0.9567E+00  0.1554E+02
     13.883  0.4788E+00  0.1561E+02
     13.974  0.4461E+00  0.1565E+02
     14.065  0.4075E+00  0.1569E+02
     14.156  0.3870E+00  0.1573E+02
     14.247  0.3570E+00  0.1576E+02
     14.339  0.3268E+00  0.1579E+02
     14.430  0.2995E+00  0.1582E+02
     14.521  0.2755E+00  0.1585E+02
     14.612  0.2577E+00  0.1587E+02
     14.703  0.2373E+00  0.1589E+02
     14.794  0.2209E+00  0.1591E+02
     14.886  0.1881E+00  0.1593E+02
     14.977  0.1641E+00  0.1595E+02
     15.068  0.1430E+00  0.1596E+02
     15.159  0.1251E+00  0.1597E+02
     15.250  0.1122E+00  0.1599E+02
     15.342  0.6805E-01  0.1599E+02
     15.433  0.4064E-01  0.1600E+02
     15.524  0.0000E+00  0.1600E+02
     15.615  0.0000E+00  0.1600E+02
     15.706  0.0000E+00  0.1600E+02
     15.798  0.0000E+00  0.1600E+02
     15.889  0.0000E+00  0.1600E+02
     15.980  0.0000E+00  0.1600E+02
     16.071  0.0000E+00  0.1600E+02
     16.162  0.0000E+00  0.1600E+02
     16.254  0.0000E+00  0.1600E+02
     16.345  0.0000E+00  0.1600E+02
     16.436  0.0000E+00  0.1600E+02
     16.527  0.0000E+00  0.1600E+02
     16.618  0.0000E+00  0.1600E+02
     16.710  0.0000E+00  0.1600E+02
