    2    2    1    1
  0.1508586E+02  0.3494393E-09  0.3494393E-09  0.3494393E-09  0.0000000E+00
  1.000000000000000E-004
  CAR 
 unknown system                          
      8    364      8
 
  0.0000000E+00  0.0000000E+00  0.0000000E+00  0.8218953E-04
    1       -9.404937   1.000000
    2        5.097279   1.000000
    3        5.097279   1.000000
    4        5.097279   1.000000
    5        8.246164   0.000000
    6        8.246164   0.000000
    7        8.246164   0.000000
    8        8.558102   0.000000
 
  0.4347826E-01  0.0000000E+00  0.0000000E+00  0.6575162E-03
    1       -9.376645   1.000000
    2        4.772154   1.000000
    3        5.040464   1.000000
    4        5.040464   1.000000
    5        8.239371   0.000000
    6        8.321181   0.000000
    7        8.321181   0.000000
    8        8.828524   0.000000
 
  0.8695652E-01  0.0000000E+00  0.0000000E+00  0.6575162E-03
    1       -9.291995   1.000000
    2        4.016431   1.000000
    3        4.888245   1.000000
    4        4.888245   1.000000
    5        8.163398   0.000000
    6        8.523477   0.000000
    7        8.523477   0.000000
    8        9.483416   0.000000
 
  0.1304348E+00  0.0000000E+00  0.0000000E+00  0.6575162E-03
    1       -9.151964   1.000000
    2        3.095141   1.000000
    3        4.679314   1.000000
    4        4.679314   1.000000
    5        8.040253   0.000000
    6        8.801126   0.000000
    7        8.801126   0.000000
    8       10.256503   0.000000
 
  0.1739130E+00  0.0000000E+00  0.0000000E+00  0.6575162E-03
    1       -8.958245   1.000000
    2        2.126963   1.000000
    3        4.449050   1.000000
    4        4.449050   1.000000
    5        7.896261   0.000000
    6        9.097739   0.000000
    7        9.097739   0.000000
    8       11.031408   0.000000
 
  0.2173913E+00  0.0000000E+00  0.0000000E+00  0.6575162E-03
    1       -8.713806   1.000000
    2        1.163816   1.000000
    3        4.221745   1.000000
    4        4.221745   1.000000
    5        7.749245   0.000000
    6        9.364139   0.000000
    7        9.364139   0.000000
    8       11.765403   0.000000
 
  0.2608696E+00  0.0000000E+00  0.0000000E+00  0.6575162E-03
    1       -8.423477   1.000000
    2        0.234654   1.000000
    3        4.012393   1.000000
    4        4.012393   1.000000
    5        7.611171   0.000000
    6        9.565823   0.000000
    7        9.565823   0.000000
    8       12.431492   0.000000
 
  0.3043478E+00  0.0000000E+00  0.0000000E+00  0.6575162E-03
    1       -8.095441   1.000000
    2       -0.638796   1.000000
    3        3.830038   1.000000
    4        3.830038   1.000000
    5        7.489706   0.000000
    6        9.690305   0.000000
    7        9.690305   0.000000
    8       12.990652   0.000000
 
  0.3478261E+00  0.0000000E+00  0.0000000E+00  0.6575162E-03
    1       -7.743933   1.000000
    2       -1.433966   1.000000
    3        3.680019   1.000000
    4        3.680019   1.000000
    5        7.389356   0.000000
    6        9.747663   0.000000
    7        9.747663   0.000000
    8       13.389834   0.000000
 
  0.3913043E+00  0.0000000E+00  0.0000000E+00  0.6575162E-03
    1       -7.394525   1.000000
    2       -2.119960   1.000000
    3        3.565527   1.000000
    4        3.565527   1.000000
    5        7.312709   0.000000
    6        9.761170   0.000000
    7        9.761170   0.000000
    8       13.609013   0.000000
 
  0.4347826E+00  0.0000000E+00  0.0000000E+00  0.6575162E-03
    1       -7.092684   1.000000
    2       -2.647864   1.000000
    3        3.488402   1.000000
    4        3.488402   1.000000
    5        7.261119   0.000000
    6        9.755134   0.000000
    7        9.755134   0.000000
    8       13.697670   0.000000
 
  0.4782609E+00  0.0000000E+00  0.0000000E+00  0.6575162E-03
    1       -6.908483   1.000000
    2       -2.945592   1.000000
    3        3.449619   1.000000
    4        3.449619   1.000000
    5        7.235181   0.000000
    6        9.747511   0.000000
    7        9.747511   0.000000
    8       13.723370   0.000000
 
  0.4347826E-01  0.4347826E-01  0.0000000E+00  0.4931372E-03
    1       -9.367200   1.000000
    2        4.852574   1.000000
    3        4.924856   1.000000
    4        4.924856   1.000000
    5        8.108879   0.000000
    6        8.459878   0.000000
    7        8.459878   0.000000
    8        8.824333   0.000000
 
  0.8695652E-01  0.4347826E-01  0.0000000E+00  0.1972549E-02
    1       -9.301299   1.000000
    2        4.247781   1.000000
    3        4.731333   1.000000
    4        4.873488   1.000000
    5        8.083808   0.000000
    6        8.530005   0.000000
    7        8.710136   0.000000
    8        9.319326   0.000000
 
  0.1304348E+00  0.4347826E-01  0.0000000E+00  0.1972549E-02
    1       -9.179685   1.000000
    2        3.384143   1.000000
    3        4.499248   1.000000
    4        4.740595   1.000000
    5        8.120198   0.000000
    6        8.564758   0.000000
    7        9.020379   0.000000
    8       10.048174   0.000000
 
  0.1739130E+00  0.4347826E-01  0.0000000E+00  0.1972549E-02
    1       -9.003741   1.000000
    2        2.438526   1.000000
    3        4.259643   1.000000
    4        4.541490   1.000000
    5        8.068383   0.000000
    6        8.743900   0.000000
    7        9.339249   0.000000
    8       10.792846   0.000000
 
  0.2173913E+00  0.4347826E-01  0.0000000E+00  0.1972549E-02
    1       -8.776000   1.000000
    2        1.479667   1.000000
    3        4.032829   1.000000
    4        4.314025   1.000000
    5        7.951573   0.000000
    6        9.000513   0.000000
    7        9.620962   0.000000
    8       11.491327   0.000000
 
  0.2608696E+00  0.4347826E-01  0.0000000E+00  0.1972549E-02
    1       -8.500523   1.000000
    2        0.543410   1.000000
    3        3.831297   1.000000
    4        4.084350   1.000000
    5        7.821249   0.000000
    6        9.242227   0.000000
    7        9.830662   0.000000
    8       12.123064   0.000000
 
  0.3043478E+00  0.4347826E-01  0.0000000E+00  0.1972549E-02
    1       -8.184208   1.000000
    2       -0.346061   1.000000
    3        3.662521   1.000000
    4        3.868519   1.000000
    5        7.698402   0.000000
    6        9.424303   0.000000
    7        9.952812   0.000000
    8       12.678806   0.000000
 
  0.3478261E+00  0.4347826E-01  0.0000000E+00  0.1972549E-02
    1       -7.838806   1.000000
    2       -1.166579   1.000000
    3        3.530880   1.000000
    4        3.676263   1.000000
    5        7.592422   0.000000
    6        9.538766   0.000000
    7        9.994985   0.000000
    8       13.139631   0.000000
 
  0.3913043E+00  0.4347826E-01  0.0000000E+00  0.1972549E-02
    1       -7.485345   1.000000
    2       -1.890595   1.000000
    3        3.438759   1.000000
    4        3.513650   1.000000
    5        7.508033   0.000000
    6        9.602398   0.000000
    7        9.980397   0.000000
    8       13.471611   0.000000
 
  0.4347826E+00  0.4347826E-01  0.0000000E+00  0.1972549E-02
    1       -7.161542   1.000000
    2       -2.476159   1.000000
    3        3.384606   1.000000
    4        3.387213   1.000000
    5        7.447679   0.000000
    6        9.640276   0.000000
    7        9.935642   0.000000
    8       13.662991   0.000000
 
  0.4782609E+00  0.4347826E-01  0.0000000E+00  0.1972549E-02
    1       -6.929854   1.000000
    2       -2.858250   1.000000
    3        3.291836   1.000000
    4        3.376416   1.000000
    5        7.412573   0.000000
    6        9.673679   0.000000
    7        9.882051   0.000000
    8       13.748621   0.000000
 
 -0.4782609E+00  0.4347826E-01  0.0000000E+00  0.1972549E-02
    1       -6.864249   1.000000
    2       -2.961475   1.000000
    3        3.237284   1.000000
    4        3.405852   1.000000
    5        7.403246   0.000000
    6        9.715172   0.000000
    7        9.832342   0.000000
    8       13.770790   0.000000
 
 -0.4347826E+00  0.4347826E-01  0.0000000E+00  0.1972549E-02
    1       -6.992177   1.000000
    2       -2.758116   1.000000
    3        3.222339   1.000000
    4        3.474460   1.000000
    5        7.419813   0.000000
    6        9.767744   0.000000
    7        9.790014   0.000000
    8       13.742730   0.000000
 
 -0.3913043E+00  0.4347826E-01  0.0000000E+00  0.1972549E-02
    1       -7.263038   1.000000
    2       -2.299394   1.000000
    3        3.247926   1.000000
    4        3.580641   1.000000
    5        7.462040   0.000000
    6        9.749401   0.000000
    7        9.824771   0.000000
    8       13.640716   0.000000
 
 -0.3478261E+00  0.4347826E-01  0.0000000E+00  0.1972549E-02
    1       -7.602378   1.000000
    2       -1.661584   1.000000
    3        3.314448   1.000000
    4        3.722147   1.000000
    5        7.529308   0.000000
    6        9.696022   0.000000
    7        9.869693   0.000000
    8       13.416136   0.000000
 
 -0.3043478E+00  0.4347826E-01  0.0000000E+00  0.1972549E-02
    1       -7.956306   1.000000
    2       -0.901668   1.000000
    3        3.421659   1.000000
    4        3.895767   1.000000
    5        7.620284   0.000000
    6        9.608623   0.000000
    7        9.876546   0.000000
    8       13.039403   0.000000
 
 -0.2608696E+00  0.4347826E-01  0.0000000E+00  0.1972549E-02
    1       -8.293758   1.000000
    2       -0.055708   1.000000
    3        3.568401   1.000000
    4        4.096755   1.000000
    5        7.732438   0.000000
    6        9.465752   0.000000
    7        9.814430   0.000000
    8       12.533722   0.000000
 
 -0.2173913E+00  0.4347826E-01  0.0000000E+00  0.1972549E-02
    1       -8.597434   1.000000
    2        0.851165   1.000000
    3        3.752211   1.000000
    4        4.317809   1.000000
    5        7.861227   0.000000
    6        9.257485   0.000000
    7        9.659762   0.000000
    8       11.941072   0.000000
 
 -0.1739130E+00  0.4347826E-01  0.0000000E+00  0.1972549E-02
    1       -8.857571   1.000000
    2        1.796324   1.000000
    3        3.968710   1.000000
    4        4.547171   1.000000
    5        7.998533   0.000000
    6        8.996131   0.000000
    7        9.412332   0.000000
    8       11.285625   0.000000
 
 -0.1304348E+00  0.4347826E-01  0.0000000E+00  0.1972549E-02
    1       -9.068381   1.000000
    2        2.751122   1.000000
    3        4.210993   1.000000
    4        4.765975   1.000000
    5        8.130048   0.000000
    6        8.717844   0.000000
    7        9.102274   0.000000
    8       10.580102   0.000000
 
 -0.8695652E-01  0.4347826E-01  0.0000000E+00  0.1972549E-02
    1       -9.226404   1.000000
    2        3.665001   1.000000
    3        4.470469   1.000000
    4        4.945171   1.000000
    5        8.228731   0.000000
    6        8.475636   0.000000
    7        8.785211   0.000000
    8        9.853390   0.000000
 
 -0.4347826E-01  0.4347826E-01  0.0000000E+00  0.9862743E-03
    1       -9.329541   1.000000
    2        4.411817   1.000000
    3        4.755295   1.000000
    4        5.047031   1.000000
    5        8.247966   0.000000
    6        8.328413   0.000000
    7        8.533176   0.000000
    8        9.197388   0.000000
 
  0.8695652E-01  0.8695652E-01  0.0000000E+00  0.4931372E-03
    1       -9.254225   1.000000
    2        4.247641   1.000000
    3        4.510450   1.000000
    4        4.510450   1.000000
    5        7.869213   0.000000
    6        8.997178   0.000000
    7        8.997178   0.000000
    8        9.321188   0.000000
 
  0.1304348E+00  0.8695652E-01  0.0000000E+00  0.1972549E-02
    1       -9.151249   1.000000
    2        3.574770   1.000000
    3        4.262594   1.000000
    4        4.413030   1.000000
    5        7.826683   0.000000
    6        9.035598   0.000000
    7        9.336648   0.000000
    8        9.896527   0.000000
 
  0.1739130E+00  0.8695652E-01  0.0000000E+00  0.1972549E-02
    1       -8.993539   1.000000
    2        2.698515   1.000000
    3        4.015342   1.000000
    4        4.277677   1.000000
    5        7.924512   0.000000
    6        8.968820   0.000000
    7        9.681742   0.000000
    8       10.578348   0.000000
 
  0.2173913E+00  0.8695652E-01  0.0000000E+00  0.1972549E-02
    1       -8.783230   1.000000
    2        1.773921   1.000000
    3        3.786709   1.000000
    4        4.074301   1.000000
    5        8.046306   0.000000
    6        8.967178   0.000000
    7        9.988770   0.000000
    8       11.175448   0.000000
 
  0.2608696E+00  0.8695652E-01  0.0000000E+00  0.1972549E-02
    1       -8.523780   1.000000
    2        0.851378   1.000000
    3        3.587994   1.000000
    4        3.839384   1.000000
    5        8.083528   0.000000
    6        9.077593   0.000000
    7       10.221206   0.000000
    8       11.669134   0.000000
 
  0.3043478E+00  0.8695652E-01  0.0000000E+00  0.1972549E-02
    1       -8.221022   1.000000
    2       -0.038624   1.000000
    3        3.426079   1.000000
    4        3.600088   1.000000
    5        8.037507   0.000000
    6        9.243372   0.000000
    7       10.358631   0.000000
    8       12.106159   0.000000
 
  0.3478261E+00  0.8695652E-01  0.0000000E+00  0.1972549E-02
    1       -7.884746   1.000000
    2       -0.871846   1.000000
    3        3.305054   1.000000
    4        3.373287   1.000000
    5        7.960831   0.000000
    6        9.384204   0.000000
    7       10.403524   0.000000
    8       12.545186   0.000000
 
  0.3913043E+00  0.8695652E-01  0.0000000E+00  0.1972549E-02
    1       -7.532289   1.000000
    2       -1.621993   1.000000
    3        3.169435   1.000000
    4        3.227101   1.000000
    5        7.885412   0.000000
    6        9.476926   0.000000
    7       10.377102   0.000000
    8       12.992852   0.000000
 
  0.4347826E+00  0.8695652E-01  0.0000000E+00  0.1972549E-02
    1       -7.194701   1.000000
    2       -2.252294   1.000000
    3        2.995295   1.000000
    4        3.193071   1.000000
    5        7.825465   0.000000
    6        9.537586   0.000000
    7       10.307189   0.000000
    8       13.395782   0.000000
 
  0.4782609E+00  0.8695652E-01  0.0000000E+00  0.1972549E-02
    1       -6.925660   1.000000
    2       -2.705513   1.000000
    3        2.855593   1.000000
    4        3.202809   1.000000
    5        7.787239   0.000000
    6        9.590214   0.000000
    7       10.218030   0.000000
    8       13.685280   0.000000
 
 -0.4782609E+00  0.8695652E-01  0.0000000E+00  0.1972549E-02
    1       -6.799054   1.000000
    2       -2.905724   1.000000
    3        2.753832   1.000000
    4        3.255315   1.000000
    5        7.773324   0.000000
    6        9.652201   0.000000
    7       10.125574   0.000000
    8       13.830291   0.000000
 
 -0.4347826E+00  0.8695652E-01  0.0000000E+00  0.1972549E-02
    1       -6.864742   1.000000
    2       -2.802344   1.000000
    3        2.692765   1.000000
    4        3.348855   1.000000
    5        7.784485   0.000000
    6        9.731153   0.000000
    7       10.036562   0.000000
    8       13.832864   0.000000
 
 -0.3913043E+00  0.8695652E-01  0.0000000E+00  0.1972549E-02
    1       -7.095359   1.000000
    2       -2.423172   1.000000
    3        2.674522   1.000000
    4        3.480862   1.000000
    5        7.820351   0.000000
    6        9.824635   0.000000
    7        9.948402   0.000000
    8       13.687568   0.000000
 
 -0.3478261E+00  0.8695652E-01  0.0000000E+00  0.1972549E-02
    1       -7.417575   1.000000
    2       -1.843284   1.000000
    3        2.700789   1.000000
    4        3.647866   1.000000
    5        7.879834   0.000000
    6        9.849823   0.000000
    7        9.919276   0.000000
    8       13.385852   0.000000
 
 -0.3043478E+00  0.8695652E-01  0.0000000E+00  0.1972549E-02
    1       -7.769431   1.000000
    2       -1.127977   1.000000
    3        2.772823   1.000000
    4        3.845072   1.000000
    5        7.960887   0.000000
    6        9.722719   0.000000
    7        9.988313   0.000000
    8       12.956827   0.000000
 
 -0.2608696E+00  0.8695652E-01  0.0000000E+00  0.1972549E-02
    1       -8.113383   1.000000
    2       -0.320521   1.000000
    3        2.891650   1.000000
    4        4.065703   1.000000
    5        8.059924   0.000000
    6        9.548585   0.000000
    7        9.990446   0.000000
    8       12.466392   0.000000
 
 -0.2173913E+00  0.8695652E-01  0.0000000E+00  0.1972549E-02
    1       -8.428487   1.000000
    2        0.548452   1.000000
    3        3.058512   1.000000
    4        4.299743   1.000000
    5        8.170395   0.000000
    6        9.320126   0.000000
    7        9.879808   0.000000
    8       11.971881   0.000000
 
 -0.1739130E+00  0.8695652E-01  0.0000000E+00  0.1972549E-02
    1       -8.702952   1.000000
    2        1.449421   1.000000
    3        3.276702   1.000000
    4        4.532017   1.000000
    5        8.279541   0.000000
    6        9.052483   0.000000
    7        9.639229   0.000000
    8       11.483347   0.000000
 
 -0.1304348E+00  0.8695652E-01  0.0000000E+00  0.1972549E-02
    1       -8.929903   1.000000
    2        2.338013   1.000000
    3        3.558340   1.000000
    4        4.739289   1.000000
    5        8.360150   0.000000
    6        8.785154   0.000000
    7        9.314126   0.000000
    8       10.965614   0.000000
 
 -0.8695652E-01  0.8695652E-01  0.0000000E+00  0.9862743E-03
    1       -9.105221   1.000000
    2        3.119850   1.000000
    3        3.946303   1.000000
    4        4.888974   1.000000
    5        8.354135   0.000000
    6        8.574029   0.000000
    7        9.007003   0.000000
    8       10.400139   0.000000
 
  0.1304348E+00  0.1304348E+00  0.0000000E+00  0.4931372E-03
    1       -9.066942   1.000000
    2        3.467192   1.000000
    3        4.004322   1.000000
    4        4.004322   1.000000
    5        7.578715   0.000000
    6        9.704980   0.000000
    7        9.704980   0.000000
    8        9.780560   0.000000
 
  0.1739130E+00  0.1304348E+00  0.0000000E+00  0.1972549E-02
    1       -8.927722   1.000000
    2        2.821737   1.000000
    3        3.750255   1.000000
    4        3.845561   1.000000
    5        7.528953   0.000000
    6        9.612518   0.000000
    7       10.081478   0.000000
    8       10.393746   0.000000
 
  0.2173913E+00  0.1304348E+00  0.0000000E+00  0.1972549E-02
    1       -8.735364   1.000000
    2        1.990647   1.000000
    3        3.517555   1.000000
    4        3.676331   1.000000
    5        7.644731   0.000000
    6        9.504804   0.000000
    7       10.423693   0.000000
    8       10.899425   0.000000
 
  0.2608696E+00  0.1304348E+00  0.0000000E+00  0.1972549E-02
    1       -8.492841   1.000000
    2        1.118244   1.000000
    3        3.317200   1.000000
    4        3.448892   1.000000
    5        7.825477   0.000000
    6        9.460610   0.000000
    7       10.693035   0.000000
    8       11.233349   0.000000
 
  0.3043478E+00  0.1304348E+00  0.0000000E+00  0.1972549E-02
    1       -8.205129   1.000000
    2        0.253263   1.000000
    3        3.156045   1.000000
    4        3.193679   1.000000
    5        7.967340   0.000000
    6        9.501702   0.000000
    7       10.863189   0.000000
    8       11.486099   0.000000
 
  0.3478261E+00  0.1304348E+00  0.0000000E+00  0.1972549E-02
    1       -7.880466   1.000000
    2       -0.573198   1.000000
    3        2.936906   1.000000
    4        3.038286   1.000000
    5        8.027632   0.000000
    6        9.594199   0.000000
    7       10.929578   0.000000
    8       11.788292   0.000000
 
  0.3913043E+00  0.1304348E+00  0.0000000E+00  0.1972549E-02
    1       -7.533253   1.000000
    2       -1.333100   1.000000
    3        2.695355   1.000000
    4        2.966215   1.000000
    5        8.031673   0.000000
    6        9.674915   0.000000
    7       10.909150   0.000000
    8       12.210759   0.000000
 
  0.4347826E+00  0.1304348E+00  0.0000000E+00  0.1972549E-02
    1       -7.189039   1.000000
    2       -1.992248   1.000000
    3        2.479750   1.000000
    4        2.940825   1.000000
    5        8.018392   0.000000
    6        9.723268   0.000000
    7       10.829790   0.000000
    8       12.730332   0.000000
 
  0.4782609E+00  0.1304348E+00  0.0000000E+00  0.1972549E-02
    1       -6.892993   1.000000
    2       -2.500123   1.000000
    3        2.297289   1.000000
    4        2.961931   1.000000
    5        8.012296   0.000000
    6        9.756718   0.000000
    7       10.718187   0.000000
    8       13.259190   0.000000
 
 -0.4782609E+00  0.1304348E+00  0.0000000E+00  0.1972549E-02
    1       -6.713755   1.000000
    2       -2.784918   1.000000
    3        2.153171   1.000000
    4        3.028449   1.000000
    5        8.024794   0.000000
    6        9.797102   0.000000
    7       10.593400   0.000000
    8       13.674148   0.000000
 
 -0.4347826E+00  0.1304348E+00  0.0000000E+00  0.1972549E-02
    1       -6.715482   1.000000
    2       -2.781089   1.000000
    3        2.051482   1.000000
    4        3.138340   1.000000
    5        8.059652   0.000000
    6        9.858169   0.000000
    7       10.464975   0.000000
    8       13.849374   0.000000
 
 -0.3913043E+00  0.1304348E+00  0.0000000E+00  0.1972549E-02
    1       -6.897348   1.000000
    2       -2.489695   1.000000
    3        1.995626   1.000000
    4        3.288527   1.000000
    5        8.116323   0.000000
    6        9.944209   0.000000
    7       10.332890   0.000000
    8       13.726187   0.000000
 
 -0.3478261E+00  0.1304348E+00  0.0000000E+00  0.1972549E-02
    1       -7.194540   1.000000
    2       -1.977584   1.000000
    3        1.988722   1.000000
    4        3.474655   1.000000
    5        8.191872   0.000000
    6       10.048888   0.000000
    7       10.188196   0.000000
    8       13.353578   0.000000
 
 -0.3043478E+00  0.1304348E+00  0.0000000E+00  0.1972549E-02
    1       -7.538841   1.000000
    2       -1.317456   1.000000
    3        2.034206   1.000000
    4        3.690654   1.000000
    5        8.281692   0.000000
    6       10.015424   0.000000
    7       10.150802   0.000000
    8       12.844615   0.000000
 
 -0.2608696E+00  0.1304348E+00  0.0000000E+00  0.1972549E-02
    1       -7.885617   1.000000
    2       -0.562487   1.000000
    3        2.136941   1.000000
    4        3.927912   1.000000
    5        8.378794   0.000000
    6        9.799382   0.000000
    7       10.203771   0.000000
    8       12.317158   0.000000
 
 -0.2173913E+00  0.1304348E+00  0.0000000E+00  0.1972549E-02
    1       -8.209602   1.000000
    2        0.245240   1.000000
    3        2.306460   1.000000
    4        4.173915   1.000000
    5        8.471145   0.000000
    6        9.537226   0.000000
    7       10.132678   0.000000
    8       11.875973   0.000000
 
 -0.1739130E+00  0.1304348E+00  0.0000000E+00  0.1972549E-02
    1       -8.496557   1.000000
    2        1.055411   1.000000
    3        2.565981   1.000000
    4        4.410157   1.000000
    5        8.534409   0.000000
    6        9.249298   0.000000
    7        9.892708   0.000000
    8       11.564963   0.000000
 
 -0.1304348E+00  0.1304348E+00  0.0000000E+00  0.9862743E-03
    1       -8.738303   1.000000
    2        1.783067   1.000000
    3        2.969284   1.000000
    4        4.610003   1.000000
    5        8.517632   0.000000
    6        8.979549   0.000000
    7        9.572330   0.000000
    8       11.297561   0.000000
 
  0.1739130E+00  0.1739130E+00  0.0000000E+00  0.4931372E-03
    1       -8.807011   1.000000
    2        2.609980   1.000000
    3        3.489860   1.000000
    4        3.489860   1.000000
    5        7.272346   0.000000
    6        9.965187   0.000000
    7       10.495970   0.000000
    8       10.495970   0.000000
 
  0.2173913E+00  0.1739130E+00  0.0000000E+00  0.1972549E-02
    1       -8.632902   1.000000
    2        2.015099   1.000000
    3        3.251398   1.000000
    4        3.282858   1.000000
    5        7.229663   0.000000
    6        9.851020   0.000000
    7       10.883383   0.000000
    8       10.921927   0.000000
 
  0.2608696E+00  0.1739130E+00  0.0000000E+00  0.1972549E-02
    1       -8.407979   1.000000
    2        1.263943   1.000000
    3        3.046081   1.000000
    4        3.057828   1.000000
    5        7.361706   0.000000
    6        9.741891   0.000000
    7       11.176200   0.000000
    8       11.203190   0.000000
 
  0.3043478E+00  0.1739130E+00  0.0000000E+00  0.1972549E-02
    1       -8.136507   1.000000
    2        0.470353   1.000000
    3        2.786884   1.000000
    4        2.881104   1.000000
    5        7.563264   0.000000
    6        9.741595   0.000000
    7       11.271463   0.000000
    8       11.423113   0.000000
 
  0.3478261E+00  0.1739130E+00  0.0000000E+00  0.1972549E-02
    1       -7.825535   1.000000
    2       -0.315627   1.000000
    3        2.497521   1.000000
    4        2.760952   1.000000
    5        7.730334   0.000000
    6        9.878549   0.000000
    7       11.336997   0.000000
    8       11.529872   0.000000
 
  0.3913043E+00  0.1739130E+00  0.0000000E+00  0.1972549E-02
    1       -7.487150   1.000000
    2       -1.058926   1.000000
    3        2.214557   1.000000
    4        2.688210   1.000000
    5        7.824380   0.000000
    6       10.080991   0.000000
    7       11.516001   0.000000
    8       11.533859   0.000000
 
  0.4347826E+00  0.1739130E+00  0.0000000E+00  0.1972549E-02
    1       -7.142543   1.000000
    2       -1.724196   1.000000
    3        1.954167   1.000000
    4        2.664060   1.000000
    5        7.871615   0.000000
    6       10.221387   0.000000
    7       11.461151   0.000000
    8       11.913570   0.000000
 
  0.4782609E+00  0.1739130E+00  0.0000000E+00  0.1972549E-02
    1       -6.829375   1.000000
    2       -2.265014   1.000000
    3        1.726803   1.000000
    4        2.688549   1.000000
    5        7.909713   0.000000
    6       10.276824   0.000000
    7       11.340455   0.000000
    8       12.493495   0.000000
 
 -0.4782609E+00  0.1739130E+00  0.0000000E+00  0.1972549E-02
    1       -6.608440   1.000000
    2       -2.615210   1.000000
    3        1.539643   1.000000
    4        2.760652   1.000000
    5        7.961967   0.000000
    6       10.298120   0.000000
    7       11.193801   0.000000
    8       13.122607   0.000000
 
 -0.4347826E+00  0.1739130E+00  0.0000000E+00  0.1972549E-02
    1       -6.549613   1.000000
    2       -2.702438   1.000000
    3        1.398226   1.000000
    4        2.878326   1.000000
    5        8.038086   0.000000
    6       10.322876   0.000000
    7       11.033369   0.000000
    8       13.610046   0.000000
 
 -0.3913043E+00  0.1739130E+00  0.0000000E+00  0.1972549E-02
    1       -6.676611   1.000000
    2       -2.502879   1.000000
    3        1.307472   1.000000
    4        3.038321   1.000000
    5        8.138907   0.000000
    6       10.368886   0.000000
    7       10.861094   0.000000
    8       13.689359   0.000000
 
 -0.3478261E+00  0.1739130E+00  0.0000000E+00  0.1972549E-02
    1       -6.940560   1.000000
    2       -2.068449   1.000000
    3        1.272662   1.000000
    4        3.235847   1.000000
    5        8.259287   0.000000
    6       10.441152   0.000000
    7       10.669434   0.000000
    8       13.321549   0.000000
 
 -0.3043478E+00  0.1739130E+00  0.0000000E+00  0.1972549E-02
    1       -7.270726   1.000000
    2       -1.477323   1.000000
    3        1.301220   1.000000
    4        3.464112   1.000000
    5        8.389424   0.000000
    6       10.444670   0.000000
    7       10.530732   0.000000
    8       12.746643   0.000000
 
 -0.2608696E+00  0.1739130E+00  0.0000000E+00  0.1972549E-02
    1       -7.615646   1.000000
    2       -0.797301   1.000000
    3        1.406564   1.000000
    4        3.713279   1.000000
    5        8.514432   0.000000
    6       10.175070   0.000000
    7       10.598191   0.000000
    8       12.157518   0.000000
 
 -0.2173913E+00  0.1739130E+00  0.0000000E+00  0.1972549E-02
    1       -7.945064   1.000000
    2       -0.093696   1.000000
    3        1.617392   1.000000
    4        3.969131   1.000000
    5        8.611051   0.000000
    6        9.863968   0.000000
    7       10.531986   0.000000
    8       11.729732   0.000000
 
 -0.1739130E+00  0.1739130E+00  0.0000000E+00  0.9862743E-03
    1       -8.241988   1.000000
    2        0.548729   1.000000
    3        1.989489   1.000000
    4        4.210993   1.000000
    5        8.638663   0.000000
    6        9.539027   0.000000
    7       10.238772   0.000000
    8       11.585305   0.000000
 
  0.2173913E+00  0.2173913E+00  0.0000000E+00  0.4931372E-03
    1       -8.477094   1.000000
    2        1.720900   1.000000
    3        3.006162   1.000000
    4        3.006162   1.000000
    5        6.982734   0.000000
    6        9.736582   0.000000
    7       11.326019   0.000000
    8       11.326019   0.000000
 
  0.2608696E+00  0.2173913E+00  0.0000000E+00  0.1972549E-02
    1       -8.270201   1.000000
    2        1.173974   1.000000
    3        2.772442   1.000000
    4        2.793729   1.000000
    5        6.958203   0.000000
    6        9.534593   0.000000
    7       11.653386   0.000000
    8       11.709583   0.000000
 
  0.3043478E+00  0.2173913E+00  0.0000000E+00  0.1972549E-02
    1       -8.015920   1.000000
    2        0.515112   1.000000
    3        2.488382   1.000000
    4        2.621816   1.000000
    5        7.108971   0.000000
    6        9.422451   0.000000
    7       11.772971   0.000000
    8       11.996130   0.000000
 