 running on   48 total cores
 distrk:  each k-point on   12 cores,    4 groups
 distr:  one band on   12 cores,    1 groups
 using from now: INCAR     
 vasp.5.4.4.18Apr17-6-g9f103f2a35 (build Nov 04 2020 14:40:39) complex          
  
 POSCAR found type information on POSCAR  B  As
 POSCAR found :  2 types and       2 ions
 scaLAPACK will be used

 ----------------------------------------------------------------------------- 
|                                                                             |
|           W    W    AA    RRRRR   N    N  II  N    N   GGGG   !!!           |
|           W    W   A  A   R    R  NN   N  II  NN   N  G    G  !!!           |
|           W    W  A    A  R    R  N N  N  II  N N  N  G       !!!           |
|           W WW W  AAAAAA  RRRRR   N  N N  II  N  N N  G  GGG   !            |
|           WW  WW  A    A  R   R   N   NN  II  N   NN  G    G                |
|           W    W  A    A  R    R  N    N  II  N    N   GGGG   !!!           |
|                                                                             |
|      You have enabled k-point parallelism (KPAR>1).                         |
|      This developmental code was originally  written by Paul Kent at ORNL,  |
|      and carefully double checked in Vienna.                                |
|      GW as well as linear response parallelism added by Martijn Marsman     |
|      and Georg Kresse.                                                      |
|      Carefully verify results versus KPAR=1.                                |
|      Report problems to Paul Kent and Vienna.                               |
|                                                                             |
 ----------------------------------------------------------------------------- 

 LDA part: xc-table for Pade appr. of Perdew
 POSCAR found type information on POSCAR  B  As
 POSCAR found :  2 types and       2 ions
 generate k-points for:   23   23   23
 POSCAR, INCAR and KPOINTS ok, starting setup
 FFT: planning ...
 WAVECAR not read
 entering main loop
       N       E                     dE             d eps       ncg     rms          rms(c)
DAV:   1     0.985540378404E+01    0.98554E+01   -0.38882E+03  5824   0.866E+02
DAV:   2    -0.115013052374E+02   -0.21357E+02   -0.20967E+02  9144   0.101E+02
DAV:   3    -0.117929603165E+02   -0.29166E+00   -0.29166E+00  6880   0.141E+01
DAV:   4    -0.117933971903E+02   -0.43687E-03   -0.43687E-03  8664   0.557E-01
DAV:   5    -0.117933974613E+02   -0.27100E-06   -0.27100E-06  6680   0.840E-03    0.352E+00
RMM:   6    -0.113575484782E+02    0.43585E+00   -0.49119E-01  5897   0.445E+00    0.154E+00
RMM:   7    -0.113171468618E+02    0.40402E-01   -0.71247E-02  6212   0.173E+00    0.717E-01
RMM:   8    -0.113119469195E+02    0.51999E-02   -0.19317E-02  6244   0.106E+00    0.817E-02
RMM:   9    -0.113123345942E+02   -0.38767E-03   -0.11315E-03  6595   0.241E-01    0.473E-02
RMM:  10    -0.113122633832E+02    0.71211E-04   -0.83235E-05  6538   0.716E-02    0.152E-02
RMM:  11    -0.113122663545E+02   -0.29713E-05   -0.74623E-05  6356   0.526E-02    0.118E-02
RMM:  12    -0.113122582523E+02    0.81022E-05   -0.96473E-06  6366   0.206E-02    0.535E-04
RMM:  13    -0.113122582869E+02   -0.34618E-07   -0.16412E-07  4322   0.309E-03
   1 F= -.11312258E+02 E0= -.11312258E+02  d E =0.000000E+00
