   3   3   0   0
  0.1840710E+02  0.4274387E-09  0.4274387E-09  0.4274387E-09  0.5000000E-15
  1.000000000000000E-004
  CAR
 unknown system
     16.01004397    -22.70826875  301     11.12969855      1.00000000
    -22.708  0.0000E+00  0.0000E+00
    -22.579  0.0000E+00  0.0000E+00
    -22.450  0.0000E+00  0.0000E+00
    -22.321  0.0000E+00  0.0000E+00
    -22.192  0.0000E+00  0.0000E+00
    -22.063  0.0000E+00  0.0000E+00
    -21.934  0.0000E+00  0.0000E+00
    -21.805  0.0000E+00  0.0000E+00
    -21.676  0.0000E+00  0.0000E+00
    -21.547  0.0000E+00  0.0000E+00
    -21.418  0.0000E+00  0.0000E+00
    -21.289  0.0000E+00  0.0000E+00
    -21.160  0.0000E+00  0.0000E+00
    -21.030  0.0000E+00  0.0000E+00
    -20.901  0.4134E+02  0.5335E+01
    -20.772  0.0000E+00  0.6000E+01
    -20.643  0.0000E+00  0.6000E+01
    -20.514  0.0000E+00  0.6000E+01
    -20.385  0.0000E+00  0.6000E+01
    -20.256  0.0000E+00  0.6000E+01
    -20.127  0.0000E+00  0.6000E+01
    -19.998  0.0000E+00  0.6000E+01
    -19.869  0.0000E+00  0.6000E+01
    -19.740  0.0000E+00  0.6000E+01
    -19.611  0.0000E+00  0.6000E+01
    -19.482  0.0000E+00  0.6000E+01
    -19.353  0.0000E+00  0.6000E+01
    -19.224  0.0000E+00  0.6000E+01
    -19.095  0.0000E+00  0.6000E+01
    -18.965  0.0000E+00  0.6000E+01
    -18.836  0.0000E+00  0.6000E+01
    -18.707  0.0000E+00  0.6000E+01
    -18.578  0.0000E+00  0.6000E+01
    -18.449  0.0000E+00  0.6000E+01
    -18.320  0.0000E+00  0.6000E+01
    -18.191  0.0000E+00  0.6000E+01
    -18.062  0.0000E+00  0.6000E+01
    -17.933  0.0000E+00  0.6000E+01
    -17.804  0.0000E+00  0.6000E+01
    -17.675  0.0000E+00  0.6000E+01
    -17.546  0.0000E+00  0.6000E+01
    -17.417  0.0000E+00  0.6000E+01
    -17.288  0.0000E+00  0.6000E+01
    -17.159  0.0000E+00  0.6000E+01
    -17.030  0.0000E+00  0.6000E+01
    -16.901  0.0000E+00  0.6000E+01
    -16.771  0.0000E+00  0.6000E+01
    -16.642  0.0000E+00  0.6000E+01
    -16.513  0.0000E+00  0.6000E+01
    -16.384  0.0000E+00  0.6000E+01
    -16.255  0.0000E+00  0.6000E+01
    -16.126  0.0000E+00  0.6000E+01
    -15.997  0.0000E+00  0.6000E+01
    -15.868  0.0000E+00  0.6000E+01
    -15.739  0.0000E+00  0.6000E+01
    -15.610  0.0000E+00  0.6000E+01
    -15.481  0.0000E+00  0.6000E+01
    -15.352  0.0000E+00  0.6000E+01
    -15.223  0.0000E+00  0.6000E+01
    -15.094  0.0000E+00  0.6000E+01
    -14.965  0.0000E+00  0.6000E+01
    -14.836  0.0000E+00  0.6000E+01
    -14.706  0.0000E+00  0.6000E+01
    -14.577  0.0000E+00  0.6000E+01
    -14.448  0.0000E+00  0.6000E+01
    -14.319  0.0000E+00  0.6000E+01
    -14.190  0.0000E+00  0.6000E+01
    -14.061  0.0000E+00  0.6000E+01
    -13.932  0.0000E+00  0.6000E+01
    -13.803  0.0000E+00  0.6000E+01
    -13.674  0.0000E+00  0.6000E+01
    -13.545  0.0000E+00  0.6000E+01
    -13.416  0.0000E+00  0.6000E+01
    -13.287  0.0000E+00  0.6000E+01
    -13.158  0.0000E+00  0.6000E+01
    -13.029  0.0000E+00  0.6000E+01
    -12.900  0.0000E+00  0.6000E+01
    -12.771  0.0000E+00  0.6000E+01
    -12.642  0.0000E+00  0.6000E+01
    -12.512  0.0000E+00  0.6000E+01
    -12.383  0.0000E+00  0.6000E+01
    -12.254  0.0000E+00  0.6000E+01
    -12.125  0.0000E+00  0.6000E+01
    -11.996  0.0000E+00  0.6000E+01
    -11.867  0.0000E+00  0.6000E+01
    -11.738  0.0000E+00  0.6000E+01
    -11.609  0.0000E+00  0.6000E+01
    -11.480  0.0000E+00  0.6000E+01
    -11.351  0.0000E+00  0.6000E+01
    -11.222  0.0000E+00  0.6000E+01
    -11.093  0.0000E+00  0.6000E+01
    -10.964  0.0000E+00  0.6000E+01
    -10.835  0.0000E+00  0.6000E+01
    -10.706  0.0000E+00  0.6000E+01
    -10.577  0.0000E+00  0.6000E+01
    -10.447  0.0000E+00  0.6000E+01
    -10.318  0.0000E+00  0.6000E+01
    -10.189  0.0000E+00  0.6000E+01
    -10.060  0.0000E+00  0.6000E+01
     -9.931  0.0000E+00  0.6000E+01
     -9.802  0.0000E+00  0.6000E+01
     -9.673  0.0000E+00  0.6000E+01
     -9.544  0.0000E+00  0.6000E+01
     -9.415  0.0000E+00  0.6000E+01
     -9.286  0.0000E+00  0.6000E+01
     -9.157  0.0000E+00  0.6000E+01
     -9.028  0.0000E+00  0.6000E+01
     -8.899  0.0000E+00  0.6000E+01
     -8.770  0.0000E+00  0.6000E+01
     -8.641  0.0000E+00  0.6000E+01
     -8.512  0.0000E+00  0.6000E+01
     -8.382  0.0000E+00  0.6000E+01
     -8.253  0.0000E+00  0.6000E+01
     -8.124  0.0000E+00  0.6000E+01
     -7.995  0.0000E+00  0.6000E+01
     -7.866  0.0000E+00  0.6000E+01
     -7.737  0.0000E+00  0.6000E+01
     -7.608  0.0000E+00  0.6000E+01
     -7.479  0.0000E+00  0.6000E+01
     -7.350  0.0000E+00  0.6000E+01
     -7.221  0.0000E+00  0.6000E+01
     -7.092  0.0000E+00  0.6000E+01
     -6.963  0.0000E+00  0.6000E+01
     -6.834  0.0000E+00  0.6000E+01
     -6.705  0.0000E+00  0.6000E+01
     -6.576  0.0000E+00  0.6000E+01
     -6.447  0.0000E+00  0.6000E+01
     -6.318  0.0000E+00  0.6000E+01
     -6.188  0.0000E+00  0.6000E+01
     -6.059  0.0000E+00  0.6000E+01
     -5.930  0.0000E+00  0.6000E+01
     -5.801  0.0000E+00  0.6000E+01
     -5.672  0.0000E+00  0.6000E+01
     -5.543  0.0000E+00  0.6000E+01
     -5.414  0.0000E+00  0.6000E+01
     -5.285  0.0000E+00  0.6000E+01
     -5.156  0.0000E+00  0.6000E+01
     -5.027  0.0000E+00  0.6000E+01
     -4.898  0.0000E+00  0.6000E+01
     -4.769  0.0000E+00  0.6000E+01
     -4.640  0.0000E+00  0.6000E+01
     -4.511  0.0000E+00  0.6000E+01
     -4.382  0.0000E+00  0.6000E+01
     -4.253  0.0000E+00  0.6000E+01
     -4.123  0.0000E+00  0.6000E+01
     -3.994  0.0000E+00  0.6000E+01
     -3.865  0.0000E+00  0.6000E+01
     -3.736  0.0000E+00  0.6000E+01
     -3.607  0.0000E+00  0.6000E+01
     -3.478  0.0000E+00  0.6000E+01
     -3.349  0.0000E+00  0.6000E+01
     -3.220  0.0000E+00  0.6000E+01
     -3.091  0.1354E-11  0.6000E+01
     -2.962  0.4044E-01  0.6006E+01
     -2.833  0.5078E-01  0.6020E+01
     -2.704  0.2257E+00  0.6054E+01
     -2.575  0.4568E-01  0.6060E+01
     -2.446  0.5824E-01  0.6110E+01
     -2.317  0.2257E+00  0.6154E+01
     -2.188  0.4623E+00  0.6214E+01
     -2.059  0.1694E+00  0.6258E+01
     -1.929  0.5044E-01  0.6308E+01
     -1.800  0.4306E+00  0.6408E+01
     -1.671  0.2333E+00  0.6492E+01
     -1.542  0.5006E+00  0.6597E+01
     -1.413  0.7866E+00  0.6805E+01
     -1.284  0.1046E+01  0.6997E+01
     -1.155  0.2874E+01  0.7517E+01
     -1.026  0.5079E+00  0.8000E+01
     -0.897  0.0000E+00  0.8000E+01
     -0.768  0.0000E+00  0.8000E+01
     -0.639  0.0000E+00  0.8000E+01
     -0.510  0.0000E+00  0.8000E+01
     -0.381  0.0000E+00  0.8000E+01
     -0.252  0.0000E+00  0.8000E+01
     -0.123  0.0000E+00  0.8000E+01
      0.006  0.0000E+00  0.8000E+01
      0.136  0.0000E+00  0.8000E+01
      0.265  0.0000E+00  0.8000E+01
      0.394  0.0000E+00  0.8000E+01
      0.523  0.0000E+00  0.8000E+01
      0.652  0.0000E+00  0.8000E+01
      0.781  0.0000E+00  0.8000E+01
      0.910  0.0000E+00  0.8000E+01
      1.039  0.0000E+00  0.8000E+01
      1.168  0.0000E+00  0.8000E+01
      1.297  0.0000E+00  0.8000E+01
      1.426  0.0000E+00  0.8000E+01
      1.555  0.0000E+00  0.8000E+01
      1.684  0.0000E+00  0.8000E+01
      1.813  0.0000E+00  0.8000E+01
      1.942  0.0000E+00  0.8000E+01
      2.071  0.0000E+00  0.8000E+01
      2.201  0.0000E+00  0.8000E+01
      2.330  0.7879E-11  0.8000E+01
      2.459  0.3022E+00  0.8046E+01
      2.588  0.1820E+01  0.8379E+01
      2.717  0.1903E+01  0.8854E+01
      2.846  0.1221E+01  0.9194E+01
      2.975  0.1351E+01  0.9489E+01
      3.104  0.8180E+00  0.9726E+01
      3.233  0.9001E+00  0.9864E+01
      3.362  0.1597E-11  0.9917E+01
      3.491  0.5198E+00  0.1004E+02
      3.620  0.2560E+01  0.1048E+02
      3.749  0.2402E+01  0.1123E+02
      3.878  0.1958E+01  0.1174E+02
      4.007  0.3176E+01  0.1240E+02
      4.136  0.2245E+01  0.1291E+02
      4.265  0.1542E+01  0.1338E+02
      4.395  0.1414E+01  0.1373E+02
      4.524  0.8949E+00  0.1395E+02
      4.653  0.8464E-01  0.1401E+02
      4.782  0.1940E+00  0.1404E+02
      4.911  0.1621E+01  0.1430E+02
      5.040  0.4218E+01  0.1501E+02
      5.169  0.5865E+01  0.1634E+02
      5.298  0.4592E+01  0.1721E+02
      5.427  0.3182E+01  0.1792E+02
      5.556  0.1703E+01  0.1825E+02
      5.685  0.1559E+01  0.1865E+02
      5.814  0.1791E+01  0.1899E+02
      5.943  0.1124E+01  0.1922E+02
      6.072  0.7597E+00  0.1942E+02
      6.201  0.4861E+00  0.1959E+02
      6.330  0.3822E+00  0.1970E+02
      6.460  0.5669E+00  0.1988E+02
      6.589  0.7886E+00  0.1999E+02
      6.718  0.6600E+00  0.2010E+02
      6.847  0.7173E+00  0.2030E+02
      6.976  0.9118E+00  0.2051E+02
      7.105  0.5925E+00  0.2060E+02
      7.234  0.1248E+01  0.2076E+02
      7.363  0.9961E+00  0.2100E+02
      7.492  0.7617E+00  0.2113E+02
      7.621  0.9025E+00  0.2137E+02
      7.750  0.1473E+01  0.2167E+02
      7.879  0.4451E+01  0.2234E+02
      8.008  0.7937E+00  0.2260E+02
      8.137  0.1861E+01  0.2301E+02
      8.266  0.1907E+01  0.2333E+02
      8.395  0.1291E+01  0.2362E+02
      8.525  0.6284E+00  0.2375E+02
      8.654  0.4974E+00  0.2387E+02
      8.783  0.1905E+00  0.2393E+02
      8.912  0.3326E-08  0.2397E+02
      9.041  0.1058E+00  0.2400E+02
      9.170  0.0000E+00  0.2400E+02
      9.299  0.0000E+00  0.2400E+02
      9.428  0.0000E+00  0.2400E+02
      9.557  0.0000E+00  0.2400E+02
      9.686  0.0000E+00  0.2400E+02
      9.815  0.0000E+00  0.2400E+02
      9.944  0.0000E+00  0.2400E+02
     10.073  0.0000E+00  0.2400E+02
     10.202  0.0000E+00  0.2400E+02
     10.331  0.1267E+00  0.2402E+02
     10.460  0.3012E+00  0.2408E+02
     10.589  0.4804E+00  0.2420E+02
     10.719  0.5283E+00  0.2431E+02
     10.848  0.6152E+00  0.2445E+02
     10.977  0.9366E+00  0.2466E+02
     11.106  0.1716E+01  0.2494E+02
     11.235  0.1089E+01  0.2520E+02
     11.364  0.3218E+01  0.2577E+02
     11.493  0.1740E+01  0.2618E+02
     11.622  0.1509E+01  0.2645E+02
     11.751  0.1853E+01  0.2685E+02
     11.880  0.4026E+01  0.2741E+02
     12.009  0.2290E+01  0.2801E+02
     12.138  0.1633E+01  0.2836E+02
     12.267  0.1556E+01  0.2873E+02
     12.396  0.2698E+01  0.2927E+02
     12.525  0.1205E+01  0.2954E+02
     12.654  0.5039E+00  0.2970E+02
     12.784  0.1792E+01  0.3000E+02
     12.913  0.1524E+01  0.3033E+02
     13.042  0.2445E+00  0.3045E+02
     13.171  0.1525E+01  0.3071E+02
     13.300  0.2774E+01  0.3115E+02
     13.429  0.1499E+01  0.3151E+02
     13.558  0.1265E+01  0.3174E+02
     13.687  0.6797E+00  0.3187E+02
     13.816  0.7759E+00  0.3197E+02
     13.945  0.0000E+00  0.3199E+02
     14.074  0.0000E+00  0.3199E+02
     14.203  0.9027E-12  0.3199E+02
     14.332  0.0000E+00  0.3200E+02
     14.461  0.0000E+00  0.3200E+02
     14.590  0.0000E+00  0.3200E+02
     14.719  0.0000E+00  0.3200E+02
     14.848  0.0000E+00  0.3200E+02
     14.978  0.0000E+00  0.3200E+02
     15.107  0.0000E+00  0.3200E+02
     15.236  0.0000E+00  0.3200E+02
     15.365  0.0000E+00  0.3200E+02
     15.494  0.0000E+00  0.3200E+02
     15.623  0.0000E+00  0.3200E+02
     15.752  0.0000E+00  0.3200E+02
     15.881  0.0000E+00  0.3200E+02
     16.010  0.0000E+00  0.3200E+02
