    3    3    1    1
  0.1840710E+02  0.4274387E-09  0.4274387E-09  0.4274387E-09  0.5000000E-15
  1.000000000000000E-004
  CAR
 unknown system
     25     84     16

  0.0000000E+00  0.0000000E+00  0.0000000E+00  0.4551661E-03
    1      -20.908004   1.000000
    2      -20.908004   1.000000
    3      -20.908004   1.000000
    4       -3.046722   1.000000
    5        4.003352   1.000000
    6        4.003352   1.000000
    7        4.003352   1.000000
    8        4.790440   1.000000
    9        4.790440   1.000000
   10        9.015194   1.000000
   11        9.015194   1.000000
   12        9.015194   1.000000
   13       11.120287   0.908411
   14       12.139274   0.000000
   15       12.139274   0.000000
   16       12.139274   0.000000

  0.7692308E-01 -0.3248500E-17  0.2113725E-17  0.3641329E-02
    1      -20.910320   1.000000
    2      -20.907763   1.000000
    3      -20.907763   1.000000
    4       -2.965968   1.000000
    5        3.929438   1.000000
    6        3.950163   1.000000
    7        3.950163   1.000000
    8        4.858082   1.000000
    9        4.858082   1.000000
   10        8.519608   1.000000
   11        8.950026   1.000000
   12        8.950026   1.000000
   13       11.101392   0.999969
   14       11.955320   0.000000
   15       11.955320   0.000000
   16       12.720878   0.000000

  0.1538462E+00  0.5264753E-17 -0.7534303E-17  0.3641329E-02
    1      -20.916654   1.000000
    2      -20.907081   1.000000
    3      -20.907081   1.000000
    4       -2.732165   1.000000
    5        3.721868   1.000000
    6        3.845572   1.000000
    7        3.845572   1.000000
    8        4.995491   1.000000
    9        4.995491   1.000000
   10        7.572346   1.000000
   11        8.788923   1.000000
   12        8.788923   1.000000
   13       11.131064   0.423463
   14       11.823735   0.000000
   15       11.823735   0.000000
   16       13.497245   0.000000

  0.2307692E+00 -0.6618422E-17  0.3214098E-17  0.3641329E-02
    1      -20.925428   1.000000
    2      -20.906125   1.000000
    3      -20.906125   1.000000
    4       -2.372100   1.000000
    5        3.410507   1.000000
    6        3.757022   1.000000
    7        3.757022   1.000000
    8        5.109361   1.000000
    9        5.109361   1.000000
   10        6.660190   1.000000
   11        8.609161   1.000000
   12        8.609161   1.000000
   13       11.188010   0.000000
   14       11.833295   0.000000
   15       11.833295   0.000000
   16       14.250121   0.000000

  0.3076923E+00  0.1052951E-16 -0.1506861E-16  0.3641329E-02
    1      -20.934551   1.000000
    2      -20.905112   1.000000
    3      -20.905112   1.000000
    4       -1.935908   1.000000
    5        3.029159   1.000000
    6        3.709430   1.000000
    7        3.709430   1.000000
    8        5.152381   1.000000
    9        5.152381   1.000000
   10        5.950067   1.000000
   11        8.477086   1.000000
   12        8.477086   1.000000
   13       11.247048   0.000000
   14       11.955607   0.000000
   15       11.955607   0.000000
   16       13.749739   0.000000

  0.3846154E+00  0.1252412E-16 -0.1819799E-16  0.3641329E-02
    1      -20.941958   1.000000
    2      -20.904279   1.000000
    3      -20.904279   1.000000
    4       -1.508846   1.000000
    5        2.640805   1.000000
    6        3.698970   1.000000
    7        3.698970   1.000000
    8        5.132189   1.000000
    9        5.132189   1.000000
   10        5.493868   1.000000
   11        8.411584   1.000000
   12        8.411584   1.000000
   13       11.300910   0.000000
   14       12.139107   0.000000
   15       12.139107   0.000000
   16       12.902416   0.000000

  0.4615385E+00  0.1916472E-17 -0.8725121E-17  0.3641329E-02
    1      -20.946078   1.000000
    2      -20.903804   1.000000
    3      -20.903804   1.000000
    4       -1.225219   1.000000
    5        2.374191   1.000000
    6        3.704522   1.000000
    7        3.704522   1.000000
    8        5.098489   1.000000
    9        5.098489   1.000000
   10        5.279597   1.000000
   11        8.391173   1.000000
   12        8.391173   1.000000
   13       11.341688   0.000000
   14       12.288580   0.000000
   15       12.288580   0.000000
   16       12.422510   0.000000

  0.7692308E-01  0.7692308E-01 -0.8668881E-18  0.2730997E-02
    1      -20.910248   1.000000
    2      -20.908104   1.000000
    3      -20.908104   1.000000
    4       -2.939495   1.000000
    5        3.728498   1.000000
    6        4.039133   1.000000
    7        4.039133   1.000000
    8        4.830064   1.000000
    9        4.898101   1.000000
   10        8.607818   1.000000
   11        8.803664   1.000000
   12        8.803664   1.000000
   13       11.037130   1.000000
   14       11.973824   0.000000
   15       12.463945   0.000000
   16       12.463983   0.000000

  0.1538462E+00  0.7692308E-01 -0.1431354E-17  0.1092399E-01
    1      -20.914940   1.000000
    2      -20.907954   1.000000
    3      -20.907542   1.000000
    4       -2.758158   1.000000
    5        3.491447   1.000000
    6        4.005409   1.000000
    7        4.024501   1.000000
    8        4.922822   1.000000
    9        4.993425   1.000000
   10        7.870868   1.000000
   11        8.603137   1.000000
   12        8.715142   1.000000
   13       11.095571   0.999999
   14       11.790955   0.000000
   15       12.125775   0.000000
   16       13.094187   0.000000

  0.2307692E+00  0.7692308E-01 -0.9803852E-17  0.1092399E-01
    1      -20.922748   1.000000
    2      -20.907329   1.000000
    3      -20.906631   1.000000
    4       -2.442846   1.000000
    5        3.254346   1.000000
    6        3.874874   1.000000
    7        3.960022   1.000000
    8        5.046665   1.000000
    9        5.102139   1.000000
   10        6.971073   1.000000
   11        8.427812   1.000000
   12        8.557021   1.000000
   13       11.285622   0.000000
   14       11.725796   0.000000
   15       11.960899   0.000000
   16       13.768661   0.000000

  0.3076923E+00  0.7692308E-01 -0.3309806E-18  0.1092399E-01
    1      -20.931526   1.000000
    2      -20.906382   1.000000
    3      -20.905842   1.000000
    4       -2.035987   1.000000
    5        2.998835   1.000000
    6        3.734802   1.000000
    7        3.897133   1.000000
    8        5.116090   1.000000
    9        5.170864   1.000000
   10        6.200915   1.000000
   11        8.326299   1.000000
   12        8.391260   1.000000
   13       11.289272   0.000000
   14       11.941178   0.000000
   15       11.990630   0.000000
   16       13.850848   0.000000

  0.3846154E+00  0.7692308E-01 -0.1733816E-16  0.1092399E-01
    1      -20.939265   1.000000
    2      -20.905362   1.000000
    3      -20.905347   1.000000
    4       -1.609874   1.000000
    5        2.711619   1.000000
    6        3.656285   1.000000
    7        3.844172   1.000000
    8        5.121571   1.000000
    9        5.176637   1.000000
   10        5.657846   1.000000
   11        8.278073   1.000000
   12        8.297566   1.000000
   13       11.269537   0.000000
   14       12.054394   0.000000
   15       12.268817   0.000000
   16       13.111264   0.000000

  0.4615385E+00  0.7692308E-01  0.5700974E-17  0.1092399E-01
    1      -20.944287   1.000000
    2      -20.905285   1.000000
    3      -20.904429   1.000000
    4       -1.278495   1.000000
    5        2.461503   1.000000
    6        3.655081   1.000000
    7        3.786198   1.000000
    8        5.112466   1.000000
    9        5.141013   1.000000
   10        5.358200   1.000000
   11        8.221239   1.000000
   12        8.305822   1.000000
   13       11.317372   0.000000
   14       12.124856   0.000000
   15       12.231815   0.000000
   16       12.867786   0.000000

 -0.4615385E+00  0.7692308E-01 -0.1817062E-16  0.1092399E-01
    1      -20.945572   1.000000
    2      -20.905621   1.000000
    3      -20.903857   1.000000
    4       -1.180184   1.000000
    5        2.385000   1.000000
    6        3.708253   1.000000
    7        3.712669   1.000000
    8        5.103571   1.000000
    9        5.135808   1.000000
   10        5.286422   1.000000
   11        8.189203   1.000000
   12        8.326501   1.000000
   13       11.390057   0.000000
   14       11.923170   0.000000
   15       12.326257   0.000000
   16       12.904664   0.000000

 -0.3846154E+00  0.7692308E-01 -0.8697746E-17  0.1092399E-01
    1      -20.942880   1.000000
    2      -20.906276   1.000000
    3      -20.903759   1.000000
    4       -1.368710   1.000000
    5        2.542591   1.000000
    6        3.638296   1.000000
    7        3.789613   1.000000
    8        5.087137   1.000000
    9        5.188182   1.000000
   10        5.438349   1.000000
   11        8.153865   1.000000
   12        8.369925   1.000000
   13       11.354937   0.000000
   14       12.127399   0.000000
   15       12.233253   0.000000
   16       12.897075   0.000000

 -0.3076923E+00  0.7692308E-01  0.1592844E-16  0.1092399E-01
    1      -20.936767   1.000000
    2      -20.907084   1.000000
    3      -20.904152   1.000000
    4       -1.746908   1.000000
    5        2.843441   1.000000
    6        3.593355   1.000000
    7        3.884790   1.000000
    8        5.089814   1.000000
    9        5.225014   1.000000
   10        5.817828   1.000000
   11        8.123318   1.000000
   12        8.467157   1.000000
   13       11.361368   0.000000
   14       12.018228   0.000000
   15       12.158653   0.000000
   16       13.356594   0.000000

 -0.2307692E+00  0.7692308E-01 -0.2354261E-17  0.1092399E-01
    1      -20.928532   1.000000
    2      -20.907853   1.000000
    3      -20.904945   1.000000
    4       -2.177226   1.000000
    5        3.171363   1.000000
    6        3.602731   1.000000
    7        3.984919   1.000000
    8        5.063548   1.000000
    9        5.202699   1.000000
   10        6.437668   1.000000
   11        8.145165   1.000000
   12        8.633320   1.000000
   13       11.442393   0.000000
   14       11.793684   0.000000
   15       11.984125   0.000000
   16       13.742188   0.000000

 -0.1538462E+00  0.7692308E-01 -0.5483648E-17  0.1092399E-01
    1      -20.920038   1.000000
    2      -20.908350   1.000000
    3      -20.905979   1.000000
    4       -2.560198   1.000000
    5        3.472470   1.000000
    6        3.676124   1.000000
    7        4.066136   1.000000
    8        4.980979   1.000000
    9        5.111220   1.000000
   10        7.252256   1.000000
   11        8.273574   1.000000
   12        8.830154   1.000000
   13       11.417514   0.000000
   14       11.651159   0.000000
   15       11.973164   0.000000
   16       13.149558   0.000000

 -0.7692308E-01  0.7692308E-01 -0.6496999E-17  0.5461994E-02
    1      -20.913419   1.000000
    2      -20.908307   1.000000
    3      -20.906984   1.000000
    4       -2.834659   1.000000
    5        3.732958   1.000000
    6        3.804285   1.000000
    7        4.069618   1.000000
    8        4.888591   1.000000
    9        4.977881   1.000000
   10        8.068032   1.000000
   11        8.564661   1.000000
   12        8.963203   1.000000
   13       11.203501   0.000000
   14       11.683082   0.000000
   15       12.183618   0.000000
   16       12.616640   0.000000

  0.1538462E+00  0.1538462E+00 -0.1733776E-17  0.2730997E-02
    1      -20.916518   1.000000
    2      -20.908388   1.000000
    3      -20.908388   1.000000
    4       -2.635211   1.000000
    5        3.198886   1.000000
    6        4.138439   1.000000
    7        4.138439   1.000000
    8        4.943937   1.000000
    9        4.983349   1.000000
   10        7.866021   1.000000
   11        8.370067   1.000000
   12        8.370067   1.000000
   13       10.836839   1.000000
   14       12.049255   0.000000
   15       12.171405   0.000000
   16       13.180137   0.000000

  0.2307692E+00  0.1538462E+00  0.2817737E-17  0.1092399E-01
    1      -20.922241   1.000000
    2      -20.908294   1.000000
    3      -20.908147   1.000000
    4       -2.379372   1.000000
    5        2.951108   1.000000
    6        4.120063   1.000000
    7        4.155463   1.000000
    8        5.019426   1.000000
    9        5.044503   1.000000
   10        7.246520   1.000000
   11        8.178976   1.000000
   12        8.218832   1.000000
   13       10.919336   1.000000
   14       11.976873   0.000000
   15       12.063354   0.000000
   16       13.615966   0.000000

  0.3076923E+00  0.1538462E+00 -0.1207340E-16  0.1092399E-01
    1      -20.929634   1.000000
    2      -20.907924   1.000000
    3      -20.907694   1.000000
    4       -2.027668   1.000000
    5        2.763181   1.000000
    6        3.979778   1.000000
    7        4.116624   1.000000
    8        5.096297   1.000000
    9        5.131990   1.000000
   10        6.514150   1.000000
   11        8.052728   1.000000
   12        8.082784   1.000000
   13       11.087006   1.000000
   14       11.859377   0.000000
   15       12.255837   0.000000
   16       13.746725   0.000000

  0.3846154E+00  0.1538462E+00 -0.1325001E-17  0.1092399E-01
    1      -20.936496   1.000000
    2      -20.908235   1.000000
    3      -20.906722   1.000000
    4       -1.642809   1.000000
    5        2.632907   1.000000
    6        3.805561   1.000000
    7        4.047593   1.000000
    8        5.157218   1.000000
    9        5.164046   1.000000
   10        5.907085   1.000000
   11        7.900686   1.000000
   12        8.075496   1.000000
   13       11.104789   0.999786
   14       11.908212   0.000000
   15       12.656747   0.000000
   16       13.170619   0.000000

  0.4615385E+00  0.1538462E+00 -0.1960770E-16  0.1092399E-01
    1      -20.941274   1.000000
    2      -20.909058   1.000000
    3      -20.905607   1.000000
    4       -1.316897   1.000000
    5        2.550151   1.000000
    6        3.677991   1.000000
    7        3.944084   1.000000
    8        5.159970   1.000000
    9        5.178509   1.000000
   10        5.526745   1.000000
   11        7.796412   1.000000
   12        8.105417   1.000000
   13       11.127349   0.630180
   14       12.113306   0.000000
   15       12.303564   0.000000
   16       13.258047   0.000000

 -0.4615385E+00  0.1538462E+00  0.2559811E-16  0.1092399E-01
    1      -20.943025   1.000000
    2      -20.910162   1.000000
    3      -20.904594   1.000000
    4       -1.158122   1.000000
    5        2.520079   1.000000
    6        3.658808   1.000000
    7        3.808767   1.000000
    8        5.101406   1.000000
    9        5.218716   1.000000
   10        5.417130   1.000000
   11        7.723971   1.000000
   12        8.139395   1.000000
   13       11.274061   0.000000
   14       11.835301   0.000000
   15       12.334587   0.000000
   16       13.532634   0.000000

 -0.3846154E+00  0.1538462E+00 -0.2044017E-16  0.1092399E-01
    1      -20.941526   1.000000
    2      -20.911171   1.000000
    3      -20.903918   1.000000
    4       -1.234460   1.000000
    5        2.570875   1.000000
    6        3.670410   1.000000
    7        3.761260   1.000000
    8        5.067855   1.000000
    9        5.278340   1.000000
   10        5.516155   1.000000
   11        7.643662   1.000000
   12        8.193826   1.000000
   13       11.401624   0.000000
   14       11.858211   0.000000
   15       12.356455   0.000000
   16       13.470898   0.000000

 -0.3076923E+00  0.1538462E+00  0.4186022E-17  0.1092399E-01
    1      -20.937223   1.000000
    2      -20.911710   1.000000
    3      -20.903737   1.000000
    4       -1.513264   1.000000
    5        2.711659   1.000000
    6        3.566806   1.000000
    7        3.938181   1.000000
    8        5.059252   1.000000
    9        5.316969   1.000000
   10        5.818882   1.000000
   11        7.546538   1.000000
   12        8.306947   1.000000
   13       11.433885   0.000000
   14       12.171880   0.000000
   15       12.374972   0.000000
   16       13.259824   0.000000

 -0.2307692E+00  0.1538462E+00  0.1365889E-16  0.1092399E-01
    1      -20.931211   1.000000
    2      -20.911457   1.000000
    3      -20.904085   1.000000
    4       -1.891084   1.000000
    5        2.924159   1.000000
    6        3.526432   1.000000
    7        4.105782   1.000000
    8        5.035530   1.000000
    9        5.300374   1.000000
   10        6.316236   1.000000
   11        7.503179   1.000000
   12        8.492005   1.000000
   13       11.610720   0.000000
   14       11.916577   0.000000
   15       12.460821   0.000000
   16       13.297302   0.000000

 -0.1538462E+00  0.1538462E+00  0.1052951E-16  0.5461994E-02
    1      -20.925025   1.000000
    2      -20.910234   1.000000
    3      -20.904899   1.000000
    4       -2.264706   1.000000
    5        3.186208   1.000000
    6        3.563251   1.000000
    7        4.172198   1.000000
    8        4.994170   1.000000
    9        5.224446   1.000000
   10        6.869214   1.000000
   11        7.695216   1.000000
   12        8.701669   1.000000
   13       11.705688   0.000000
   14       11.855586   0.000000
   15       12.008962   0.000000
   16       13.065621   0.000000

  0.2307692E+00  0.2307692E+00 -0.2600664E-17  0.2730997E-02
    1      -20.925523   1.000000
    2      -20.908796   1.000000
    3      -20.908796   1.000000
    4       -2.192733   1.000000
    5        2.703008   1.000000
    6        4.277061   1.000000
    7        4.277061   1.000000
    8        4.914852   1.000000
    9        5.116159   1.000000
   10        7.171384   1.000000
   11        7.959894   1.000000
   12        7.959895   1.000000
   13       10.637431   1.000000
   14       11.819147   0.000000
   15       12.269331   0.000000
   16       13.770153   0.000000

  0.3076923E+00  0.2307692E+00 -0.5970453E-17  0.1092399E-01
    1      -20.931059   1.000000
    2      -20.909103   1.000000
    3      -20.908714   1.000000
    4       -1.915545   1.000000
    5        2.550229   1.000000
    6        4.236644   1.000000
    7        4.307047   1.000000
    8        4.924880   1.000000
    9        5.209088   1.000000
   10        6.697433   1.000000
   11        7.778507   1.000000
   12        7.839767   1.000000
   13       10.693568   1.000000
   14       11.658143   0.000000
   15       12.447944   0.000000
   16       13.768566   0.000000

  0.3846154E+00  0.2307692E+00 -0.1095139E-16  0.1092399E-01
    1      -20.936310   1.000000
    2      -20.910239   1.000000
    3      -20.908085   1.000000
    4       -1.602509   1.000000
    5        2.511958   1.000000
    6        4.044619   1.000000
    7        4.262632   1.000000
    8        5.041823   1.000000
    9        5.261835   1.000000
   10        6.137237   1.000000
   11        7.558592   1.000000
   12        7.826930   1.000000
   13       10.804272   1.000000
   14       11.650633   0.000000
   15       12.862788   0.000000
   16       13.255843   0.000000

  0.4615385E+00  0.2307692E+00 -0.4870080E-17  0.1092399E-01
    1      -20.939635   1.000000
    2      -20.912391   1.000000
    3      -20.907048   1.000000
    4       -1.325549   1.000000
    5        2.585203   1.000000
    6        3.829555   1.000000
    7        4.147815   1.000000
    8        5.123527   1.000000
    9        5.290979   1.000000
   10        5.707929   1.000000
   11        7.352984   1.000000
   12        7.863002   1.000000
   13       10.853134   1.000000
   14       11.868757   0.000000
   15       12.561188   0.000000
   16       13.384732   0.000000

 -0.4615385E+00  0.2307692E+00  0.1289169E-16  0.1092399E-01
    1      -20.940347   1.000000
    2      -20.915059   1.000000
    3      -20.905823   1.000000
    4       -1.156820   1.000000
    5        2.713809   1.000000
    6        3.662037   1.000000
    7        3.976289   1.000000
    8        5.049039   1.000000
    9        5.334505   1.000000
   10        5.610104   1.000000
   11        7.191844   1.000000
   12        7.901012   1.000000
   13       10.963263   1.000000
   14       12.032391   0.000000
   15       12.247823   0.000000
   16       13.518889   0.000000

 -0.3846154E+00  0.2307692E+00 -0.1958033E-16  0.1092399E-01
    1      -20.938748   1.000000
    2      -20.917266   1.000000
    3      -20.904711   1.000000
    4       -1.144885   1.000000
    5        2.769147   1.000000
    6        3.647019   1.000000
    7        3.788909   1.000000
    8        4.994046   1.000000
    9        5.384843   1.000000
   10        5.729312   1.000000
   11        7.065036   1.000000
   12        7.958347   1.000000
   13       11.191851   0.000000
   14       11.800593   0.000000
   15       12.479686   0.000000
   16       13.390002   0.000000

 -0.3076923E+00  0.2307692E+00 -0.2270972E-16  0.1092399E-01
    1      -20.936016   1.000000
    2      -20.917693   1.000000
    3      -20.903955   1.000000
    4       -1.297073   1.000000
    5        2.739265   1.000000
    6        3.631522   1.000000
    7        3.812174   1.000000
    8        5.025897   1.000000
    9        5.406362   1.000000
   10        5.953903   1.000000
   11        6.973246   1.000000
   12        8.078800   1.000000
   13       11.359798   0.000000
   14       12.107464   0.000000
   15       12.377769   0.000000
   16       13.282578   0.000000

 -0.2307692E+00  0.2307692E+00 -0.1323684E-16  0.5461994E-02
    1      -20.933483   1.000000
    2      -20.915423   1.000000
    3      -20.903720   1.000000
    4       -1.571487   1.000000
    5        2.771377   1.000000
    6        3.537741   1.000000
    7        4.014069   1.000000
    8        5.045334   1.000000
    9        5.376133   1.000000
   10        6.197955   1.000000
   11        7.053619   1.000000
   12        8.273582   1.000000
   13       11.493710   0.000000
   14       12.143898   0.000000
   15       12.756870   0.000000
   16       13.260562   0.000000

  0.3076923E+00  0.3076923E+00 -0.3467552E-17  0.2730997E-02
    1      -20.935308   1.000000
    2      -20.909232   1.000000
    3      -20.909232   1.000000
    4       -1.726561   1.000000
    5        2.440074   1.000000
    6        4.417754   1.000000
    7        4.417754   1.000000
    8        4.736188   1.000000
    9        5.317304   1.000000
   10        6.511326   1.000000
   11        7.678193   1.000000
   12        7.678193   1.000000
   13       10.471441   1.000000
   14       11.430397   0.000000
   15       12.563331   0.000000
   16       13.697912   0.000000

  0.3846154E+00  0.3076923E+00  0.3365985E-17  0.1092399E-01
    1      -20.939563   1.000000
    2      -20.910056   1.000000
    3      -20.909124   1.000000
    4       -1.505878   1.000000
    5        2.464760   1.000000
    6        4.289523   1.000000
    7        4.434288   1.000000
    8        4.824107   1.000000
    9        5.393618   1.000000
   10        6.100931   1.000000
   11        7.495117   1.000000
   12        7.632065   1.000000
   13       10.496534   1.000000
   14       11.331014   0.000000
   15       12.821318   0.000000
   16       13.341780   0.000000

  0.4615385E+00  0.3076923E+00 -0.1322094E-16  0.1092399E-01
    1      -20.941726   1.000000
    2      -20.912517   1.000000
    3      -20.908416   1.000000
    4       -1.305326   1.000000
    5        2.623007   1.000000
    6        4.048583   1.000000
    7        4.352501   1.000000
    8        5.001611   1.000000
    9        5.429781   1.000000
   10        5.698826   1.000000
   11        7.192535   1.000000
   12        7.655121   1.000000
   13       10.575474   1.000000
   14       11.488286   0.000000
   15       12.739344   0.000000
   16       13.314818   0.000000

 -0.4615385E+00  0.3076923E+00  0.2828179E-16  0.1092399E-01
    1      -20.940972   1.000000
    2      -20.916422   1.000000
    3      -20.907277   1.000000
    4       -1.166257   1.000000
    5        2.860454   1.000000
    6        3.813485   1.000000
    7        4.183908   1.000000
    8        4.956311   1.000000
    9        5.459998   1.000000
   10        5.646456   1.000000
   11        6.876988   1.000000
   12        7.688729   1.000000
   13       10.676651   1.000000
   14       11.938696   0.000000
   15       12.249949   0.000000
   16       13.131585   0.000000

 -0.3846154E+00  0.3076923E+00  0.2418840E-16  0.1092399E-01
    1      -20.937844   1.000000
    2      -20.920569   1.000000
    3      -20.905955   1.000000
    4       -1.111907   1.000000
    5        3.035558   1.000000
    6        3.596811   1.000000
    7        3.973605   1.000000
    8        4.867629   1.000000
    9        5.481810   1.000000
   10        5.902734   1.000000
   11        6.612174   1.000000
   12        7.746388   1.000000
   13       10.874515   1.000000
   14       11.918875   0.000000
   15       12.523345   0.000000
   16       13.067040   0.000000

 -0.3076923E+00  0.3076923E+00  0.2105901E-16  0.5461994E-02
    1      -20.935211   1.000000
    2      -20.921901   1.000000
    3      -20.904769   1.000000
    4       -1.154811   1.000000
    5        2.920494   1.000000
    6        3.629823   1.000000
    7        3.775675   1.000000
    8        4.934437   1.000000
    9        5.467113   1.000000
   10        6.094309   1.000000
   11        6.561621   1.000000
   12        7.874208   1.000000
   13       11.153814   0.000324
   14       11.854733   0.000000
   15       12.572404   0.000000
   16       13.090849   0.000000

  0.3846154E+00  0.3846154E+00 -0.4334440E-17  0.2730997E-02
    1      -20.943598   1.000000
    2      -20.909608   1.000000
    3      -20.909608   1.000000
    4       -1.384035   1.000000
    5        2.536985   1.000000
    6        4.523650   1.000000
    7        4.523650   1.000000
    8        4.566252   1.000000
    9        5.502304   1.000000
   10        5.784171   1.000000
   11        7.541849   1.000000
   12        7.541849   1.000000
   13       10.344701   1.000000
   14       11.092600   1.000000
   15       12.742330   0.000000
   16       13.244805   0.000000

  0.4615385E+00  0.3846154E+00 -0.2030641E-17  0.1092399E-01
    1      -20.945725   1.000000
    2      -20.910737   1.000000
    3      -20.909421   1.000000
    4       -1.268961   1.000000
    5        2.717619   1.000000
    6        4.291393   1.000000
    7        4.509127   1.000000
    8        4.794635   1.000000
    9        5.410539   1.000000
   10        5.552058   1.000000
   11        7.373885   1.000000
   12        7.536254   1.000000
   13       10.362915   1.000000
   14       11.097123   0.999998
   15       12.761309   0.000000
   16       13.054454   0.000000

 -0.4615385E+00  0.3846154E+00 -0.2636953E-16  0.1092399E-01
    1      -20.944799   1.000000
    2      -20.913880   1.000000
    3      -20.908613   1.000000
    4       -1.180822   1.000000
    5        2.934561   1.000000
    6        4.077513   1.000000
    7        4.386701   1.000000
    8        4.842976   1.000000
    9        5.343715   1.000000
   10        5.562683   1.000000
   11        7.026764   1.000000
   12        7.557585   1.000000
   13       10.455322   1.000000
   14       11.431159   0.000000
   15       12.458650   0.000000
   16       12.916900   0.000000

 -0.3846154E+00  0.3846154E+00  0.2504824E-16  0.5461994E-02
    1      -20.941239   1.000000
    2      -20.918133   1.000000
    3      -20.907366   1.000000
    4       -1.127037   1.000000
    5        3.084295   1.000000
    6        3.809117   1.000000
    7        4.189566   1.000000
    8        4.770296   1.000000
    9        5.543280   1.000000
   10        5.677318   1.000000
   11        6.676926   1.000000
   12        7.612838   1.000000
   13       10.618654   1.000000
   14       12.038819   0.000000
   15       12.139334   0.000000
   16       12.831747   0.000000

  0.4615385E+00  0.4615385E+00 -0.5201328E-17  0.2730997E-02
    1      -20.948345   1.000000
    2      -20.909824   1.000000
    3      -20.909824   1.000000
    4       -1.231343   1.000000
    5        2.850609   1.000000
    6        4.545365   1.000000
    7        4.576661   1.000000
    8        4.576661   1.000000
    9        5.082692   1.000000
   10        5.615989   1.000000
   11        7.504250   1.000000
   12        7.504250   1.000000
   13       10.274754   1.000000
   14       10.893729   1.000000
   15       12.630941   0.000000
   16       12.916668   0.000000

 -0.4615385E+00  0.4615385E+00  0.3832945E-17  0.5461994E-02
    1      -20.947975   1.000000
    2      -20.910981   1.000000
    3      -20.909524   1.000000
    4       -1.201566   1.000000
    5        2.939488   1.000000
    6        4.342717   1.000000
    7        4.532124   1.000000
    8        4.776782   1.000000
    9        4.997489   1.000000
   10        5.616963   1.000000
   11        7.347626   1.000000
   12        7.510612   1.000000
   13       10.316583   1.000000
   14       11.014442   1.000000
   15       12.619058   0.000000
   16       12.869906   0.000000

  0.2307692E+00  0.1538462E+00  0.7692308E-01  0.1092399E-01
    1      -20.919519   1.000000
    2      -20.908876   1.000000
    3      -20.906672   1.000000
    4       -2.537854   1.000000
    5        3.231826   1.000000
    6        3.892579   1.000000
    7        4.150907   1.000000
    8        4.966558   1.000000
    9        5.084585   1.000000
   10        7.417911   1.000000
   11        8.120751   1.000000
   12        8.667616   1.000000
   13       11.206053   0.000000
   14       11.835756   0.000000
   15       12.068086   0.000000
   16       13.095989   0.000000

  0.3076923E+00  0.1538462E+00  0.7692308E-01  0.2184797E-01
    1      -20.926456   1.000000
    2      -20.909380   1.000000
    3      -20.905677   1.000000
    4       -2.202651   1.000000
    5        3.000087   1.000000
    6        3.765847   1.000000
    7        4.141605   1.000000
    8        5.030375   1.000000