 vasp.6.0.8 29Jun18 (build Jun 13 2019 12:54:44) complex

 executed on      IFC18_CrayMPICH date 2021.12.05  14:21:52
 running   64 mpi-ranks, with    1 threads/rank
 distrk:  each k-point on   16 cores,    4 groups
 distr:  one band on NCORES_PER_BAND=   4 cores,    4 groups


--------------------------------------------------------------------------------------------------------


 INCAR:
 POTCAR:    PAW_PBE Hf_pv 06Sep2000
 POTCAR:    PAW_PBE Sb 06Sep2000
 POTCAR:    PAW_PBE Pt 04Feb2005
 POTCAR:    PAW_PBE Hf_pv 06Sep2000
   VRHFIN =Hf: 5p6s5d
   LEXCH  = PE
   EATOM  =   860.9206 eV,   63.2759 Ry

   TITEL  = PAW_PBE Hf_pv 06Sep2000
   LULTRA =        F    use ultrasoft PP ?
   IUNSCR =        1    unscreen: 0-lin 1-nonlin 2-no
   RPACOR =    2.500    partial core radius
   POMASS =  178.490; ZVAL   =   10.000    mass and valenz
   RCORE  =    2.600    outmost cutoff radius
   RWIGS  =    3.050; RWIGS  =    1.614    wigner-seitz radius (au A)
   ENMAX  =  220.334; ENMIN  =  165.250 eV
   RCLOC  =    2.212    cutoff for local pot
   LCOR   =        T    correct aug charges
   LPAW   =        T    paw PP
   EAUG   =  380.878
   DEXC   =    0.000
   RMAX   =    2.665    core radius for proj-oper
   RAUG   =    1.300    factor for augmentation sphere
   RDEP   =    2.681    radius for radial grids
   RDEPT  =    2.139    core radius for aug-charge

   Atomic configuration
   15 entries
     n  l   j            E        occ.
     1  0  0.50    -65259.4397   2.0000
     2  0  0.50    -11157.9884   2.0000
     2  1  1.50     -9795.2114   6.0000
     3  0  0.50     -2541.4060   2.0000
     3  1  1.50     -2134.4772   6.0000
     3  2  2.50     -1653.5420  10.0000
     4  0  0.50      -510.9577   2.0000
     4  1  1.50      -377.5024   6.0000
     4  2  2.50      -205.2086  10.0000
     4  3  3.50       -15.4906  14.0000
     5  0  0.50       -65.6020   2.0000
     5  1  1.50       -34.2798   6.0000
     5  2  2.50        -1.9877   3.0000
     6  0  0.50        -4.7357   1.0000
     5  3  2.50        -1.3606   0.0000
   Description
     l       E           TYP  RCUT    TYP  RCUT
     1    -34.2797769     23  2.500
     1    -35.6403595     23  2.500
     2     -1.9876655     23  2.500
     2      0.0744675     23  2.500
     0     -4.7356889     23  2.600
     0      3.2364748     23  2.600
  local pseudopotential read in
  partial core-charges read in
  partial kinetic energy density read in
  atomic valenz-charges read in
  non local Contribution for L=           1  read in
    real space projection operators read in
  non local Contribution for L=           1  read in
    real space projection operators read in
  non local Contribution for L=           2  read in
    real space projection operators read in
  non local Contribution for L=           2  read in
    real space projection operators read in
  non local Contribution for L=           0  read in
    real space projection operators read in
  non local Contribution for L=           0  read in
    real space projection operators read in
    PAW grid and wavefunctions read in

   number of l-projection  operators is LMAX  =           6
   number of lm-projection operators is LMMAX =          18

 POTCAR:    PAW_PBE Sb 06Sep2000
   VRHFIN =Sb: s2p3
   LEXCH  = PE
   EATOM  =   149.9515 eV,   11.0211 Ry

   TITEL  = PAW_PBE Sb 06Sep2000
   LULTRA =        F    use ultrasoft PP ?
   IUNSCR =        1    unscreen: 0-lin 1-nonlin 2-no
   RPACOR =    2.200    partial core radius
   POMASS =  121.750; ZVAL   =    5.000    mass and valenz
   RCORE  =    2.300    outmost cutoff radius
   RWIGS  =    2.980; RWIGS  =    1.577    wigner-seitz radius (au A)
   ENMAX  =  172.069; ENMIN  =  129.052 eV
   ICORE  =        3    local potential
   LCOR   =        T    correct aug charges
   LPAW   =        T    paw PP
   EAUG   =  380.513
   DEXC   =    0.000
   RMAX   =    2.346    core radius for proj-oper
   RAUG   =    1.300    factor for augmentation sphere
   RDEP   =    2.360    radius for radial grids
   RDEPT  =    2.192    core radius for aug-charge

   Atomic configuration
   13 entries
     n  l   j            E        occ.
     1  0  0.50    -30298.2797   2.0000
     2  0  0.50     -4610.2252   2.0000
     2  1  1.50     -4138.3407   6.0000
     3  0  0.50      -903.8815   2.0000
     3  1  1.50      -750.1337   6.0000
     3  2  2.50      -515.7092  10.0000
     4  0  0.50      -148.8034   2.0000
     4  1  1.50      -101.7581   6.0000
     4  2  2.50       -33.5048  10.0000
     5  0  0.50       -12.8298   2.0000
     5  1  0.50        -4.8276   3.0000
     5  2  1.50        -4.0817   0.0000
     4  3  2.50        -4.0817   0.0000
   Description
     l       E           TYP  RCUT    TYP  RCUT
     0    -12.8297861     23  2.300
     0     13.6058260     23  2.300
     1     -4.8275512     23  2.300
     1     -0.7245443     23  2.300
     2     -4.0817478     23  2.300
     3     -1.3605826     23  2.300
  local pseudopotential read in
  partial core-charges read in
  partial kinetic energy density read in
  atomic valenz-charges read in
  non local Contribution for L=           0  read in
    real space projection operators read in
  non local Contribution for L=           0  read in
    real space projection operators read in
  non local Contribution for L=           1  read in
    real space projection operators read in
  non local Contribution for L=           1  read in
    real space projection operators read in
  non local Contribution for L=           2  read in
    real space projection operators read in
    PAW grid and wavefunctions read in

   number of l-projection  operators is LMAX  =           5
   number of lm-projection operators is LMMAX =          13

 POTCAR:    PAW_PBE Pt 04Feb2005
   VRHFIN =Pt: s1d9
   LEXCH  = PE
   EATOM  =   729.1176 eV,   53.5886 Ry

   TITEL  = PAW_PBE Pt 04Feb2005
   LULTRA =        F    use ultrasoft PP ?
   IUNSCR =        1    unscreen: 0-lin 1-nonlin 2-no
   RPACOR =    2.330    partial core radius
   POMASS =  195.080; ZVAL   =   10.000    mass and valenz
   RCORE  =    2.600    outmost cutoff radius
   RWIGS  =    2.750; RWIGS  =    1.455    wigner-seitz radius (au A)
   ENMAX  =  230.283; ENMIN  =  172.712 eV
   ICORE  =        3    local potential
   LCOR   =        T    correct aug charges
   LPAW   =        T    paw PP
   EAUG   =  358.966
   DEXC   =    0.000
   RMAX   =    2.658    core radius for proj-oper
   RAUG   =    1.300    factor for augmentation sphere
   RDEP   =    2.761    radius for radial grids
   RDEPT  =    2.203    core radius for aug-charge

   Atomic configuration
   16 entries
     n  l   j            E        occ.
     1  0  0.50    -78401.1885   2.0000
     2  0  0.50    -13770.7750   2.0000
     2  1  1.50    -11931.0468   6.0000
     3  0  0.50     -3234.7234   2.0000
     3  1  1.50     -2699.2216   6.0000
     3  2  2.50     -2119.5714  10.0000
     4  0  0.50      -695.1528   2.0000
     4  1  1.50      -519.6034   6.0000
     4  2  2.50      -306.6786  10.0000
     4  3  3.50       -70.1041  14.0000
     5  0  0.50      -101.7747   2.0000
     5  1  1.50       -55.9873   6.0000
     5  2  2.50        -6.1423   9.0000
     6  0  0.50        -5.6573   1.0000
     6  1  1.50        -6.8029   0.0000
     5  3  2.50        -1.3606   0.0000
   Description
     l       E           TYP  RCUT    TYP  RCUT
     2     -6.1423404     23  2.500
     2     -7.5029230     23  2.500
     0     -5.6573207     23  2.500
     0      0.7416693     23  2.500
     1     -2.7211652     23  2.600
     1     20.4087390     23  2.600
     3     -1.3605826     23  2.500
  local pseudopotential read in
  partial core-charges read in
  partial kinetic energy density read in
  atomic valenz-charges read in
  non local Contribution for L=           2  read in
    real space projection operators read in
  non local Contribution for L=           2  read in
    real space projection operators read in
  non local Contribution for L=           0  read in
    real space projection operators read in
  non local Contribution for L=           0  read in
    real space projection operators read in
  non local Contribution for L=           1  read in
    real space projection operators read in
  non local Contribution for L=           1  read in
    real space projection operators read in
    PAW grid and wavefunctions read in

   number of l-projection  operators is LMAX  =           6
   number of lm-projection operators is LMMAX =          18


 -----------------------------------------------------------------------------
|                                                                             |
|  ADVICE TO THIS USER RUNNING 'VASP/VAMP'   (HEAR YOUR MASTER'S VOICE ...):  |
|                                                                             |
|      You enforced a specific xc-type in the INCAR file,                     |
|      a different type was found on the POTCAR file                          |
|          I HOPE YOU KNOW, WHAT YOU ARE  DOING                               |
|                                                                             |
 -----------------------------------------------------------------------------

  PAW_PBE Hf_pv 06Sep2000               :
 energy of atom  1       EATOM= -860.9206
 kinetic energy error for atom=    0.0004 (will be added to EATOM!!)
  PAW_PBE Sb 06Sep2000                  :
 energy of atom  2       EATOM= -149.9515
 kinetic energy error for atom=    0.0002 (will be added to EATOM!!)
  PAW_PBE Pt 04Feb2005                  :
 energy of atom  3       EATOM= -729.1176
 kinetic energy error for atom=    0.0010 (will be added to EATOM!!)


 POSCAR: Hf1 Sb1 Pt1
  positions in direct lattice
  No initial velocities read in
 exchange correlation table for  LEXCH =       14
   RHO(1)=    0.500       N(1)  =     2000
   RHO(2)=  100.500       N(2)  =     4000



--------------------------------------------------------------------------------------------------------


 ion  position               nearest neighbor table
   1  0.750  0.750  0.750-   3 2.62   3 2.62   3 2.62   3 2.62   2 3.02   2 3.02   2 3.02   2 3.02
                             2 3.02   2 3.02
   2  0.250  0.250  0.250-   3 2.62   3 2.62   3 2.62   3 2.62   1 3.02   1 3.02   1 3.02   1 3.02
                             1 3.02   1 3.02
   3  0.000  0.000  0.000-   1 2.62   1 2.62   2 2.62   2 2.62   1 2.62   1 2.62   2 2.62   2 2.62


  LATTYP: Found a face centered cubic cell.
 ALAT       =     6.0448961987

  Lattice vectors:

 A1 = (   0.0000000000,   3.0224480993,   3.0224480993)
 A2 = (   3.0224480993,   0.0000000000,   3.0224480993)
 A3 = (   3.0224480993,   3.0224480993,   0.0000000000)


Analysis of symmetry for initial positions (statically):
=====================================================================
 Subroutine PRICEL returns:
 Original cell was already a primitive cell.


 Routine SETGRP: Setting up the symmetry group for a
 face centered cubic supercell.


 Subroutine GETGRP returns: Found 24 space group operations
 (whereof 24 operations were pure point group operations)
 out of a pool of 48 trial point group operations.


The static configuration has the point symmetry T_d .


Analysis of symmetry for dynamics (positions and initial velocities):
=====================================================================
 Subroutine PRICEL returns:
 Original cell was already a primitive cell.


 Routine SETGRP: Setting up the symmetry group for a
 face centered cubic supercell.


 Subroutine GETGRP returns: Found 24 space group operations
 (whereof 24 operations were pure point group operations)
 out of a pool of 48 trial point group operations.


The dynamic configuration has the point symmetry T_d .


 Subroutine INISYM returns: Found 24 space group operations
 (whereof 24 operations are pure point group operations),
 and found     1 'primitive' translations


----------------------------------------------------------------------------------------

                                     Primitive cell

  volume of cell :      55.2213

  direct lattice vectors                    reciprocal lattice vectors
     0.000000000  3.022448099  3.022448099    -0.165428813  0.165428813  0.165428813
     3.022448099  0.000000000  3.022448099     0.165428813 -0.165428813  0.165428813
     3.022448099  3.022448099  0.000000000     0.165428813  0.165428813 -0.165428813

  length of vectors
     4.274387094  4.274387094  4.274387094     0.286531108  0.286531108  0.286531108

  position of ions in fractional coordinates (direct lattice)
     0.750000000  0.750000000  0.750000000
     0.250000000  0.250000000  0.250000000
     0.000000000  0.000000000  0.000000000

  ion indices of the primitive-cell ions
   primitive index   ion index
                 1           1
                 2           2
                 3           3

----------------------------------------------------------------------------------------



 KPOINTS: KPOINTS

Automatic generation of k-mesh.
Space group operators:
 irot       det(A)        alpha          n_x          n_y          n_z        tau_x        tau_y        tau_z
    1     1.000000     0.000000     1.000000     0.000000     0.000000     0.000000     0.000000     0.000000
    2     1.000000   120.000000    -0.577350    -0.577350    -0.577350     0.000000     0.000000     0.000000
    3     1.000000   120.000000     0.577350     0.577350     0.577350     0.000000     0.000000     0.000000
    4    -1.000000    90.000000    -0.000000    -0.000000    -1.000000     0.000000     0.000000     0.000000
    5    -1.000000   180.000000    -0.000000     0.707107     0.707107     0.000000     0.000000     0.000000
    6    -1.000000    90.000000    -0.000000     1.000000    -0.000000     0.000000     0.000000     0.000000
    7     1.000000   180.000000    -0.000000    -0.000000     1.000000     0.000000     0.000000     0.000000
    8     1.000000   120.000000    -0.577350     0.577350     0.577350     0.000000     0.000000     0.000000
    9     1.000000   120.000000    -0.577350     0.577350    -0.577350     0.000000     0.000000     0.000000
   10    -1.000000    90.000000     0.000000     0.000000     1.000000     0.000000     0.000000     0.000000
   11    -1.000000    90.000000    -1.000000     0.000000     0.000000     0.000000     0.000000     0.000000
   12    -1.000000   180.000000     0.707107     0.000000     0.707107     0.000000     0.000000     0.000000
   13     1.000000   120.000000     0.577350    -0.577350     0.577350     0.000000     0.000000     0.000000
   14     1.000000   120.000000    -0.577350    -0.577350     0.577350     0.000000     0.000000     0.000000
   15     1.000000   180.000000     1.000000     0.000000     0.000000     0.000000     0.000000     0.000000
   16    -1.000000    90.000000     0.000000    -1.000000     0.000000     0.000000     0.000000     0.000000
   17    -1.000000   180.000000     0.707107     0.707107    -0.000000     0.000000     0.000000     0.000000
   18    -1.000000    90.000000     1.000000     0.000000     0.000000     0.000000     0.000000     0.000000
   19     1.000000   120.000000     0.577350    -0.577350    -0.577350     0.000000     0.000000     0.000000
   20     1.000000   180.000000     0.000000     1.000000    -0.000000     0.000000     0.000000     0.000000
   21     1.000000   120.000000     0.577350     0.577350    -0.577350     0.000000     0.000000     0.000000
   22    -1.000000   180.000000    -0.000000    -0.707107     0.707107     0.000000     0.000000     0.000000
   23    -1.000000   180.000000     0.707107    -0.707107     0.000000     0.000000     0.000000     0.000000
   24    -1.000000   180.000000     0.707107     0.000000    -0.707107     0.000000     0.000000     0.000000

 Subroutine IBZKPT returns following result:
 ===========================================

 Found     84 irreducible k-points:

 Following reciprocal coordinates:
            Coordinates               Weight
  0.000000  0.000000  0.000000      1.000000
  0.076923 -0.000000  0.000000      8.000000
  0.153846  0.000000 -0.000000      8.000000
  0.230769 -0.000000  0.000000      8.000000
  0.307692  0.000000 -0.000000      8.000000
  0.384615  0.000000 -0.000000      8.000000
  0.461538  0.000000 -0.000000      8.000000
  0.076923  0.076923 -0.000000      6.000000
  0.153846  0.076923 -0.000000     24.000000
  0.230769  0.076923 -0.000000     24.000000
  0.307692  0.076923 -0.000000     24.000000
  0.384615  0.076923 -0.000000     24.000000
  0.461538  0.076923  0.000000     24.000000
 -0.461538  0.076923 -0.000000     24.000000
 -0.384615  0.076923 -0.000000     24.000000
 -0.307692  0.076923  0.000000     24.000000
 -0.230769  0.076923 -0.000000     24.000000
 -0.153846  0.076923 -0.000000     24.000000
 -0.076923  0.076923 -0.000000     12.000000
  0.153846  0.153846 -0.000000      6.000000
  0.230769  0.153846  0.000000     24.000000
  0.307692  0.153846 -0.000000     24.000000
  0.384615  0.153846 -0.000000     24.000000
  0.461538  0.153846 -0.000000     24.000000
 -0.461538  0.153846  0.000000     24.000000
 -0.384615  0.153846 -0.000000     24.000000
 -0.307692  0.153846  0.000000     24.000000
 -0.230769  0.153846  0.000000     24.000000
 -0.153846  0.153846  0.000000     12.000000
  0.230769  0.230769 -0.000000      6.000000
  0.307692  0.230769 -0.000000     24.000000
  0.384615  0.230769 -0.000000     24.000000
  0.461538  0.230769 -0.000000     24.000000
 -0.461538  0.230769  0.000000     24.000000
 -0.384615  0.230769 -0.000000     24.000000
 -0.307692  0.230769 -0.000000     24.000000
 -0.230769  0.230769 -0.000000     12.000000
  0.307692  0.307692 -0.000000      6.000000
  0.384615  0.307692  0.000000     24.000000
  0.461538  0.307692 -0.000000     24.000000
 -0.461538  0.307692  0.000000     24.000000
 -0.384615  0.307692  0.000000     24.000000
 -0.307692  0.307692  0.000000     12.000000
  0.384615  0.384615 -0.000000      6.000000
  0.461538  0.384615 -0.000000     24.000000
 -0.461538  0.384615 -0.000000     24.000000
 -0.384615  0.384615  0.000000     12.000000
  0.461538  0.461538 -0.000000      6.000000
 -0.461538  0.461538  0.000000     12.000000
  0.230769  0.153846  0.076923     24.000000
  0.307692  0.153846  0.076923     48.000000
  0.384615  0.153846  0.076923     48.000000
  0.461538  0.153846  0.076923     48.000000
 -0.461538  0.153846  0.076923     48.000000
  0.307692  0.230769  0.076923     24.000000
  0.384615  0.230769  0.076923     48.000000
  0.461538  0.230769  0.076923     48.000000
 -0.461538  0.230769  0.076923     48.000000
 -0.384615  0.230769  0.076923     48.000000
 -0.307692  0.230769  0.076923     48.000000
 -0.230769  0.230769  0.076923     48.000000
 -0.153846  0.230769  0.076923     24.000000
  0.384615  0.307692  0.076923     24.000000
  0.461538  0.307692  0.076923     48.000000
 -0.461538  0.307692  0.076923     48.000000
 -0.384615  0.307692  0.076923     48.000000
 -0.307692  0.307692  0.076923     48.000000
 -0.230769  0.307692  0.076923     24.000000
  0.461538  0.384615  0.076923     24.000000
 -0.461538  0.384615  0.076923     48.000000
 -0.384615  0.384615  0.076923     48.000000
 -0.307692  0.384615  0.076923     24.000000
 -0.461538  0.461538  0.076923     24.000000
 -0.384615  0.461538  0.076923     24.000000
  0.461538  0.307692  0.153846     24.000000
 -0.461538  0.307692  0.153846     48.000000
 -0.384615  0.307692  0.153846     48.000000
 -0.461538  0.384615  0.153846     24.000000
 -0.384615  0.384615  0.153846     48.000000
 -0.307692  0.384615  0.153846     48.000000
 -0.230769  0.384615  0.153846     24.000000
 -0.384615  0.461538  0.153846     24.000000
 -0.307692  0.461538  0.153846     24.000000
 -0.307692  0.461538  0.230769     24.000000

 Following cartesian coordinates:
            Coordinates               Weight
  0.000000  0.000000  0.000000      1.000000
 -0.012101  0.012101  0.012101      8.000000
 -0.024203  0.024203  0.024203      8.000000
 -0.036304  0.036304  0.036304      8.000000
 -0.048405  0.048405  0.048405      8.000000
 -0.060507  0.060507  0.060507      8.000000
 -0.072608  0.072608  0.072608      8.000000
 -0.000000  0.000000  0.024203      6.000000
 -0.012101  0.012101  0.036304     24.000000
 -0.024203  0.024203  0.048405     24.000000
 -0.036304  0.036304  0.060507     24.000000
 -0.048405  0.048405  0.072608     24.000000
 -0.060507  0.060507  0.084709     24.000000
  0.084709 -0.084709 -0.060507     24.000000
  0.072608 -0.072608 -0.048405     24.000000
  0.060507 -0.060507 -0.036304     24.000000
  0.048405 -0.048405 -0.024203     24.000000
  0.036304 -0.036304 -0.012101     24.000000
  0.024203 -0.024203  0.000000     12.000000
  0.000000 -0.000000  0.048405      6.000000
 -0.012101  0.012101  0.060507     24.000000
 -0.024203  0.024203  0.072608     24.000000
 -0.036304  0.036304  0.084709     24.000000
 -0.048405  0.048405  0.096811     24.000000
  0.096811 -0.096811 -0.048405     24.000000
  0.084709 -0.084709 -0.036304     24.000000
  0.072608 -0.072608 -0.024203     24.000000
  0.060507 -0.060507 -0.012101     24.000000
  0.048405 -0.048405 -0.000000     12.000000
  0.000000 -0.000000  0.072608      6.000000
 -0.012101  0.012101  0.084709     24.000000
 -0.024203  0.024203  0.096811     24.000000
 -0.036304  0.036304  0.108912     24.000000
  0.108912 -0.108912 -0.036304     24.000000
  0.096811 -0.096811 -0.024203     24.000000
  0.084709 -0.084709 -0.012101     24.000000
  0.072608 -0.072608  0.000000     12.000000
  0.000000 -0.000000  0.096811      6.000000
 -0.012101  0.012101  0.108912     24.000000
 -0.024203  0.024203  0.121014     24.000000
  0.121014 -0.121014 -0.024203     24.000000
  0.108912 -0.108912 -0.012101     24.000000
  0.096811 -0.096811 -0.000000     12.000000
  0.000000 -0.000000  0.121014      6.000000
 -0.012101  0.012101  0.133115     24.000000
  0.133115 -0.133115 -0.012101     24.000000
  0.121014 -0.121014 -0.000000     12.000000
 -0.000000  0.000000  0.145216      6.000000
  0.145216 -0.145216  0.000000     12.000000
  0.000000  0.024203  0.048405     24.000000
 -0.012101  0.036304  0.060507     48.000000
 -0.024203  0.048405  0.072608     48.000000
 -0.036304  0.060507  0.084709     48.000000
  0.108912 -0.084709 -0.060507     48.000000
  0.000000  0.024203  0.072608     24.000000
 -0.012101  0.036304  0.084709     48.000000
 -0.024203  0.048405  0.096811     48.000000
  0.121014 -0.096811 -0.048405     48.000000
  0.108912 -0.084709 -0.036304     48.000000
  0.096811 -0.072608 -0.024203     48.000000
  0.084709 -0.060507 -0.012101     48.000000
  0.072608 -0.048405 -0.000000     24.000000
 -0.000000  0.024203  0.096811     24.000000
 -0.012101  0.036304  0.108912     48.000000
  0.133115 -0.108912 -0.036304     48.000000
  0.121014 -0.096811 -0.024203     48.000000
  0.108912 -0.084709 -0.012101     48.000000
  0.096811 -0.072608 -0.000000     24.000000
  0.000000  0.024203  0.121014     24.000000
  0.145216 -0.121014 -0.024203     48.000000
  0.133115 -0.108912 -0.012101     48.000000
  0.121014 -0.096811 -0.000000     24.000000
  0.157318 -0.133115 -0.012101     24.000000
  0.145216 -0.121014 -0.000000     24.000000
  0.000000  0.048405  0.096811     24.000000
  0.145216 -0.096811 -0.048405     48.000000
  0.133115 -0.084709 -0.036304     48.000000
  0.157318 -0.108912 -0.036304     24.000000
  0.145216 -0.096811 -0.024203     48.000000
  0.133115 -0.084709 -0.012101     48.000000
  0.121014 -0.072608 -0.000000     24.000000
  0.157318 -0.108912 -0.012101     24.000000
  0.145216 -0.096811  0.000000     24.000000
  0.157318 -0.084709 -0.012101     24.000000



--------------------------------------------------------------------------------------------------------




 Dimension of arrays:
   k-points           NKPTS =     84   k-points in BZ     NKDIM =     84   number of bands    NBANDS=     16
   number of dos      NEDOS =    301   number of ions     NIONS =      3
   non local maximal  LDIM  =      6   non local SUM 2l+1 LMDIM =     18
   total plane-waves  NPLWV =  64000
   max r-space proj   IRMAX =      1   max aug-charges    IRDMAX= 561702
   dimension x,y,z NGX =    40 NGY =   40 NGZ =   40
   dimension x,y,z NGXF=    80 NGYF=   80 NGZF=   80
   support grid    NGXF=   160 NGYF=  160 NGZF=  160
   ions per type =               1   1   1
   NGX,Y,Z   is equivalent  to a cutoff of  15.56, 15.56, 15.56 a.u.
   NGXF,Y,Z  is equivalent  to a cutoff of  31.11, 31.11, 31.11 a.u.

 SYSTEM =  unknown system
 POSCAR =  Hf1 Sb1 Pt1

 Startparameter for this run:
   NWRITE =      2    write-flag & timer
   PREC   = acc       normal or accurate (medium, high low for compatibility)
   ISTART =      0    job   : 0-new  1-cont  2-samecut
   ICHARG =      2    charge: 1-file 2-atom 10-const
   ISPIN  =      1    spin polarized calculation?
   LNONCOLLINEAR =      F non collinear calculations
   LSORBIT =      F    spin-orbit coupling
   INIWAV =      1    electr: 0-lowe 1-rand  2-diag
   LASPH  =      F    aspherical Exc in radial PAW
   METAGGA=      F    non-selfconsistent MetaGGA calc.

 Electronic Relaxation 1
   ENCUT  =  700.0 eV  51.45 Ry    7.17 a.u.   9.22  9.22  9.22*2*pi/ulx,y,z
   ENINI  =  700.0     initial cutoff
   ENAUG  =  380.9 eV  augmentation charge cutoff
   NELM   =     60;   NELMIN=  5; NELMDL= -5     # of ELM steps
   EDIFF  = 0.1E-06   stopping-criterion for ELM
   LREAL  =      F    real-space projection
   NLSPLINE    = F    spline interpolate recip. space projectors
   LCOMPAT=      F    compatible to vasp.4.4
   GGA_COMPAT  = T    GGA compatible to vasp.4.4-vasp.4.6
   LMAXPAW     = -100 max onsite density
   LMAXMIX     =    2 max onsite mixed and CHGCAR
   VOSKOWN=      0    Vosko Wilk Nusair interpolation
   ROPT   =    0.00000   0.00000   0.00000
 Ionic relaxation
   EDIFFG = 0.1E-05   stopping-criterion for IOM
   NSW    =      0    number of steps for IOM
   NBLOCK =      1;   KBLOCK =      1    inner block; outer block
   IBRION =     -1    ionic relax: 0-MD 1-quasi-New 2-CG
   NFREE  =      0    steps in history (QN), initial steepest desc. (CG)
   ISIF   =      3    stress and relaxation
   IWAVPR =     10    prediction:  0-non 1-charg 2-wave 3-comb
   ISYM   =      2    0-nonsym 1-usesym 2-fastsym
   LCORR  =      T    Harris-Foulkes like correction to forces

   POTIM  = 0.5000    time-step for ionic-motion
   TEIN   =    0.0    initial temperature
   TEBEG  =    0.0;   TEEND  =   0.0 temperature during run
   SMASS  =  -3.00    Nose mass-parameter (am)
   estimated Nose-frequenzy (Omega)   =  0.10E-29 period in steps = 0.13E+47 mass=  -0.418E-27a.u.
   SCALEE = 1.0000    scale energy and forces
   NPACO  =    256;   APACO  = 16.0  distance and # of slots for P.C.
   PSTRESS=    0.0 pullay stress

  Mass of Ions in am
   POMASS = 178.49121.75195.08
  Ionic Valenz
   ZVAL   =  10.00  5.00 10.00
  Atomic Wigner-Seitz radii
   RWIGS  =  -1.00 -1.00 -1.00
  virtual crystal weights
   VCA    =   1.00  1.00  1.00
   NELECT =      25.0000    total number of electrons
   NUPDOWN=      -1.0000    fix difference up-down

 DOS related values:
   EMIN   =  10.00;   EMAX   =-10.00  energy-range for DOS
   EFERMI =   0.00
   ISMEAR =     0;   SIGMA  =   0.01  broadening in eV -4-tet -1-fermi 0-gaus

 Electronic relaxation 2 (details)
   IALGO  =     38    algorithm
   LDIAG  =      T    sub-space diagonalisation (order eigenvalues)
   LSUBROT=      F    optimize rotation matrix (better conditioning)
   TURBO    =      0    0=normal 1=particle mesh
   IRESTART =      0    0=no restart 2=restart with 2 vectors
   NREBOOT  =      0    no. of reboots
   NMIN     =      0    reboot dimension
   EREF     =   0.00    reference energy to select bands
   IMIX   =      4    mixing-type and parameters
     AMIX     =   0.40;   BMIX     =  1.00
     AMIX_MAG =   1.60;   BMIX_MAG =  1.00
     AMIN     =   0.10
     WC   =   100.;   INIMIX=   1;  MIXPRE=   1;  MAXMIX= -45

 Intra band minimization:
   WEIMIN = 0.0000     energy-eigenvalue tresh-hold
   EBREAK =  0.16E-08  absolut break condition
   DEPER  =   0.30     relativ break condition

   TIME   =   0.40     timestep for ELM

  volume/ion in A,a.u.               =      18.41       124.22
  Fermi-wavevector in a.u.,A,eV,Ry     =   1.257050  2.375481 21.499592  1.580175
  Thomas-Fermi vector in A             =   2.390728

 Write flags
   LWAVE        =      F    write WAVECAR
   LDOWNSAMPLE  =      F    k-point downsampling of WAVECAR
   LCHARG       =      F    write CHGCAR
   LVTOT        =      F    write LOCPOT, total local potential
   LVHAR        =      F    write LOCPOT, Hartree potential only
   LELF         =      F    write electronic localiz. function (ELF)
   LORBIT       =      0    0 simple, 1 ext, 2 COOP (PROOUT), +10 PAW based schemes


 Dipole corrections
   LMONO  =      F    monopole corrections only (constant potential shift)
   LDIPOL =      F    correct potential (dipole corrections)
   IDIPOL =      0    1-x, 2-y, 3-z, 4-all directions
   EPSILON=  1.0000000 bulk dielectric constant

 Exchange correlation treatment:
   GGA     =    PS    GGA type
   LEXCH   =    14    internal setting for exchange type
   VOSKOWN=      0    Vosko Wilk Nusair interpolation
   LHFCALC =     F    Hartree Fock is set to
   LHFONE  =     F    Hartree Fock one center treatment
   AEXX    =    0.0000 exact exchange contribution

 Linear response parameters
   LEPSILON=     F    determine dielectric tensor
   LRPA    =     F    only Hartree local field effects (RPA)
   LNABLA  =     F    use nabla operator in PAW spheres
   LVEL    =     F    velocity operator in full k-point grid
   LINTERFAST=   F  fast interpolation
   KINTER  =     0    interpolate to denser k-point grid
   CSHIFT  =0.1000    complex shift for real part using Kramers Kronig
   OMEGAMAX=  -1.0    maximum frequency
   DEG_THRESHOLD= 0.2000000E-02 threshold for treating states as degnerate
   RTIME   =   -0.100 relaxation time in fs
  (WPLASMAI=    0.000 imaginary part of plasma frequency in eV, 0.658/RTIME)
   DFIELD  = 0.0000000 0.0000000 0.0000000 field for delta impulse in time

 Orbital magnetization related:
   ORBITALMAG=     F  switch on orbital magnetization
   LCHIMAG   =     F  perturbation theory with respect to B field
   DQ        =  0.001000  dq finite difference perturbation B field
   LLRAUG    =     F  two centre corrections for induced B field



--------------------------------------------------------------------------------------------------------


 Static calculation
 charge density and potential will be updated during run
 non-spin polarized calculation
 Variant of blocked Davidson
 Davidson routine will perform the subspace rotation
 perform sub-space diagonalisation
    after iterative eigenvector-optimisation
 modified Broyden-mixing scheme, WC =      100.0
 initial mixing is a Kerker type mixing with AMIX =  0.4000 and BMIX =      1.0000
 Hartree-type preconditioning will be used
 using additional bands            3
 reciprocal scheme for non local part
 use partial core corrections
 calculate Harris-corrections to forces
   (improved forces if not selfconsistent)
 use gradient corrections
 use of overlap-Matrix (Vanderbilt PP)
 Gauss-broadening in eV      SIGMA  =   0.01


--------------------------------------------------------------------------------------------------------


  energy-cutoff  :      700.00
  volume of cell :       55.22
      direct lattice vectors                 reciprocal lattice vectors
     0.000000000  3.022448099  3.022448099    -0.165428813  0.165428813  0.165428813
     3.022448099  0.000000000  3.022448099     0.165428813 -0.165428813  0.165428813
     3.022448099  3.022448099  0.000000000     0.165428813  0.165428813 -0.165428813

  length of vectors
     4.274387094  4.274387094  4.274387094     0.286531108  0.286531108  0.286531108



 k-points in units of 2pi/SCALE and weight: KPOINTS
   0.00000000  0.00000000  0.00000000       0.000
  -0.01210135  0.01210135  0.01210135       0.004
  -0.02420271  0.02420271  0.02420271       0.004
  -0.03630406  0.03630406  0.03630406       0.004
  -0.04840541  0.04840541  0.04840541       0.004
  -0.06050677  0.06050677  0.06050677       0.004
  -0.07260812  0.07260812  0.07260812       0.004
  -0.00000000  0.00000000  0.02420271       0.003
  -0.01210135  0.01210135  0.03630406       0.011
  -0.02420271  0.02420271  0.04840541       0.011
  -0.03630406  0.03630406  0.06050677       0.011
  -0.04840541  0.04840541  0.07260812       0.011
  -0.06050677  0.06050677  0.08470948       0.011
   0.08470948 -0.08470948 -0.06050677       0.011
   0.07260812 -0.07260812 -0.04840541       0.011
   0.06050677 -0.06050677 -0.03630406       0.011
   0.04840541 -0.04840541 -0.02420271       0.011
   0.03630406 -0.03630406 -0.01210135       0.011
   0.02420271 -0.02420271  0.00000000       0.005
   0.00000000 -0.00000000  0.04840541       0.003
  -0.01210135  0.01210135  0.06050677       0.011
  -0.02420271  0.02420271  0.07260812       0.011
  -0.03630406  0.03630406  0.08470948       0.011
  -0.04840541  0.04840541  0.09681083       0.011
   0.09681083 -0.09681083 -0.04840541       0.011
   0.08470948 -0.08470948 -0.03630406       0.011
   0.07260812 -0.07260812 -0.02420271       0.011
   0.06050677 -0.06050677 -0.01210135       0.011
   0.04840541 -0.04840541 -0.00000000       0.005
   0.00000000 -0.00000000  0.07260812       0.003
  -0.01210135  0.01210135  0.08470948       0.011
  -0.02420271  0.02420271  0.09681083       0.011
  -0.03630406  0.03630406  0.10891218       0.011
   0.10891218 -0.10891218 -0.03630406       0.011
   0.09681083 -0.09681083 -0.02420271       0.011
   0.08470948 -0.08470948 -0.01210135       0.011
   0.07260812 -0.07260812  0.00000000       0.005
   0.00000000 -0.00000000  0.09681083       0.003
  -0.01210135  0.01210135  0.10891218       0.011
  -0.02420271  0.02420271  0.12101354       0.011
   0.12101354 -0.12101354 -0.02420271       0.011
   0.10891218 -0.10891218 -0.01210135       0.011
   0.09681083 -0.09681083 -0.00000000       0.005
   0.00000000 -0.00000000  0.12101354       0.003
  -0.01210135  0.01210135  0.13311489       0.011
   0.13311489 -0.13311489 -0.01210135       0.011
   0.12101354 -0.12101354 -0.00000000       0.005
  -0.00000000  0.00000000  0.14521624       0.003
   0.14521624 -0.14521624  0.00000000       0.005
   0.00000000  0.02420271  0.04840541       0.011
  -0.01210135  0.03630406  0.06050677       0.022
  -0.02420271  0.04840541  0.07260812       0.022
  -0.03630406  0.06050677  0.08470948       0.022
   0.10891218 -0.08470948 -0.06050677       0.022
   0.00000000  0.02420271  0.07260812       0.011
  -0.01210135  0.03630406  0.08470948       0.022
  -0.02420271  0.04840541  0.09681083       0.022
   0.12101354 -0.09681083 -0.04840541       0.022
   0.10891218 -0.08470948 -0.03630406       0.022
   0.09681083 -0.07260812 -0.02420271       0.022
   0.08470948 -0.06050677 -0.01210135       0.022
   0.07260812 -0.04840541 -0.00000000       0.011
  -0.00000000  0.02420271  0.09681083       0.011
  -0.01210135  0.03630406  0.10891218       0.022
   0.13311489 -0.10891218 -0.03630406       0.022
   0.12101354 -0.09681083 -0.02420271       0.022
   0.10891218 -0.08470948 -0.01210135       0.022
   0.09681083 -0.07260812 -0.00000000       0.011
   0.00000000  0.02420271  0.12101354       0.011
   0.14521624 -0.12101354 -0.02420271       0.022
   0.13311489 -0.10891218 -0.01210135       0.022
   0.12101354 -0.09681083 -0.00000000       0.011
   0.15731760 -0.13311489 -0.01210135       0.011
   0.14521624 -0.12101354 -0.00000000       0.011
   0.00000000  0.04840541  0.09681083       0.011
   0.14521624 -0.09681083 -0.04840541       0.022
   0.13311489 -0.08470948 -0.03630406       0.022
   0.15731760 -0.10891218 -0.03630406       0.011
   0.14521624 -0.09681083 -0.02420271       0.022
   0.13311489 -0.08470948 -0.01210135       0.022
   0.12101354 -0.07260812 -0.00000000       0.011
   0.15731760 -0.10891218 -0.01210135       0.011
   0.14521624 -0.09681083  0.00000000       0.011
   0.15731760 -0.08470948 -0.01210135       0.011

 k-points in reciprocal lattice and weights: KPOINTS
   0.00000000  0.00000000  0.00000000       0.000
   0.07692308 -0.00000000  0.00000000       0.004
   0.15384615  0.00000000 -0.00000000       0.004
   0.23076923 -0.00000000  0.00000000       0.004
   0.30769231  0.00000000 -0.00000000       0.004
   0.38461538  0.00000000 -0.00000000       0.004
   0.46153846  0.00000000 -0.00000000       0.004
   0.07692308  0.07692308 -0.00000000       0.003
   0.15384615  0.07692308 -0.00000000       0.011
   0.23076923  0.07692308 -0.00000000       0.011
   0.30769231  0.07692308 -0.00000000       0.011
   0.38461538  0.07692308 -0.00000000       0.011
   0.46153846  0.07692308  0.00000000       0.011
  -0.46153846  0.07692308 -0.00000000       0.011
  -0.38461538  0.07692308 -0.00000000       0.011
  -0.30769231  0.07692308  0.00000000       0.011
  -0.23076923  0.07692308 -0.00000000       0.011
  -0.15384615  0.07692308 -0.00000000       0.011
  -0.07692308  0.07692308 -0.00000000       0.005
   0.15384615  0.15384615 -0.00000000       0.003
   0.23076923  0.15384615  0.00000000       0.011
   0.30769231  0.15384615 -0.00000000       0.011
   0.38461538  0.15384615 -0.00000000       0.011
   0.46153846  0.15384615 -0.00000000       0.011
  -0.46153846  0.15384615  0.00000000       0.011
  -0.38461538  0.15384615 -0.00000000       0.011
  -0.30769231  0.15384615  0.00000000       0.011
  -0.23076923  0.15384615  0.00000000       0.011
  -0.15384615  0.15384615  0.00000000       0.005
   0.23076923  0.23076923 -0.00000000       0.003
   0.30769231  0.23076923 -0.00000000       0.011
   0.38461538  0.23076923 -0.00000000       0.011
   0.46153846  0.23076923 -0.00000000       0.011
  -0.46153846  0.23076923  0.00000000       0.011
  -0.38461538  0.23076923 -0.00000000       0.011
  -0.30769231  0.23076923 -0.00000000       0.011
  -0.23076923  0.23076923 -0.00000000       0.005
   0.30769231  0.30769231 -0.00000000       0.003
   0.38461538  0.30769231  0.00000000       0.011
   0.46153846  0.30769231 -0.00000000       0.011
  -0.46153846  0.30769231  0.00000000       0.011
  -0.38461538  0.30769231  0.00000000       0.011
  -0.30769231  0.30769231  0.00000000       0.005
   0.38461538  0.38461538 -0.00000000       0.003
   0.46153846  0.38461538 -0.00000000       0.011
  -0.46153846  0.38461538 -0.00000000       0.011
  -0.38461538  0.38461538  0.00000000       0.005
   0.46153846  0.46153846 -0.00000000       0.003
  -0.46153846  0.46153846  0.00000000       0.005
   0.23076923  0.15384615  0.07692308       0.011
   0.30769231  0.15384615  0.07692308       0.022
   0.38461538  0.15384615  0.07692308       0.022
   0.46153846  0.15384615  0.07692308       0.022
  -0.46153846  0.15384615  0.07692308       0.022
   0.30769231  0.23076923  0.07692308       0.011
   0.38461538  0.23076923  0.07692308       0.022
   0.46153846  0.23076923  0.07692308       0.022
  -0.46153846  0.23076923  0.07692308       0.022
  -0.38461538  0.23076923  0.07692308       0.022
  -0.30769231  0.23076923  0.07692308       0.022
  -0.23076923  0.23076923  0.07692308       0.022
  -0.15384615  0.23076923  0.07692308       0.011
   0.38461538  0.30769231  0.07692308       0.011
   0.46153846  0.30769231  0.07692308       0.022
  -0.46153846  0.30769231  0.07692308       0.022
  -0.38461538  0.30769231  0.07692308       0.022
  -0.30769231  0.30769231  0.07692308       0.022
  -0.23076923  0.30769231  0.07692308       0.011
   0.46153846  0.38461538  0.07692308       0.011
  -0.46153846  0.38461538  0.07692308       0.022
  -0.38461538  0.38461538  0.07692308       0.022
  -0.30769231  0.38461538  0.07692308       0.011
  -0.46153846  0.46153846  0.07692308       0.011
  -0.38461538  0.46153846  0.07692308       0.011
   0.46153846  0.30769231  0.15384615       0.011
  -0.46153846  0.30769231  0.15384615       0.022
  -0.38461538  0.30769231  0.15384615       0.022
  -0.46153846  0.38461538  0.15384615       0.011
  -0.38461538  0.38461538  0.15384615       0.022
  -0.30769231  0.38461538  0.15384615       0.022
  -0.23076923  0.38461538  0.15384615       0.011
  -0.38461538  0.46153846  0.15384615       0.011
  -0.30769231  0.46153846  0.15384615       0.011
  -0.30769231  0.46153846  0.23076923       0.011

 position of ions in fractional coordinates (direct lattice)
   0.75000000  0.75000000  0.75000000
   0.25000000  0.25000000  0.25000000
   0.00000000  0.00000000  0.00000000

 position of ions in cartesian coordinates  (Angst):
   4.53367215  4.53367215  4.53367215
   1.51122405  1.51122405  1.51122405
   0.00000000  0.00000000  0.00000000



--------------------------------------------------------------------------------------------------------


 k-point  1 :   0.0000 0.0000 0.0000  plane waves:    2277
 k-point  2 :   0.0769-0.0000 0.0000  plane waves:    2307
 k-point  3 :   0.1538 0.0000-0.0000  plane waves:    2319
 k-point  4 :   0.2308-0.0000 0.0000  plane waves:    2322
 k-point  5 :   0.3077 0.0000-0.0000  plane waves:    2331
 k-point  6 :   0.3846 0.0000-0.0000  plane waves:    2334
 k-point  7 :   0.4615 0.0000-0.0000  plane waves:    2328
 k-point  8 :   0.0769 0.0769-0.0000  plane waves:    2305
 k-point  9 :   0.1538 0.0769-0.0000  plane waves:    2326
 k-point 10 :   0.2308 0.0769-0.0000  plane waves:    2316
 k-point 11 :   0.3077 0.0769-0.0000  plane waves:    2315
 k-point 12 :   0.3846 0.0769-0.0000  plane waves:    2323
 k-point 13 :   0.4615 0.0769 0.0000  plane waves:    2329
 k-point 14 :  -0.4615 0.0769-0.0000  plane waves:    2335
 k-point 15 :  -0.3846 0.0769-0.0000  plane waves:    2330
 k-point 16 :  -0.3077 0.0769 0.0000  plane waves:    2325
 k-point 17 :  -0.2308 0.0769-0.0000  plane waves:    2319
 k-point 18 :  -0.1538 0.0769-0.0000  plane waves:    2315
 k-point 19 :  -0.0769 0.0769-0.0000  plane waves:    2319
 k-point 20 :   0.1538 0.1538-0.0000  plane waves:    2309
 k-point 21 :   0.2308 0.1538 0.0000  plane waves:    2319
 k-point 22 :   0.3077 0.1538-0.0000  plane waves:    2317
 k-point 23 :   0.3846 0.1538-0.0000  plane waves:    2327
 k-point 24 :   0.4615 0.1538-0.0000  plane waves:    2326
 k-point 25 :  -0.4615 0.1538 0.0000  plane waves:    2333
 k-point 26 :  -0.3846 0.1538-0.0000  plane waves:    2323
 k-point 27 :  -0.3077 0.1538 0.0000  plane waves:    2333
 k-point 28 :  -0.2308 0.1538 0.0000  plane waves:    2321
 k-point 29 :  -0.1538 0.1538 0.0000  plane waves:    2317
 k-point 30 :   0.2308 0.2308-0.0000  plane waves:    2297
 k-point 31 :   0.3077 0.2308-0.0000  plane waves:    2316
 k-point 32 :   0.3846 0.2308-0.0000  plane waves:    2329
 k-point 33 :   0.4615 0.2308-0.0000  plane waves:    2329
 k-point 34 :  -0.4615 0.2308 0.0000  plane waves:    2320
 k-point 35 :  -0.3846 0.2308-0.0000  plane waves:    2321
 k-point 36 :  -0.3077 0.2308-0.0000  plane waves:    2328
 k-point 37 :  -0.2308 0.2308-0.0000  plane waves:    2319
 k-point 38 :   0.3077 0.3077-0.0000  plane waves:    2313
 k-point 39 :   0.3846 0.3077 0.0000  plane waves:    2331
 k-point 40 :   0.4615 0.3077-0.0000  plane waves:    2324
 k-point 41 :  -0.4615 0.3077 0.0000  plane waves:    2323
 k-point 42 :  -0.3846 0.3077 0.0000  plane waves:    2315
 k-point 43 :  -0.3077 0.3077 0.0000  plane waves:    2319
 k-point 44 :   0.3846 0.3846-0.0000  plane waves:    2337
 k-point 45 :   0.4615 0.3846-0.0000  plane waves:    2329
 k-point 46 :  -0.4615 0.3846-0.0000  plane waves:    2325
 k-point 47 :  -0.3846 0.3846 0.0000  plane waves:    2327
 k-point 48 :   0.4615 0.4615-0.0000  plane waves:    2329
 k-point 49 :  -0.4615 0.4615 0.0000  plane waves:    2310
 k-point 50 :   0.2308 0.1538 0.0769  plane waves:    2301
 k-point 51 :   0.3077 0.1538 0.0769  plane waves:    2319
 k-point 52 :   0.3846 0.1538 0.0769  plane waves:    2325
 k-point 53 :   0.4615 0.1538 0.0769  plane waves:    2326
 k-point 54 :  -0.4615 0.1538 0.0769  plane waves:    2322
 k-point 55 :   0.3077 0.2308 0.0769  plane waves:    2327
 k-point 56 :   0.3846 0.2308 0.0769  plane waves:    2325
 k-point 57 :   0.4615 0.2308 0.0769  plane waves:    2330
 k-point 58 :  -0.4615 0.2308 0.0769  plane waves:    2328
 k-point 59 :  -0.3846 0.2308 0.0769  plane waves:    2326
 k-point 60 :  -0.3077 0.2308 0.0769  plane waves:    2324
 k-point 61 :  -0.2308 0.2308 0.0769  plane waves:    2323
 k-point 62 :  -0.1538 0.2308 0.0769  plane waves:    2325
 k-point 63 :   0.3846 0.3077 0.0769  plane waves:    2330
 k-point 64 :   0.4615 0.3077 0.0769  plane waves:    2326
 k-point 65 :  -0.4615 0.3077 0.0769  plane waves:    2321
 k-point 66 :  -0.3846 0.3077 0.0769  plane waves:    2321
 k-point 67 :  -0.3077 0.3077 0.0769  plane waves:    2324
 k-point 68 :  -0.2308 0.3077 0.0769  plane waves:    2324
 k-point 69 :   0.4615 0.3846 0.0769  plane waves:    2329
 k-point 70 :  -0.4615 0.3846 0.0769  plane waves:    2331
 k-point 71 :  -0.3846 0.3846 0.0769  plane waves:    2324
 k-point 72 :  -0.3077 0.3846 0.0769  plane waves:    2320
 k-point 73 :  -0.4615 0.4615 0.0769  plane waves:    2319
 k-point 74 :  -0.3846 0.4615 0.0769  plane waves:    2316
 k-point 75 :   0.4615 0.3077 0.1538  plane waves:    2328
 k-point 76 :  -0.4615 0.3077 0.1538  plane waves:    2315
 k-point 77 :  -0.3846 0.3077 0.1538  plane waves:    2311
 k-point 78 :  -0.4615 0.3846 0.1538  plane waves:    2321
 k-point 79 :  -0.3846 0.3846 0.1538  plane waves:    2310
 k-point 80 :  -0.3077 0.3846 0.1538  plane waves:    2316
 k-point 81 :  -0.2308 0.3846 0.1538  plane waves:    2318
 k-point 82 :  -0.3846 0.4615 0.1538  plane waves:    2318
 k-point 83 :  -0.3077 0.4615 0.1538  plane waves:    2317
 k-point 84 :  -0.3077 0.4615 0.2308  plane waves:    2318

 maximum and minimum number of plane-waves per node :       603      557

 maximum number of plane-waves:      2337
 maximum index in each direction:
   IXMAX=    9   IYMAX=    9   IZMAX=    9
   IXMIN=   -9   IYMIN=   -9   IZMIN=   -9


 parallel 3D FFT for wavefunctions:
    minimum data exchange during FFTs selected (reduces bandwidth)
 parallel 3D FFT for charge:
    minimum data exchange during FFTs selected (reduces bandwidth)


 total amount of memory used by VASP MPI-rank0    62582. kBytes
=======================================================================

   base      :      30000. kBytes
   nonl-proj :      21365. kBytes
   fftplans  :       5202. kBytes
   grid      :       2732. kBytes
   one-center:         15. kBytes
   wavefun   :       3268. kBytes

     INWAV:  cpu time    0.0003: real time    0.0015
 Broyden mixing: mesh for mixing (old mesh)
   NGX = 19   NGY = 19   NGZ = 19
  (NGX  = 80   NGY  = 80   NGZ  = 80)
  gives a total of   6859 points

 initial charge density was supplied:
 charge density of overlapping atoms calculated
 number of electron      25.0000000 magnetization
 keeping initial charge density in first step


--------------------------------------------------------------------------------------------------------


 Maximum index for augmentation-charges        34413 (set IRDMAX)


--------------------------------------------------------------------------------------------------------


 First call to EWALD:  gamma=   0.465
 Maximum number of real-space cells 3x 3x 3
 Maximum number of reciprocal cells 3x 3x 3

    FEWALD:  cpu time    0.0052: real time    0.0076


--------------------------------------- Iteration      1(   1)  ---------------------------------------


    POTLOK:  cpu time    0.0417: real time    0.1256
    SETDIJ:  cpu time    0.0824: real time    0.0826
     EDDAV:  cpu time    0.8953: real time    0.9177
       DOS:  cpu time    0.0037: real time    0.0040
    --------------------------------------------
      LOOP:  cpu time    1.0234: real time    1.1304

 eigenvalue-minimisations  :  2696
 total energy-change (2. order) : 0.1482787E+03  (-0.1461152E+04)
 number of electron      25.0000000 magnetization
 augmentation part       25.0000000 magnetization

 Free energy of the ion-electron system (eV)
  ---------------------------------------------------
  alpha Z        PSCENC =       123.37186371
  Ewald energy   TEWEN  =     -1645.04381916
  -Hartree energ DENC   =      -296.61749628
  -exchange      EXHF   =         0.00000000
  -V(xc)+E(xc)   XCENC  =       -17.62816686
  PAW double counting   =      1514.36848356    -1421.27055995
  entropy T*S    EENTRO =        -0.00009844
  eigenvalues    EBANDS =       149.99396125
  atomic energy  EATOM  =      1741.10451121
  Solvation  Ediel_sol  =         0.00000000
  ---------------------------------------------------
  free energy    TOTEN  =       148.27867904 eV

  energy without entropy =      148.27877747  energy(sigma->0) =      148.27872826


--------------------------------------------------------------------------------------------------------




--------------------------------------- Iteration      1(   2)  ---------------------------------------


     EDDAV:  cpu time    1.0633: real time    1.0811
       DOS:  cpu time    0.0025: real time    0.0028
    --------------------------------------------
      LOOP:  cpu time    1.0658: real time    1.0850

 eigenvalue-minimisations  :  3424
 total energy-change (2. order) :-0.1679122E+03  (-0.1663956E+03)
 number of electron      25.0000000 magnetization
 augmentation part       25.0000000 magnetization

 Free energy of the ion-electron system (eV)
  ---------------------------------------------------
  alpha Z        PSCENC =       123.37186371
  Ewald energy   TEWEN  =     -1645.04381916
  -Hartree energ DENC   =      -296.61749628
  -exchange      EXHF   =         0.00000000
  -V(xc)+E(xc)   XCENC  =       -17.62816686
  PAW double counting   =      1514.36848356    -1421.27055995
  entropy T*S    EENTRO =        -0.00016779
  eigenvalues    EBANDS =       -17.91813211
  atomic energy  EATOM  =      1741.10451121
  Solvation  Ediel_sol  =         0.00000000
  ---------------------------------------------------
  free energy    TOTEN  =       -19.63348366 eV

  energy without entropy =      -19.63331588  energy(sigma->0) =      -19.63339977


--------------------------------------------------------------------------------------------------------




--------------------------------------- Iteration      1(   3)  ---------------------------------------


     EDDAV:  cpu time    1.0996: real time    1.1338
       DOS:  cpu time    0.0024: real time    0.0029
    --------------------------------------------
      LOOP:  cpu time    1.1021: real time    1.1386

 eigenvalue-minimisations  :  3584
 total energy-change (2. order) :-0.4387225E+01  (-0.4367515E+01)
 number of electron      25.0000000 magnetization
 augmentation part       25.0000000 magnetization

 Free energy of the ion-electron system (eV)
  ---------------------------------------------------
  alpha Z        PSCENC =       123.37186371
  Ewald energy   TEWEN  =     -1645.04381916
  -Hartree energ DENC   =      -296.61749628
  -exchange      EXHF   =         0.00000000
  -V(xc)+E(xc)   XCENC  =       -17.62816686
  PAW double counting   =      1514.36848356    -1421.27055995
  entropy T*S    EENTRO =        -0.00010976
  eigenvalues    EBANDS =       -22.30541545
  atomic energy  EATOM  =      1741.10451121
  Solvation  Ediel_sol  =         0.00000000
  ---------------------------------------------------
  free energy    TOTEN  =       -24.02070898 eV

  energy without entropy =      -24.02059922  energy(sigma->0) =      -24.02065410


--------------------------------------------------------------------------------------------------------




--------------------------------------- Iteration      1(   4)  ---------------------------------------


     EDDAV:  cpu time    1.0812: real time    1.1006
       DOS:  cpu time    0.0024: real time    0.0034
    --------------------------------------------
      LOOP:  cpu time    1.0837: real time    1.1035

 eigenvalue-minimisations  :  3376
 total energy-change (2. order) :-0.5552292E-01  (-0.5548034E-01)
 number of electron      25.0000000 magnetization
 augmentation part       25.0000000 magnetization

 Free energy of the ion-electron system (eV)
  ---------------------------------------------------
  alpha Z        PSCENC =       123.37186371
  Ewald energy   TEWEN  =     -1645.04381916
  -Hartree energ DENC   =      -296.61749628
  -exchange      EXHF   =         0.00000000
  -V(xc)+E(xc)   XCENC  =       -17.62816686
  PAW double counting   =      1514.36848356    -1421.27055995
  entropy T*S    EENTRO =        -0.00010828
  eigenvalues    EBANDS =       -22.36093985
  atomic energy  EATOM  =      1741.10451121
  Solvation  Ediel_sol  =         0.00000000
  ---------------------------------------------------
  free energy    TOTEN  =       -24.07623190 eV

  energy without entropy =      -24.07612362  energy(sigma->0) =      -24.07617776


--------------------------------------------------------------------------------------------------------




--------------------------------------- Iteration      1(   5)  ---------------------------------------


     EDDAV:  cpu time    1.1026: real time    1.1348
       DOS:  cpu time    0.0025: real time    0.0028
    CHARGE:  cpu time    0.2724: real time    0.2740
    MIXING:  cpu time    0.0048: real time    0.0051
    --------------------------------------------
      LOOP:  cpu time    1.3823: real time    1.4162

 eigenvalue-minimisations  :  3568
 total energy-change (2. order) :-0.1203832E-02  (-0.1203538E-02)
 number of electron      25.0000000 magnetization
 augmentation part        4.8162718 magnetization

 Broyden mixing:
  rms(total) = 0.54626E+01    rms(broyden)= 0.54626E+01
  rms(prec ) = 0.56013E+01
  weight for this iteration     100.00

 Free energy of the ion-electron system (eV)
  ---------------------------------------------------
  alpha Z        PSCENC =       123.37186371
  Ewald energy   TEWEN  =     -1645.04381916
  -Hartree energ DENC   =      -296.61749628
  -exchange      EXHF   =         0.00000000
  -V(xc)+E(xc)   XCENC  =       -17.62816686
  PAW double counting   =      1514.36848356    -1421.27055995
  entropy T*S    EENTRO =        -0.00010867
  eigenvalues    EBANDS =       -22.36214329
  atomic energy  EATOM  =      1741.10451121
  Solvation  Ediel_sol  =         0.00000000
  ---------------------------------------------------
  free energy    TOTEN  =       -24.07743573 eV

  energy without entropy =      -24.07732706  energy(sigma->0) =      -24.07738140


--------------------------------------------------------------------------------------------------------




--------------------------------------- Iteration      1(   6)  ---------------------------------------


    POTLOK:  cpu time    0.1350: real time    0.1618
    SETDIJ:  cpu time    0.0816: real time    0.0819
     EDDAV:  cpu time    1.0584: real time    1.0586
       DOS:  cpu time    0.0025: real time    0.0039
    CHARGE:  cpu time    0.2185: real time    0.2187
    MIXING:  cpu time    0.0047: real time    0.0048
    --------------------------------------------
      LOOP:  cpu time    1.5006: real time    1.5295

 eigenvalue-minimisations  :  3448
 total energy-change (2. order) : 0.5607273E+00  (-0.1153912E+00)
 number of electron      25.0000000 magnetization
 augmentation part        4.9760163 magnetization

 Broyden mixing:
  rms(total) = 0.32250E+01    rms(broyden)= 0.32250E+01
  rms(prec ) = 0.32677E+01
  weight for this iteration     100.00

 eigenvalues of (default mixing * dielectric matrix)
  average eigenvalue GAMMA=   2.4099
  2.4099

 Free energy of the ion-electron system (eV)
  ---------------------------------------------------
  alpha Z        PSCENC =       123.37186371
  Ewald energy   TEWEN  =     -1645.04381916
  -Hartree energ DENC   =      -284.19086853
  -exchange      EXHF   =         0.00000000
  -V(xc)+E(xc)   XCENC  =       -18.01480866
  PAW double counting   =      2179.98517621    -2089.77731319
  entropy T*S    EENTRO =        -0.00014937
  eigenvalues    EBANDS =       -30.95130064
  atomic energy  EATOM  =      1741.10451121
  Solvation  Ediel_sol  =         0.00000000
  ---------------------------------------------------
  free energy    TOTEN  =       -23.51670841 eV

  energy without entropy =      -23.51655905  energy(sigma->0) =      -23.51663373


--------------------------------------------------------------------------------------------------------




--------------------------------------- Iteration      1(   7)  ---------------------------------------


    POTLOK:  cpu time    0.0307: real time    0.0660
    SETDIJ:  cpu time    0.0805: real time    0.0807
     EDDAV:  cpu time    1.0907: real time    1.0909
       DOS:  cpu time    0.0026: real time    0.0038
    CHARGE:  cpu time    0.1926: real time    0.1927
    MIXING:  cpu time    0.0039: real time    0.0041
    --------------------------------------------
      LOOP:  cpu time    1.4012: real time    1.4423

 eigenvalue-minimisations  :  3584
 total energy-change (2. order) : 0.1354758E+00  (-0.7446348E-01)
 number of electron      25.0000000 magnetization
 augmentation part        4.9971121 magnetization

 Broyden mixing:
  rms(total) = 0.41522E+00    rms(broyden)= 0.41522E+00
  rms(prec ) = 0.53205E+00
  weight for this iteration     100.00

 eigenvalues of (default mixing * dielectric matrix)
  average eigenvalue GAMMA=   1.8381
  1.0772  2.5989

 Free energy of the ion-electron system (eV)
  ---------------------------------------------------
  alpha Z        PSCENC =       123.37186371
  Ewald energy   TEWEN  =     -1645.04381916
  -Hartree energ DENC   =      -277.33726633
  -exchange      EXHF   =         0.00000000
  -V(xc)+E(xc)   XCENC  =       -18.14313627
  PAW double counting   =      3292.46849336    -3205.83983592
  entropy T*S    EENTRO =        -0.00025618
  eigenvalues    EBANDS =       -33.96178698
  atomic energy  EATOM  =      1741.10451121
  Solvation  Ediel_sol  =         0.00000000
  ---------------------------------------------------
  free energy    TOTEN  =       -23.38123257 eV

  energy without entropy =      -23.38097639  energy(sigma->0) =      -23.38110448


--------------------------------------------------------------------------------------------------------




--------------------------------------- Iteration      1(   8)  ---------------------------------------


    POTLOK:  cpu time    0.0367: real time    0.0666
    SETDIJ:  cpu time    0.0823: real time    0.0825
     EDDAV:  cpu time    1.0406: real time    1.0407
       DOS:  cpu time    0.0027: real time    0.0031
    CHARGE:  cpu time    0.1728: real time    0.1728
    MIXING:  cpu time    0.0048: real time    0.0049
    --------------------------------------------
      LOOP:  cpu time    1.3396: real time    1.3675

 eigenvalue-minimisations  :  3384
 total energy-change (2. order) : 0.3287949E-01  (-0.2596897E-01)
 number of electron      25.0000000 magnetization
 augmentation part        5.0348403 magnetization

 Broyden mixing:
  rms(total) = 0.94627E-01    rms(broyden)= 0.94627E-01
  rms(prec ) = 0.13971E+00
  weight for this iteration     100.00

 eigenvalues of (default mixing * dielectric matrix)
  average eigenvalue GAMMA=   1.5846
  2.5488  1.5030  0.7019

 Free energy of the ion-electron system (eV)
  ---------------------------------------------------
  alpha Z        PSCENC =       123.37186371
  Ewald energy   TEWEN  =     -1645.04381916
  -Hartree energ DENC   =      -277.08755697
  -exchange      EXHF   =         0.00000000
  -V(xc)+E(xc)   XCENC  =       -18.11907608
  PAW double counting   =      3394.71667770    -3308.26374803
  entropy T*S    EENTRO =        -0.00013212
  eigenvalues    EBANDS =       -34.02707335
  atomic energy  EATOM  =      1741.10451121
  Solvation  Ediel_sol  =         0.00000000
  ---------------------------------------------------
  free energy    TOTEN  =       -23.34835308 eV

  energy without entropy =      -23.34822096  energy(sigma->0) =      -23.34828702


--------------------------------------------------------------------------------------------------------




--------------------------------------- Iteration      1(   9)  ---------------------------------------


    POTLOK:  cpu time    0.0326: real time    0.0598
    SETDIJ:  cpu time    0.0835: real time    0.0835
     EDDAV:  cpu time    1.0594: real time    1.0596
       DOS:  cpu time    0.0027: real time    0.0037
    CHARGE:  cpu time    0.1732: real time    0.1734
    MIXING:  cpu time    0.0049: real time    0.0050
    --------------------------------------------
      LOOP:  cpu time    1.3563: real time    1.3827

 eigenvalue-minimisations  :  3424
 total energy-change (2. order) : 0.2713594E-02  (-0.2804746E-02)
 number of electron      25.0000000 magnetization
 augmentation part        5.0152821 magnetization

 Broyden mixing:
  rms(total) = 0.56211E-01    rms(broyden)= 0.56211E-01
  rms(prec ) = 0.63085E-01
  weight for this iteration     100.00

 eigenvalues of (default mixing * dielectric matrix)
  average eigenvalue GAMMA=   1.4119
  2.3948  1.3418  1.2086  0.7024

 Free energy of the ion-electron system (eV)
  ---------------------------------------------------
  alpha Z        PSCENC =       123.37186371
  Ewald energy   TEWEN  =     -1645.04381916
  -Hartree energ DENC   =      -278.44627121
  -exchange      EXHF   =         0.00000000
  -V(xc)+E(xc)   XCENC  =       -18.06613524
  PAW double counting   =      3379.41550811    -3292.85987517
  entropy T*S    EENTRO =        -0.00013530
  eigenvalues    EBANDS =       -32.82128644
  atomic energy  EATOM  =      1741.10451121
  Solvation  Ediel_sol  =         0.00000000
  ---------------------------------------------------
  free energy    TOTEN  =       -23.34563949 eV

  energy without entropy =      -23.34550419  energy(sigma->0) =      -23.34557184


--------------------------------------------------------------------------------------------------------




--------------------------------------- Iteration      1(  10)  ---------------------------------------


    POTLOK:  cpu time    0.0340: real time    0.0587
    SETDIJ:  cpu time    0.0824: real time    0.0826
     EDDAV:  cpu time    1.0692: real time    1.0695
       DOS:  cpu time    0.0026: real time    0.0037
    CHARGE:  cpu time    0.1721: real time    0.1724
    MIXING:  cpu time    0.0053: real time    0.0055
    --------------------------------------------
      LOOP:  cpu time    1.3657: real time    1.3929

 eigenvalue-minimisations  :  3440
 total energy-change (2. order) : 0.2160768E-03  (-0.2027554E-03)
 number of electron      25.0000000 magnetization
 augmentation part        5.0138113 magnetization

 Broyden mixing:
  rms(total) = 0.20207E-01    rms(broyden)= 0.20207E-01
  rms(prec ) = 0.21802E-01
  weight for this iteration     100.00

 eigenvalues of (default mixing * dielectric matrix)
  average eigenvalue GAMMA=   1.4233
  2.4203  1.8119  0.7145  0.9989  1.1711

 Free energy of the ion-electron system (eV)
  ---------------------------------------------------
  alpha Z        PSCENC =       123.37186371
  Ewald energy   TEWEN  =     -1645.04381916
  -Hartree energ DENC   =      -278.42012051
  -exchange      EXHF   =         0.00000000
  -V(xc)+E(xc)   XCENC  =       -18.06969093
  PAW double counting   =      3368.08627505    -3281.44292444
  entropy T*S    EENTRO =        -0.00012570
  eigenvalues    EBANDS =       -32.93139263
  atomic energy  EATOM  =      1741.10451121
  Solvation  Ediel_sol  =         0.00000000
  ---------------------------------------------------
  free energy    TOTEN  =       -23.34542341 eV

  energy without entropy =      -23.34529771  energy(sigma->0) =      -23.34536056


--------------------------------------------------------------------------------------------------------




--------------------------------------- Iteration      1(  11)  ---------------------------------------


    POTLOK:  cpu time    0.0311: real time    0.0976
    SETDIJ:  cpu time    0.0831: real time    0.0832
     EDDAV:  cpu time    1.0692: real time    1.0695
       DOS:  cpu time    0.0026: real time    0.0032
    CHARGE:  cpu time    0.1709: real time    0.1724
    MIXING:  cpu time    0.0052: real time    0.0055
    --------------------------------------------
      LOOP:  cpu time    1.3622: real time    1.4339

 eigenvalue-minimisations  :  3280
 total energy-change (2. order) : 0.4517355E-05  (-0.8361914E-05)
 number of electron      25.0000000 magnetization
 augmentation part        5.0146797 magnetization

 Broyden mixing:
  rms(total) = 0.75454E-02    rms(broyden)= 0.75454E-02
  rms(prec ) = 0.80923E-02
  weight for this iteration     100.00

 eigenvalues of (default mixing * dielectric matrix)
  average eigenvalue GAMMA=   1.4856
  2.5853  2.2802  1.1959  1.1959  0.7236  0.9328

 Free energy of the ion-electron system (eV)
  ---------------------------------------------------
  alpha Z        PSCENC =       123.37186371
  Ewald energy   TEWEN  =     -1645.04381916
  -Hartree energ DENC   =      -278.45232299
  -exchange      EXHF   =         0.00000000
  -V(xc)+E(xc)   XCENC  =       -18.06644835
  PAW double counting   =      3376.23238839    -3289.57430775
  entropy T*S    EENTRO =        -0.00012683
  eigenvalues    EBANDS =       -32.91715712
  atomic energy  EATOM  =      1741.10451121
  Solvation  Ediel_sol  =         0.00000000
  ---------------------------------------------------
  free energy    TOTEN  =       -23.34541890 eV

  energy without entropy =      -23.34529206  energy(sigma->0) =      -23.34535548


--------------------------------------------------------------------------------------------------------




--------------------------------------- Iteration      1(  12)  ---------------------------------------


    POTLOK:  cpu time    0.0351: real time    0.0637
    SETDIJ:  cpu time    0.0816: real time    0.0820
     EDDAV:  cpu time    1.0862: real time    1.0871
       DOS:  cpu time    0.0026: real time    0.0043
    CHARGE:  cpu time    0.1714: real time    0.1728
    MIXING:  cpu time    0.0042: real time    0.0081
    --------------------------------------------
      LOOP:  cpu time    1.3810: real time    1.4205

 eigenvalue-minimisations  :  3504
 total energy-change (2. order) :-0.1490597E-05  (-0.2566380E-05)
 number of electron      25.0000000 magnetization
 augmentation part        5.0144981 magnetization

 Broyden mixing:
  rms(total) = 0.28417E-02    rms(broyden)= 0.28417E-02
  rms(prec ) = 0.29598E-02
  weight for this iteration     100.00

 eigenvalues of (default mixing * dielectric matrix)
  average eigenvalue GAMMA=   1.5583
  2.4752  2.4752  2.0948  0.7232  1.0941  1.0941  0.9516

 Free energy of the ion-electron system (eV)
  ---------------------------------------------------
  alpha Z        PSCENC =       123.37186371
  Ewald energy   TEWEN  =     -1645.04381916
  -Hartree energ DENC   =      -278.49434322
  -exchange      EXHF   =         0.00000000
  -V(xc)+E(xc)   XCENC  =       -18.06388376
  PAW double counting   =      3379.75346185    -3293.08841994
  entropy T*S    EENTRO =        -0.00012746
  eigenvalues    EBANDS =       -32.88466362
  atomic energy  EATOM  =      1741.10451121
  Solvation  Ediel_sol  =         0.00000000
  ---------------------------------------------------
  free energy    TOTEN  =       -23.34542039 eV

  energy without entropy =      -23.34529293  energy(sigma->0) =      -23.34535666


--------------------------------------------------------------------------------------------------------




--------------------------------------- Iteration      1(  13)  ---------------------------------------


    POTLOK:  cpu time    0.0323: real time    0.0748
    SETDIJ:  cpu time    0.0751: real time    0.0754
     EDDAV:  cpu time    1.0002: real time    1.0037
       DOS:  cpu time    0.0025: real time    0.0097
    CHARGE:  cpu time    0.1713: real time    0.1746
    MIXING:  cpu time    0.0044: real time    0.0058
    --------------------------------------------
      LOOP:  cpu time    1.2858: real time    1.3434

 eigenvalue-minimisations  :  3224
 total energy-change (2. order) : 0.1319698E-05  (-0.2369361E-06)
 number of electron      25.0000000 magnetization
 augmentation part        5.0145611 magnetization

 Broyden mixing:
  rms(total) = 0.28644E-03    rms(broyden)= 0.28643E-03
  rms(prec ) = 0.34557E-03
  weight for this iteration     100.00

 eigenvalues of (default mixing * dielectric matrix)
  average eigenvalue GAMMA=   1.5467
  2.6178  2.4812  2.1280  1.3401  0.7232  0.9654  1.0587  1.0587

 Free energy of the ion-electron system (eV)
  ---------------------------------------------------
  alpha Z        PSCENC =       123.37186371
  Ewald energy   TEWEN  =     -1645.04381916
  -Hartree energ DENC   =      -278.48453104
  -exchange      EXHF   =         0.00000000
  -V(xc)+E(xc)   XCENC  =       -18.06434765
  PAW double counting   =      3379.38182725    -3292.71347960
  entropy T*S    EENTRO =        -0.00012722
  eigenvalues    EBANDS =       -32.89731658
  atomic energy  EATOM  =      1741.10451121
  Solvation  Ediel_sol  =         0.00000000
  ---------------------------------------------------
  free energy    TOTEN  =       -23.34541907 eV

  energy without entropy =      -23.34529185  energy(sigma->0) =      -23.34535546


--------------------------------------------------------------------------------------------------------




--------------------------------------- Iteration      1(  14)  ---------------------------------------


    POTLOK:  cpu time    0.0313: real time    0.1078
    SETDIJ:  cpu time    0.0740: real time    0.0745
     EDDAV:  cpu time    0.8494: real time    0.8503
       DOS:  cpu time    0.0025: real time    0.0034
    --------------------------------------------
      LOOP:  cpu time    0.9571: real time    1.0340

 eigenvalue-minimisations  :  2512
 total energy-change (2. order) :-0.6852997E-07  (-0.1313508E-07)
 number of electron      25.0000000 magnetization
 augmentation part        5.0145611 magnetization

 Free energy of the ion-electron system (eV)
  ---------------------------------------------------
  alpha Z        PSCENC =       123.37186371
  Ewald energy   TEWEN  =     -1645.04381916
  -Hartree energ DENC   =      -278.48746653
  -exchange      EXHF   =         0.00000000
  -V(xc)+E(xc)   XCENC  =       -18.06418215
  PAW double counting   =      3379.61059629    -3292.94198966
  entropy T*S    EENTRO =        -0.00012719
  eigenvalues    EBANDS =       -32.89480565
  atomic energy  EATOM  =      1741.10451121
  Solvation  Ediel_sol  =         0.00000000
  ---------------------------------------------------
  free energy    TOTEN  =       -23.34541913 eV

  energy without entropy =      -23.34529194  energy(sigma->0) =      -23.34535554


--------------------------------------------------------------------------------------------------------




 average (electrostatic) potential at core
  the test charge radii are     1.1707  1.1712  1.2059
  (the norm of the test charge is              1.0000)
       1 -32.1743       2 -82.8362       3 -64.8870



 E-fermi :  11.1297     XC(G=0): -12.0955     alpha+bet :-15.8523


 k-point     1 :       0.0000    0.0000    0.0000
  band No.  band energies     occupation
      1     -20.9080      2.00000
      2     -20.9080      2.00000
      3     -20.9080      2.00000
      4      -3.0467      2.00000
      5       4.0034      2.00000
      6       4.0034      2.00000
      7       4.0034      2.00000
      8       4.7904      2.00000
      9       4.7904      2.00000
     10       9.0152      2.00000
     11       9.0152      2.00000
     12       9.0152      2.00000
     13      11.1203      1.81682
     14      12.1393      0.00000
     15      12.1393      0.00000
     16      12.1393      0.00000

 k-point     2 :       0.0769   -0.0000    0.0000
  band No.  band energies     occupation
      1     -20.9103      2.00000
      2     -20.9078      2.00000
      3     -20.9078      2.00000
      4      -2.9660      2.00000
      5       3.9294      2.00000
      6       3.9502      2.00000
      7       3.9502      2.00000
      8       4.8581      2.00000
      9       4.8581      2.00000
     10       8.5196      2.00000
     11       8.9500      2.00000
     12       8.9500      2.00000
     13      11.1014      1.99994
     14      11.9553      0.00000
     15      11.9553      0.00000
     16      12.7209      0.00000

 k-point     3 :       0.1538    0.0000   -0.0000
  band No.  band energies     occupation
      1     -20.9167      2.00000
      2     -20.9071      2.00000
      3     -20.9071      2.00000
      4      -2.7322      2.00000
      5       3.7219      2.00000
      6       3.8456      2.00000
      7       3.8456      2.00000
      8       4.9955      2.00000
      9       4.9955      2.00000
     10       7.5723      2.00000
     11       8.7889      2.00000
     12       8.7889      2.00000
     13      11.1311      0.84693
     14      11.8237      0.00000
     15      11.8237      0.00000
     16      13.4972      0.00000

 k-point     4 :       0.2308   -0.0000    0.0000
  band No.  band energies     occupation
      1     -20.9254      2.00000
      2     -20.9061      2.00000
      3     -20.9061      2.00000
      4      -2.3721      2.00000
      5       3.4105      2.00000
      6       3.7570      2.00000
      7       3.7570      2.00000
      8       5.1094      2.00000
      9       5.1094      2.00000
     10       6.6602      2.00000
     11       8.6092      2.00000
     12       8.6092      2.00000
     13      11.1880      0.00000
     14      11.8333      0.00000
     15      11.8333      0.00000
     16      14.2501      0.00000

 k-point     5 :       0.3077    0.0000   -0.0000
  band No.  band energies     occupation
      1     -20.9346      2.00000
      2     -20.9051      2.00000
      3     -20.9051      2.00000
      4      -1.9359      2.00000
      5       3.0292      2.00000
      6       3.7094      2.00000
      7       3.7094      2.00000
      8       5.1524      2.00000
      9       5.1524      2.00000
     10       5.9501      2.00000
     11       8.4771      2.00000
     12       8.4771      2.00000
     13      11.2470      0.00000
     14      11.9556      0.00000
     15      11.9556      0.00000
     16      13.7497      0.00000

 k-point     6 :       0.3846    0.0000   -0.0000
  band No.  band energies     occupation
      1     -20.9420      2.00000
      2     -20.9043      2.00000
      3     -20.9043      2.00000
      4      -1.5088      2.00000
      5       2.6408      2.00000
      6       3.6990      2.00000
      7       3.6990      2.00000
      8       5.1322      2.00000
      9       5.1322      2.00000
     10       5.4939      2.00000
     11       8.4116      2.00000
     12       8.4116      2.00000
     13      11.3009      0.00000
     14      12.1391      0.00000
     15      12.1391      0.00000
     16      12.9024      0.00000

 k-point     7 :       0.4615    0.0000   -0.0000
  band No.  band energies     occupation
      1     -20.9461      2.00000
      2     -20.9038      2.00000
      3     -20.9038      2.00000
      4      -1.2252      2.00000
      5       2.3742      2.00000
      6       3.7045      2.00000
      7       3.7045      2.00000
      8       5.0985      2.00000
      9       5.0985      2.00000
     10       5.2796      2.00000
     11       8.3912      2.00000
     12       8.3912      2.00000
     13      11.3417      0.00000
     14      12.2886      0.00000
     15      12.2886      0.00000
     16      12.4225      0.00000

 k-point     8 :       0.0769    0.0769   -0.0000
  band No.  band energies     occupation
      1     -20.9102      2.00000
      2     -20.9081      2.00000
      3     -20.9081      2.00000
      4      -2.9395      2.00000
      5       3.7285      2.00000
      6       4.0391      2.00000
      7       4.0391      2.00000
      8       4.8301      2.00000
      9       4.8981      2.00000
     10       8.6078      2.00000
     11       8.8037      2.00000
     12       8.8037      2.00000
     13      11.0371      2.00000
     14      11.9738      0.00000
     15      12.4639      0.00000
     16      12.4640      0.00000

 k-point     9 :       0.1538    0.0769   -0.0000
  band No.  band energies     occupation
      1     -20.9149      2.00000
      2     -20.9080      2.00000
      3     -20.9075      2.00000
      4      -2.7582      2.00000
      5       3.4914      2.00000
      6       4.0054      2.00000
      7       4.0245      2.00000
      8       4.9228      2.00000
      9       4.9934      2.00000
     10       7.8709      2.00000
     11       8.6031      2.00000
     12       8.7151      2.00000
     13      11.0956      2.00000
     14      11.7910      0.00000
     15      12.1258      0.00000
     16      13.0942      0.00000

 k-point    10 :       0.2308    0.0769   -0.0000
  band No.  band energies     occupation
      1     -20.9227      2.00000
      2     -20.9073      2.00000
      3     -20.9066      2.00000
      4      -2.4428      2.00000
      5       3.2543      2.00000
      6       3.8749      2.00000
      7       3.9600      2.00000
      8       5.0467      2.00000
      9       5.1021      2.00000
     10       6.9711      2.00000
     11       8.4278      2.00000
     12       8.5570      2.00000
     13      11.2856      0.00000
     14      11.7258      0.00000
     15      11.9609      0.00000
     16      13.7687      0.00000

 k-point    11 :       0.3077    0.0769   -0.0000
  band No.  band energies     occupation
      1     -20.9315      2.00000
      2     -20.9064      2.00000
      3     -20.9058      2.00000
      4      -2.0360      2.00000
      5       2.9988      2.00000
      6       3.7348      2.00000
      7       3.8971      2.00000
      8       5.1161      2.00000
      9       5.1709      2.00000
     10       6.2009      2.00000
     11       8.3263      2.00000
     12       8.3913      2.00000
     13      11.2893      0.00000
     14      11.9412      0.00000
     15      11.9906      0.00000
     16      13.8508      0.00000

 k-point    12 :       0.3846    0.0769   -0.0000
  band No.  band energies     occupation
      1     -20.9393      2.00000
      2     -20.9054      2.00000
      3     -20.9053      2.00000
      4      -1.6099      2.00000
      5       2.7116      2.00000
      6       3.6563      2.00000
      7       3.8442      2.00000
      8       5.1216      2.00000
      9       5.1766      2.00000
     10       5.6578      2.00000
     11       8.2781      2.00000
     12       8.2976      2.00000
     13      11.2695      0.00000
     14      12.0544      0.00000
     15      12.2688      0.00000
     16      13.1113      0.00000

 k-point    13 :       0.4615    0.0769    0.0000
  band No.  band energies     occupation
      1     -20.9443      2.00000
      2     -20.9053      2.00000
      3     -20.9044      2.00000
      4      -1.2785      2.00000
      5       2.4615      2.00000
      6       3.6551      2.00000
      7       3.7862      2.00000
      8       5.1125      2.00000
      9       5.1410      2.00000
     10       5.3582      2.00000
     11       8.2212      2.00000
     12       8.3058      2.00000
     13      11.3174      0.00000
     14      12.1249      0.00000
     15      12.2318      0.00000
     16      12.8678      0.00000

 k-point    14 :      -0.4615    0.0769   -0.0000
  band No.  band energies     occupation
      1     -20.9456      2.00000
      2     -20.9056      2.00000
      3     -20.9039      2.00000
      4      -1.1802      2.00000
      5       2.3850      2.00000
      6       3.7083      2.00000
      7       3.7127      2.00000
      8       5.1036      2.00000
[...]
  212              fftbas_plan_mpi                       0.064807                     12   6
  213                dfftw_execute                         0.025352                   36   7
  214                map_backward                          0.004603                   12   7
  215                  map_gather                            0.000821                  6   8
  216                  m_alltoallv_z                         0.002271                  6   8
  217                  map_scatter                           0.001209                  6   8
  218                map_forward                           0.031770                   12   7
  219                  map_gather                            0.019060                  6   8
  220                  m_alltoallv_z                         0.006168                  6   8
  221                  map_scatter                           0.006224                  6   8
  222            M_sumb_d                              0.008338                        6   5
  223          M_sumb_d                              0.000031                          1   4
  224        setdij_                               1.457487                           20   3
  225          fft3d_mpi                             0.229338                         40   4
  226            fftbas_plan_mpi                       0.210532                       40   5
  227              dfftw_execute                         0.086330                    120   6
  228              map_backward                          0.013268                     40   6
  229                map_gather                            0.003125                   20   7
  230                m_alltoallv_z                         0.005367                   20   7
  231                map_scatter                           0.003799                   20   7
  232              map_forward                           0.100749                     40   6
  233                map_gather                            0.062443                   20   7
  234                m_alltoallv_z                         0.017613                   20   7
  235                map_scatter                           0.019698                   20   7
  236          M_sumb_d                              0.025474                         20   4
  237        set_dd_magatom                        0.000003                            1   3
  238        set_dd_paw                            0.000401                            1   3
  239          set_rsgf_all                          0.000004                          1   4
  240          M_sumb_d                              0.000225                          8   4
  241        strkin                                0.000557                            1   3
  242          M_sumb_d                              0.000215                          1   4
  243        strelo                                0.002561                            1   3
  244          M_sumb_d                              0.000324                          2   4
  245        strenl                                0.597547                            1   3
  246          spher                                 0.468764                         19   4
  247          phase                                 0.009861                        189   4
  248          proj1                                 0.106718                        756   4
  249            crexp_mul_wave                        0.016519                     2268   5
  250            M_sumb_d                              0.031244                      756   5
  251          M_sumb_d                              0.000814                          1   4
  252        M_sumb_d                              0.000262                            6   3
  253        fft3d_mpi                             0.015095                           11   3
  254          fftbas_plan_mpi                       0.014083                         11   4
  255            dfftw_execute                         0.005015                       33   5
  256            map_forward                           0.002832                       10   5
  257              map_gather                            0.000662                      5   6
  258              m_alltoallv_z                         0.001283                      5   6
  259              map_scatter                           0.000641                      5   6
  260            map_backward                          0.003694                       12   5
  261              map_gather                            0.000764                      6   6
  262              m_alltoallv_z                         0.001533                      6   6
  263              map_scatter                           0.001111                      6   6
  264        ggaall_grid                           0.001491                            1   3
  265        forhar                                0.006345                            2   3
  266          M_sumb_d                              0.000340                          2   4
  267        strehar                               0.002678                            1   3
  268          M_sumb_d                              0.000261                          1   4
  269        chggra                                0.005721                            1   3
  270          fft3d_mpi                             0.004067                          3   4
  271            fftbas_plan_mpi                       0.003737                        3   5
  272              dfftw_execute                         0.001338                      9   6
  273              map_backward                          0.000605                      2   6
  274                map_gather                            0.000119                    1   7
  275                m_alltoallv_z                         0.000249                    1   7
  276                map_scatter                           0.000185                    1   7
  277              map_forward                           0.001044                      4   6
  278                map_gather                            0.000230                    2   7
  279                m_alltoallv_z                         0.000476                    2   7
  280                map_scatter                           0.000242                    2   7
  281          M_sumb_d                              0.000142                          3   4
  282        brmix                                 0.004320                            1   3
  283          M_sumb_d                              0.000304                          6   4
  284          brpre                                 0.000049                          1   4
  285          setg0                                 0.001088                          1   4
  286          broyd                                 0.001813                          1   4
  287            M_sumb_d                              0.000461                       16   5
  288            brget                                 0.000245                       54   5
  289            brsav                                 0.000104                       14   5
  290          M_bcast_z                             0.000128                          1   4
  291          M_bcast_d                             0.000040                          1   4
  292        M_bcast_d                             0.000041                            2   3
  293      potlok                                0.027358                              1   2
  294        fft3d_mpi                             0.018411                           13   3
  295          fftbas_plan_mpi                       0.017243                         13   4
  296            dfftw_execute                         0.005702                       39   5
  297            map_forward                           0.004447                       14   5
  298              map_gather                            0.000824                      8   6
  299              m_alltoallv_z                         0.002143                      8   6
  300              map_scatter                           0.001101                      8   6
  301            map_backward                          0.004057                       12   5
  302              map_gather                            0.000840                      6   6
  303              m_alltoallv_z                         0.001612                      6   6
  304              map_scatter                           0.001300                      6   6
  305        ggaall_grid                           0.001580                            1   3
  306        M_sumb_d                              0.000348                            6   3
  307        M_bcast_d                             0.000108                            1   3
  308      potlok_metagga                        0.000004                              1   2
  309      set_dd_magatom                        0.000003                              1   2
  310      set_dd_paw                            0.000392                              1   2
  311        set_rsgf_all                          0.000004                            1   3
  312        M_sumb_d                              0.000248                            8   3
  313      densta                                0.001924                              1   2
  314        M_sumb_d                              0.000775                           39   3
  315      lprj_proall                           0.000008                              1   2

 Flat profile
 ============

             routine name                   CPU           calls
 ---------------------------------------------------------------
 total_time                             15.460977           1
 eddav                                   2.747921          14
 dfftw_execute                           2.723552       27483
 setdij_                                 2.373132          38
 fftbas_plan_mpi                         1.846912        9163
 elmin                                   1.842321           1
 M_sumb_d                                1.354292       26091
 set_charge                              1.098201          10
 m_alltoallv_z                           1.044577        9182
 M_alltoall_d                            0.629678       30170
 pdssyex_zheevx                          0.590241         294
 spher                                   0.523913          20
 orth1                                   0.436473        6144
 vhamil                                  0.412155        4082
 map_gather                              0.389131        9182
 proj1                                   0.352390        3746
 map_forward                             0.349833        9896
 fftwav_mpi                              0.344297        4825
 map_scatter                             0.321530        9182
 M_bcast_z                               0.318793        3748
 gemm                                    0.297737       12246
 vnlac0                                  0.266058        4082
 crpa_reader                             0.261198           1
 redis_pw                                0.244207       11700
 redis_proj                              0.220869       14627
 hamiltmu                                0.219391        2041
 fft3d_mpi                               0.172638        9161
 map_backward                            0.149057        8426
 w1_copy                                 0.149056       12246
 work_mul_crexp                          0.123253       12246
 fftext_mpi                              0.121967        4082
 eccp                                    0.104327        1176
 crexp_mul_wave                          0.090356       11238
 kinhamil                                0.078653        4082
 overl                                   0.075818        7009
 potlok                                  0.068049          11
 M_bcast_d                               0.066496        2069
 force_and_stress                        0.057355           1
 overl1                                  0.050123        4082
 lincom                                  0.046585         315
 pw_charge                               0.043733         743
 setup_precond                           0.036701        1176
 apply_precond                           0.036525        2906
 w1_projall                              0.031025        1453
 phase                                   0.027314         526
 soft_charge                             0.019894          10
 ggaall_grid                             0.018458          12
 truncate_high_frequency_w1              0.017967        5258
 fornl                                   0.017816           1
 densta                                  0.017245          15
 setg0                                   0.011719          11
 strenl                                  0.011389           1
 brmix                                   0.010053          10
 forhar                                  0.006005           2
 broyd                                   0.005835          10
 brgrid                                  0.005641           1
 set_dd_paw                              0.003970          12
 forloc                                  0.003085           1
 strehar                                 0.002417           1
 depsum                                  0.002260          10
 strelo                                  0.002237           1
 orthch                                  0.002002           1
 chggra                                  0.001512           1
 brget                                   0.001503         309
 proj                                    0.001043          21
 choleski                                0.000799          21
 brsav                                   0.000727          96
 brpre                                   0.000606          10
 strkin                                  0.000342           1
 fordep                                  0.000126           1
 vectorpot                               0.000073          11
 set_rsgf_all                            0.000062          12
 potlok_metagga                          0.000047          11
 set_dd_magatom                          0.000042          12
 set_kineden                             0.000032           9
 rotate_active_occupied_orbital          0.000016           1
 lprj_proall                             0.000008           1
 redis_pw_over_bands                     0.000004           1
 ---------------------------------------------------------------
  summed up times    38.3637459278107

 Accumulative profile
 ====================

             routine name                   CPU           calls
 ---------------------------------------------------------------
 total_time                             38.363746           1
 elmin                                  19.211384           1
 eddav                                  14.524075          14
 fft3d_mpi                               6.956043        9161
 fftbas_plan_mpi                         6.824592        9163
 hamiltmu                                4.529517        2041
 fftwav_mpi                              3.757189        4825
 kinhamil                                2.911906        4082
 setdij_                                 2.889285          38
 fftext_mpi                              2.833253        4082
 force_and_stress                        2.803792           1
 dfftw_execute                           2.723552       27483
 set_charge                              1.884547          10
 M_sumb_d                                1.354292       26091
 map_forward                             1.324811        9896
 m_alltoallv_z                           1.044577        9182
 vnlac0                                  0.935942        4082
 map_backward                            0.929317        8426
 M_alltoall_d                            0.629678       30170
 soft_charge                             0.628198          10
 proj1                                   0.620863        3746
 strenl                                  0.597547           1
 pdssyex_zheevx                          0.590241         294
 redis_pw                                0.582073       11700
 w1_projall                              0.533878        1453
 spher                                   0.523913          20
 redis_proj                              0.512681       14627
 fordep                                  0.451835           1
 orth1                                   0.436473        6144
 vhamil                                  0.412155        4082
 map_gather                              0.389131        9182
 map_scatter                             0.321530        9182
 M_bcast_z                               0.318793        3748
 gemm                                    0.297737       12246
 potlok                                  0.284293          11
 crpa_reader                             0.261198           1
 eccp                                    0.170948        1176
 w1_copy                                 0.149056       12246
 work_mul_crexp                          0.123253       12246
 crexp_mul_wave                          0.090356       11238
 overl                                   0.075818        7009
 M_bcast_d                               0.066496        2069
 setup_precond                           0.064083        1176
 set_dd_paw                              0.050647          12
 overl1                                  0.050123        4082
 lincom                                  0.046585         315
 brmix                                   0.044563          10
 pw_charge                               0.043733         743
 apply_precond                           0.036525        2906
 densta                                  0.028146          15
 orthch                                  0.027818           1
 phase                                   0.027314         526
 fornl                                   0.025288           1
 ggaall_grid                             0.018458          12
 truncate_high_frequency_w1              0.017967        5258
 proj                                    0.012336          21
 setg0                                   0.011719          11
 broyd                                   0.011594          10
 forhar                                  0.006345           2
 chggra                                  0.005721           1
 brgrid                                  0.005641           1
 depsum                                  0.004506          10
 forloc                                  0.003142           1
 strehar                                 0.002678           1
 strelo                                  0.002561           1
 brget                                   0.001503         309
 choleski                                0.000799          21
 brsav                                   0.000727          96
 brpre                                   0.000606          10
 strkin                                  0.000557           1
 vectorpot                               0.000073          11
 set_rsgf_all                            0.000062          12
 potlok_metagga                          0.000047          11
 set_dd_magatom                          0.000042          12
 set_kineden                             0.000032           9
 rotate_active_occupied_orbital          0.000016           1
 lprj_proall                             0.000008           1
 redis_pw_over_bands                     0.000004           1
 ---------------------------------------------------------------

Profiling took   0.718053  0.880156  0.005797  0.004350 seconds
Profiling took   0.693003 seconds
