<?xml version="1.0" encoding="ISO-8859-1"?>
<modeling>
 <generator>
  <i name="program" type="string">vasp </i>
  <i name="version" type="string">6.0.8  </i>
  <i name="subversion" type="string">29Jun18 (build Jun 13 2019 12:54:44) complex                          parallel </i>
  <i name="platform" type="string">IFC18_CrayMPICH </i>
  <i name="date" type="string">2021 12 05 </i>
  <i name="time" type="string">14:21:52 </i>
 </generator>
 <incar>
  <i type="int" name="KPAR">     4</i>
  <i type="int" name="NPAR">     4</i>
  <i type="int" name="ISTART">     0</i>
  <i type="string" name="PREC"> ACC</i>
  <i type="string" name="ALGO"> Normal</i>
  <i type="logical" name="ADDGRID"> T  </i>
  <i type="int" name="ISPIN">     1</i>
  <i type="int" name="NELMIN">     5</i>
  <i type="int" name="IBRION">    -1</i>
  <i name="EDIFF">      0.00000010</i>
  <i type="int" name="NSW">     0</i>
  <i type="int" name="ISIF">     3</i>
  <i name="ENCUT">    700.00000000</i>
  <i type="logical" name="LREAL"> F  </i>
  <i type="int" name="ISMEAR">     0</i>
  <i name="SIGMA">      0.01000000</i>
  <i type="logical" name="LWAVE"> F  </i>
  <i type="logical" name="LCHARG"> F  </i>
  <i type="logical" name="LVTOT"> F  </i>
  <i type="string" name="ALGO"> Normal</i>
  <i type="string" name="GGA"> PS</i>
  <i name="EDIFF">      0.00000010</i>
  <i type="int" name="ISPIN">     1</i>
 </incar>
 <structure name="primitive_cell" >
  <crystal>
   <varray name="basis" >
    <v>       0.00000000       3.02244810       3.02244810 </v>
    <v>       3.02244810       0.00000000       3.02244810 </v>
    <v>       3.02244810       3.02244810       0.00000000 </v>
   </varray>
   <i name="volume">     55.22129050 </i>
   <varray name="rec_basis" >
    <v>      -0.16542881       0.16542881       0.16542881 </v>
    <v>       0.16542881      -0.16542881       0.16542881 </v>
    <v>       0.16542881       0.16542881      -0.16542881 </v>
   </varray>
  </crystal>
  <varray name="positions" >
   <v>       0.75000000       0.75000000       0.75000000 </v>
   <v>       0.25000000       0.25000000       0.25000000 </v>
   <v>       0.00000000       0.00000000       0.00000000 </v>
  </varray>
 </structure>
 <varray name="primitive_index" >
  <v type="int" >        1 </v>
  <v type="int" >        2 </v>
  <v type="int" >        3 </v>
 </varray>
 <kpoints>
  <generation param="Gamma">
   <v type="int" name="divisions">      13       13       13 </v>
   <v name="usershift">      0.00000000       0.00000000       0.00000000 </v>
   <v name="genvec1">      0.07692308      -0.00000000       0.00000000 </v>
   <v name="genvec2">     -0.00000000       0.07692308      -0.00000000 </v>
   <v name="genvec3">      0.00000000       0.00000000       0.07692308 </v>
   <v name="shift">      0.00000000       0.00000000       0.00000000 </v>
  </generation>
  <varray name="kpointlist" >
   <v>       0.00000000       0.00000000       0.00000000 </v>
   <v>       0.07692308      -0.00000000       0.00000000 </v>
   <v>       0.15384615       0.00000000      -0.00000000 </v>
   <v>       0.23076923      -0.00000000       0.00000000 </v>
   <v>       0.30769231       0.00000000      -0.00000000 </v>
   <v>       0.38461538       0.00000000      -0.00000000 </v>
   <v>       0.46153846       0.00000000      -0.00000000 </v>
   <v>       0.07692308       0.07692308      -0.00000000 </v>
   <v>       0.15384615       0.07692308      -0.00000000 </v>
   <v>       0.23076923       0.07692308      -0.00000000 </v>
   <v>       0.30769231       0.07692308      -0.00000000 </v>
   <v>       0.38461538       0.07692308      -0.00000000 </v>
   <v>       0.46153846       0.07692308       0.00000000 </v>
   <v>      -0.46153846       0.07692308      -0.00000000 </v>
   <v>      -0.38461538       0.07692308      -0.00000000 </v>
   <v>      -0.30769231       0.07692308       0.00000000 </v>
   <v>      -0.23076923       0.07692308      -0.00000000 </v>
   <v>      -0.15384615       0.07692308      -0.00000000 </v>
   <v>      -0.07692308       0.07692308      -0.00000000 </v>
   <v>       0.15384615       0.15384615      -0.00000000 </v>
   <v>       0.23076923       0.15384615       0.00000000 </v>
   <v>       0.30769231       0.15384615      -0.00000000 </v>
   <v>       0.38461538       0.15384615      -0.00000000 </v>
   <v>       0.46153846       0.15384615      -0.00000000 </v>
   <v>      -0.46153846       0.15384615       0.00000000 </v>
   <v>      -0.38461538       0.15384615      -0.00000000 </v>
   <v>      -0.30769231       0.15384615       0.00000000 </v>
   <v>      -0.23076923       0.15384615       0.00000000 </v>
   <v>      -0.15384615       0.15384615       0.00000000 </v>
   <v>       0.23076923       0.23076923      -0.00000000 </v>
   <v>       0.30769231       0.23076923      -0.00000000 </v>
   <v>       0.38461538       0.23076923      -0.00000000 </v>
   <v>       0.46153846       0.23076923      -0.00000000 </v>
   <v>      -0.46153846       0.23076923       0.00000000 </v>
   <v>      -0.38461538       0.23076923      -0.00000000 </v>
   <v>      -0.30769231       0.23076923      -0.00000000 </v>
   <v>      -0.23076923       0.23076923      -0.00000000 </v>
   <v>       0.30769231       0.30769231      -0.00000000 </v>
   <v>       0.38461538       0.30769231       0.00000000 </v>
   <v>       0.46153846       0.30769231      -0.00000000 </v>
   <v>      -0.46153846       0.30769231       0.00000000 </v>
   <v>      -0.38461538       0.30769231       0.00000000 </v>
   <v>      -0.30769231       0.30769231       0.00000000 </v>
   <v>       0.38461538       0.38461538      -0.00000000 </v>
   <v>       0.46153846       0.38461538      -0.00000000 </v>
   <v>      -0.46153846       0.38461538      -0.00000000 </v>
   <v>      -0.38461538       0.38461538       0.00000000 </v>
   <v>       0.46153846       0.46153846      -0.00000000 </v>
   <v>      -0.46153846       0.46153846       0.00000000 </v>
   <v>       0.23076923       0.15384615       0.07692308 </v>
   <v>       0.30769231       0.15384615       0.07692308 </v>
   <v>       0.38461538       0.15384615       0.07692308 </v>
   <v>       0.46153846       0.15384615       0.07692308 </v>
   <v>      -0.46153846       0.15384615       0.07692308 </v>
   <v>       0.30769231       0.23076923       0.07692308 </v>
   <v>       0.38461538       0.23076923       0.07692308 </v>
   <v>       0.46153846       0.23076923       0.07692308 </v>
   <v>      -0.46153846       0.23076923       0.07692308 </v>
   <v>      -0.38461538       0.23076923       0.07692308 </v>
   <v>      -0.30769231       0.23076923       0.07692308 </v>
   <v>      -0.23076923       0.23076923       0.07692308 </v>
   <v>      -0.15384615       0.23076923       0.07692308 </v>
   <v>       0.38461538       0.30769231       0.07692308 </v>
   <v>       0.46153846       0.30769231       0.07692308 </v>
   <v>      -0.46153846       0.30769231       0.07692308 </v>
   <v>      -0.38461538       0.30769231       0.07692308 </v>
   <v>      -0.30769231       0.30769231       0.07692308 </v>
   <v>      -0.23076923       0.30769231       0.07692308 </v>
   <v>       0.46153846       0.38461538       0.07692308 </v>
   <v>      -0.46153846       0.38461538       0.07692308 </v>
   <v>      -0.38461538       0.38461538       0.07692308 </v>
   <v>      -0.30769231       0.38461538       0.07692308 </v>
   <v>      -0.46153846       0.46153846       0.07692308 </v>
   <v>      -0.38461538       0.46153846       0.07692308 </v>
   <v>       0.46153846       0.30769231       0.15384615 </v>
   <v>      -0.46153846       0.30769231       0.15384615 </v>
   <v>      -0.38461538       0.30769231       0.15384615 </v>
   <v>      -0.46153846       0.38461538       0.15384615 </v>
   <v>      -0.38461538       0.38461538       0.15384615 </v>
   <v>      -0.30769231       0.38461538       0.15384615 </v>
   <v>      -0.23076923       0.38461538       0.15384615 </v>
   <v>      -0.38461538       0.46153846       0.15384615 </v>
   <v>      -0.30769231       0.46153846       0.15384615 </v>
   <v>      -0.30769231       0.46153846       0.23076923 </v>
  </varray>
  <varray name="weights" >
   <v>       0.00045517 </v>
   <v>       0.00364133 </v>
   <v>       0.00364133 </v>
   <v>       0.00364133 </v>
   <v>       0.00364133 </v>
   <v>       0.00364133 </v>
   <v>       0.00364133 </v>
   <v>       0.00273100 </v>
   <v>       0.01092399 </v>
   <v>       0.01092399 </v>
   <v>       0.01092399 </v>
   <v>       0.01092399 </v>
   <v>       0.01092399 </v>
   <v>       0.01092399 </v>
   <v>       0.01092399 </v>
   <v>       0.01092399 </v>
   <v>       0.01092399 </v>
   <v>       0.01092399 </v>
   <v>       0.00546199 </v>
   <v>       0.00273100 </v>
   <v>       0.01092399 </v>
   <v>       0.01092399 </v>
   <v>       0.01092399 </v>
   <v>       0.01092399 </v>
   <v>       0.01092399 </v>
   <v>       0.01092399 </v>
   <v>       0.01092399 </v>
   <v>       0.01092399 </v>
   <v>       0.00546199 </v>
   <v>       0.00273100 </v>
   <v>       0.01092399 </v>
   <v>       0.01092399 </v>
   <v>       0.01092399 </v>
   <v>       0.01092399 </v>
   <v>       0.01092399 </v>
   <v>       0.01092399 </v>
   <v>       0.00546199 </v>
   <v>       0.00273100 </v>
   <v>       0.01092399 </v>
   <v>       0.01092399 </v>
   <v>       0.01092399 </v>
   <v>       0.01092399 </v>
   <v>       0.00546199 </v>
   <v>       0.00273100 </v>
   <v>       0.01092399 </v>
   <v>       0.01092399 </v>
   <v>       0.00546199 </v>
   <v>       0.00273100 </v>
   <v>       0.00546199 </v>
   <v>       0.01092399 </v>
   <v>       0.02184797 </v>
   <v>       0.02184797 </v>
   <v>       0.02184797 </v>
   <v>       0.02184797 </v>
   <v>       0.01092399 </v>
   <v>       0.02184797 </v>
   <v>       0.02184797 </v>
   <v>       0.02184797 </v>
   <v>       0.02184797 </v>
   <v>       0.02184797 </v>
   <v>       0.02184797 </v>
   <v>       0.01092399 </v>
   <v>       0.01092399 </v>
   <v>       0.02184797 </v>
   <v>       0.02184797 </v>
   <v>       0.02184797 </v>
   <v>       0.02184797 </v>
   <v>       0.01092399 </v>
   <v>       0.01092399 </v>
   <v>       0.02184797 </v>
   <v>       0.02184797 </v>
   <v>       0.01092399 </v>
   <v>       0.01092399 </v>
   <v>       0.01092399 </v>
   <v>       0.01092399 </v>
   <v>       0.02184797 </v>
   <v>       0.02184797 </v>
   <v>       0.01092399 </v>
   <v>       0.02184797 </v>
   <v>       0.02184797 </v>
   <v>       0.01092399 </v>
   <v>       0.01092399 </v>
   <v>       0.01092399 </v>
   <v>       0.01092399 </v>
  </varray>
 </kpoints>
 <parameters>
  <separator name="general" >
   <i type="string" name="SYSTEM">unknown system</i>
   <i type="logical" name="LCOMPAT"> F  </i>
  </separator>
  <separator name="electronic" >
   <i type="string" name="PREC">acc</i>
   <i name="ENMAX">    700.00000000</i>
   <i name="ENAUG">    380.87800000</i>
   <i name="EDIFF">      0.00000010</i>
   <i type="int" name="IALGO">    38</i>
   <i type="int" name="IWAVPR">    10</i>
   <i type="int" name="NBANDS">    16</i>
   <i type="int" name="NBANDSLOW">    -1</i>
   <i type="int" name="NBANDSHIGH">    -1</i>
   <i name="NELECT">     25.00000000</i>
   <i type="int" name="TURBO">     0</i>
   <i type="int" name="IRESTART">     0</i>
   <i type="int" name="NREBOOT">     0</i>
   <i type="int" name="NMIN">     0</i>
   <i name="EREF">      0.00000000</i>
   <separator name="electronic smearing" >
    <i type="int" name="ISMEAR">     0</i>
    <i name="SIGMA">      0.01000000</i>
    <i name="KSPACING">      0.50000000</i>
    <i type="logical" name="KGAMMA"> T  </i>
    <i type="logical" name="KBLOWUP"> T  </i>
   </separator>
   <separator name="electronic projectors" >
    <i type="logical" name="LREAL"> F  </i>
    <v name="ROPT">      0.00000000      0.00000000      0.00000000</v>
    <i type="int" name="LMAXPAW">  -100</i>
    <i type="int" name="LMAXMIX">     2</i>
    <i type="logical" name="NLSPLINE"> F  </i>
   </separator>
   <separator name="electronic startup" >
    <i type="int" name="ISTART">     0</i>
    <i type="int" name="ICHARG">     2</i>
    <i type="int" name="INIWAV">     1</i>
   </separator>
   <separator name="electronic spin" >
    <i type="int" name="ISPIN">     1</i>
    <i type="logical" name="LNONCOLLINEAR"> F  </i>
    <v name="MAGMOM">      1.00000000      1.00000000      1.00000000</v>
    <i name="NUPDOWN">     -1.00000000</i>
    <i type="logical" name="LSORBIT"> F  </i>
    <v name="SAXIS">      0.00000000      0.00000000      1.00000000</v>
    <i type="logical" name="LSPIRAL"> F  </i>
    <v name="QSPIRAL">      0.00000000      0.00000000      0.00000000</v>
    <i type="logical" name="LZEROZ"> F  </i>
   </separator>
   <separator name="electronic exchange-correlation" >
    <i type="logical" name="LASPH"> F  </i>
    <i type="logical" name="LMETAGGA"> F  </i>
   </separator>
   <separator name="electronic convergence" >
    <i type="int" name="NELM">    60</i>
    <i type="int" name="NELMDL">    -5</i>
    <i type="int" name="NELMIN">     5</i>
    <i name="ENINI">    700.00000000</i>
    <separator name="electronic convergence detail" >
     <i type="logical" name="LDIAG"> T  </i>
     <i type="logical" name="LSUBROT"> F  </i>
     <i name="WEIMIN">      0.00000000</i>
     <i name="EBREAK">      0.00000000</i>
     <i name="DEPER">      0.30000000</i>
     <i type="int" name="NRMM">     4</i>
     <i name="TIME">      0.40000000</i>
    </separator>
   </separator>
   <separator name="electronic mixer" >
    <i name="AMIX">      0.40000000</i>
    <i name="BMIX">      1.00000000</i>
    <i name="AMIN">      0.10000000</i>
    <i name="AMIX_MAG">      1.60000000</i>
    <i name="BMIX_MAG">      1.00000000</i>
    <separator name="electronic mixer details" >
     <i type="int" name="IMIX">     4</i>
     <i type="logical" name="MIXFIRST"> F  </i>
     <i type="int" name="MAXMIX">   -45</i>
     <i name="WC">    100.00000000</i>
     <i type="int" name="INIMIX">     1</i>
     <i type="int" name="MIXPRE">     1</i>
     <i type="int" name="MREMOVE">     5</i>
    </separator>
   </separator>
   <separator name="electronic dipolcorrection" >
    <i type="logical" name="LDIPOL"> F  </i>
    <i type="logical" name="LMONO"> F  </i>
    <i type="int" name="IDIPOL">     0</i>
    <i name="EPSILON">      1.00000000</i>
    <v name="DIPOL">   -100.00000000   -100.00000000   -100.00000000</v>
    <i name="EFIELD">      0.00000000</i>
   </separator>
  </separator>
  <separator name="grids" >
   <i type="int" name="NGX">    40</i>
   <i type="int" name="NGY">    40</i>
   <i type="int" name="NGZ">    40</i>
   <i type="int" name="NGXF">    80</i>
   <i type="int" name="NGYF">    80</i>
   <i type="int" name="NGZF">    80</i>
   <i type="logical" name="ADDGRID"> T  </i>
  </separator>
  <separator name="ionic" >
   <i type="int" name="NSW">     0</i>
   <i type="int" name="IBRION">    -1</i>
   <i type="int" name="MDALGO">     0</i>
   <i type="int" name="ISIF">     3</i>
   <i name="PSTRESS">      0.00000000</i>
   <i name="EDIFFG">      0.00000100</i>
   <i type="int" name="NFREE">     0</i>
   <i name="POTIM">      0.50000000</i>
   <i name="SMASS">     -3.00000000</i>
   <i name="SCALEE">      1.00000000</i>
  </separator>
  <separator name="ionic md" >
   <i name="TEBEG">      0.00010000</i>
   <i name="TEEND">      0.00010000</i>
   <i type="int" name="NBLOCK">     1</i>
   <i type="int" name="KBLOCK">     1</i>
   <i type="int" name="NPACO">   256</i>
   <i name="APACO">     16.00000000</i>
  </separator>
  <separator name="symmetry" >
   <i type="int" name="ISYM">     2</i>
   <i name="SYMPREC">      0.00001000</i>
  </separator>
  <separator name="dos" >
   <i type="int" name="LORBIT">     0</i>
   <v name="RWIGS">     -1.00000000     -1.00000000     -1.00000000</v>
   <i type="int" name="NEDOS">   301</i>
   <i name="EMIN">     10.00000000</i>
   <i name="EMAX">    -10.00000000</i>
   <i name="EFERMI">      0.00000000</i>
  </separator>
  <separator name="writing" >
   <i type="int" name="NWRITE">     2</i>
   <i type="logical" name="LWAVE"> F  </i>
   <i type="logical" name="LDOWNSAMPLE"> F  </i>
   <i type="logical" name="LCHARG"> F  </i>
   <i type="logical" name="LPARD"> F  </i>
   <i type="logical" name="LVTOT"> F  </i>
   <i type="logical" name="LVHAR"> F  </i>
   <i type="logical" name="LELF"> F  </i>
   <i type="logical" name="LOPTICS"> F  </i>
   <v name="STM">      0.00000000      0.00000000      0.00000000      0.00000000      0.00000000      0.00000000      0.00000000</v>
  </separator>
  <separator name="performance" >
   <i type="int" name="NPAR">     4</i>
   <i type="int" name="NSIM">     4</i>
   <i type="int" name="NBLK">    -1</i>
   <i type="logical" name="LPLANE"> T  </i>
   <i type="logical" name="LSCALAPACK"> T  </i>
   <i type="logical" name="LSCAAWARE"> F  </i>
   <i type="logical" name="LSCALU"> F  </i>
   <i type="logical" name="LASYNC"> F  </i>
   <i type="logical" name="LORBITALREAL"> F  </i>
  </separator>
  <separator name="miscellaneous" >
   <i type="int" name="IDIOT">     3</i>
   <i type="int" name="PHON_NSTRUCT">    -1</i>
   <i type="logical" name="LMUSIC"> F  </i>
   <v name="POMASS">    178.49000000    121.75000000    195.08000000</v>
   <v name="DARWINR">      0.00000000      0.00000000      0.00000000</v>
   <v name="DARWINV">      1.00000000      1.00000000      1.00000000</v>
   <i type="logical" name="LCORR"> T  </i>
  </separator>
  <i type="logical" name="GGA_COMPAT"> T  </i>
  <i type="logical" name="LBERRY"> F  </i>
  <i type="int" name="ICORELEVEL">     0</i>
  <i type="logical" name="LDAU"> F  </i>
  <i type="int" name="I_CONSTRAINED_M">     0</i>
  <separator name="electronic exchange-correlation" >
   <i type="string" name="GGA">PS</i>
   <i type="int" name="VOSKOWN">     0</i>
   <i type="logical" name="LHFCALC"> F  </i>
   <i type="string" name="PRECFOCK"></i>
   <i type="logical" name="LSYMGRAD"> F  </i>
   <i type="logical" name="LHFONE"> F  </i>
   <i type="logical" name="LRHFCALC"> F  </i>
   <i type="logical" name="LTHOMAS"> F  </i>
   <i type="logical" name="LMODELHF"> F  </i>
   <i type="logical" name="LFOCKACE"> F  </i>
   <i name="ENCUT4O">     -1.00000000</i>
   <i type="int" name="EXXOEP">     0</i>
   <i type="int" name="FOURORBIT">     0</i>
   <i name="AEXX">      0.00000000</i>
   <i name="HFALPHA">      0.00000000</i>
   <i name="MCALPHA">      0.00000000</i>
   <i name="ALDAX">      1.00000000</i>
   <i name="AGGAX">      1.00000000</i>
   <i name="ALDAC">      1.00000000</i>
   <i name="AGGAC">      1.00000000</i>
   <i type="int" name="NKREDX">     1</i>
   <i type="int" name="NKREDY">     1</i>
   <i type="int" name="NKREDZ">     1</i>
   <i type="logical" name="SHIFTRED"> F  </i>
   <i type="logical" name="ODDONLY"> F  </i>
   <i type="logical" name="EVENONLY"> F  </i>
   <i type="int" name="LMAXFOCK">     0</i>
   <i type="int" name="NMAXFOCKAE">     0</i>
   <i type="logical" name="LFOCKAEDFT"> F  </i>
   <i name="HFSCREEN">      0.00000000</i>
   <i name="HFSCREENC">      0.00000000</i>
   <i type="int" name="NBANDSGWLOW">     0</i>
  </separator>
  <separator name="vdW DFT" >
   <i type="logical" name="LUSE_VDW"> F  </i>
   <i name="Zab_VDW">     -0.84910000</i>
   <i name="PARAM1">      0.12340000</i>
   <i name="PARAM2">      1.00000000</i>
   <i name="PARAM3">      0.00000000</i>
  </separator>
  <separator name="model GW" >
   <i type="int" name="MODEL_GW">     0</i>
   <i name="MODEL_EPS0">     11.04425810</i>
   <i name="MODEL_ALPHA">      1.00000000</i>
  </separator>
  <separator name="linear response parameters" >
   <i type="logical" name="LEPSILON"> F  </i>
   <i type="logical" name="LRPA"> F  </i>
   <i type="logical" name="LNABLA"> F  </i>
   <i type="logical" name="LVEL"> F  </i>
   <i type="int" name="KINTER">     0</i>
   <i name="CSHIFT">      0.10000000</i>
   <i name="OMEGAMAX">     -1.00000000</i>
   <i name="DEG_THRESHOLD">      0.00200000</i>
   <i name="RTIME">     -0.10000000</i>
   <i name="WPLASMAI">      0.00000000</i>
   <v name="DFIELD">      0.00000000      0.00000000      0.00000000</v>
   <v name="WPLASMA">      0.00000000      0.00000000      0.00000000      0.00000000      0.00000000      0.00000000      0.00000000      0.00000000      0.00000000</v>
  </separator>
  <separator name="orbital magnetization" >
   <i type="logical" name="NUCIND"> F  </i>
   <v name="MAGPOS">      0.00000000      0.00000000      0.00000000</v>
   <i type="logical" name="LNICSALL"> T  </i>
   <i type="logical" name="ORBITALMAG"> F  </i>
   <i type="logical" name="LMAGBLOCH"> F  </i>
   <i type="logical" name="LCHIMAG"> F  </i>
   <i type="logical" name="LGAUGE"> T  </i>
   <i type="int" name="MAGATOM">     0</i>
   <v name="MAGDIPOL">      0.00000000      0.00000000      0.00000000</v>
   <v name="AVECCONST">      0.00000000      0.00000000      0.00000000</v>
  </separator>
  <separator name="response functions" >
   <i type="logical" name="LFINITE_TEMPERATURE"> F  </i>
   <i type="logical" name="LADDER"> F  </i>
   <i type="logical" name="LRPAFORCE"> F  </i>
   <i type="logical" name="LFXC"> F  </i>
   <i type="logical" name="LHARTREE"> T  </i>
   <i type="int" name="IBSE">     0</i>
   <v type="int" name="KPOINT">    -1     0     0     0</v>
   <i type="logical" name="LTCTC"> F  </i>
   <i type="logical" name="LTCTE"> F  </i>
   <i type="logical" name="LTETE"> F  </i>
   <i type="logical" name="LTRIPLET"> F  </i>
   <i type="logical" name="LFXCEPS"> F  </i>
   <i type="logical" name="LFXHEG"> F  </i>
   <i type="int" name="NATURALO">     2</i>
   <i type="logical" name="L2ORDER"> F  </i>
   <i type="logical" name="LDMP1"> F  </i>
   <i type="logical" name="LMP2LT"> F  </i>
   <i type="logical" name="LSMP2LT"> F  </i>
   <i type="logical" name="LUSEW"> F  </i>
   <i name="ENCUTGW">     -2.00000000</i>
   <i name="ENCUTGWSOFT">     -2.00000000</i>
   <i name="ENCUTLF">     -1.00000000</i>
   <i type="int" name="LMAXMP2">    -1</i>
   <i name="SCISSOR">      0.00000000</i>
   <i type="int" name="NOMEGA">     0</i>
   <i type="int" name="NOMEGAR">     0</i>
   <i type="int" name="NBANDSGW">    -1</i>
   <i type="int" name="NBANDSO">    -1</i>
   <i type="int" name="NBANDSV">    -1</i>
   <i type="int" name="NELM">     1</i>
   <i type="int" name="NELMHF">     1</i>
   <i type="int" name="DIM">     3</i>
   <i type="int" name="IESPILON">     4</i>
   <i type="int" name="ANTIRES">     0</i>
   <i name="OMEGAMAX">    -30.00000000</i>
   <i name="OMEGAMIN">    -30.00000000</i>
   <i name="OMEGATL">   -200.00000000</i>
   <i type="int" name="OMEGAGRID">   145</i>
   <i name="CSHIFT">     -0.10000000</i>
   <i type="logical" name="LSELFENERGY"> F  </i>
   <i type="logical" name="LSPECTRAL"> F  </i>
   <i type="logical" name="LSPECTRALGW"> F  </i>
   <i type="logical" name="LSINGLES"> F  </i>
   <i type="logical" name="LFERMIGW"> F  </i>
   <i type="logical" name="ODDONLYGW"> F  </i>
   <i type="logical" name="EVENONLYGW"> F  </i>
   <i type="int" name="NKREDLFX">     1</i>
   <i type="int" name="NKREDLFY">     1</i>
   <i type="int" name="NKREDLFZ">     1</i>
   <i type="int" name="MAXMEM">  2800</i>
   <i type="int" name="TELESCOPE">     0</i>
   <i type="int" name="NTAUPAR">     1</i>
   <i type="int" name="NOMEGAPAR">    -1</i>
   <i name="LAMBDA">      1.00000000</i>
  </separator>
  <separator name="External order field" >
   <i name="OFIELD_KAPPA">      0.00000000</i>
   <v name="OFIELD_K">      0.00000000      0.00000000      0.00000000</v>
   <i name="OFIELD_Q6_NEAR">      0.00000000</i>
   <i name="OFIELD_Q6_FAR">      0.00000000</i>
   <i name="OFIELD_A">      0.00000000</i>
  </separator>
 </parameters>
 <atominfo>
  <atoms>       3 </atoms>
  <types>       3 </types>
  <array name="atoms" >
   <dimension dim="1">ion</dimension>
   <field type="string">element</field>
   <field type="int">atomtype</field>
   <set>
    <rc><c>Hf</c><c>   1</c></rc>
    <rc><c>Sb</c><c>   2</c></rc>
    <rc><c>Pt</c><c>   3</c></rc>
   </set>
  </array>
  <array name="atomtypes" >
   <dimension dim="1">type</dimension>
   <field type="int">atomspertype</field>
   <field type="string">element</field>
   <field>mass</field>
   <field>valence</field>
   <field type="string">pseudopotential</field>
   <set>
    <rc><c>   1</c><c>Hf</c><c>    178.49000000</c><c>     10.00000000</c><c>  PAW_PBE Hf_pv 06Sep2000               </c></rc>
    <rc><c>   1</c><c>Sb</c><c>    121.75000000</c><c>      5.00000000</c><c>  PAW_PBE Sb 06Sep2000                  </c></rc>
    <rc><c>   1</c><c>Pt</c><c>    195.08000000</c><c>     10.00000000</c><c>  PAW_PBE Pt 04Feb2005                  </c></rc>
   </set>
  </array>
 </atominfo>
 <structure name="initialpos" >
  <crystal>
   <varray name="basis" >
    <v>       0.00000000       3.02244810       3.02244810 </v>
    <v>       3.02244810       0.00000000       3.02244810 </v>
    <v>       3.02244810       3.02244810       0.00000000 </v>
   </varray>
   <i name="volume">     55.22129050 </i>
   <varray name="rec_basis" >
    <v>      -0.16542881       0.16542881       0.16542881 </v>
    <v>       0.16542881      -0.16542881       0.16542881 </v>
    <v>       0.16542881       0.16542881      -0.16542881 </v>
   </varray>
  </crystal>
  <varray name="positions" >
   <v>       0.75000000       0.75000000       0.75000000 </v>
   <v>       0.25000000       0.25000000       0.25000000 </v>
   <v>       0.00000000       0.00000000       0.00000000 </v>
  </varray>
 </structure>
 <calculation>
  <scstep>
   <time name="dav">    0.90    0.92</time>
   <time name="total">    1.02    1.13</time>
   <energy>
    <i name="alphaZ">    123.37186371 </i>
    <i name="ewald">  -1645.04381916 </i>
    <i name="hartreedc">   -296.61749628 </i>
    <i name="XCdc">    -17.62816686 </i>
    <i name="pawpsdc">   1514.36848356 </i>
    <i name="pawaedc">  -1421.27055995 </i>
    <i name="eentropy">     -0.00009844 </i>
    <i name="bandstr">    149.99396125 </i>
    <i name="atom">   1741.10451121 </i>
    <i name="e_fr_energy">    148.27867904 </i>
    <i name="e_wo_entrp">    148.27877747 </i>
    <i name="e_0_energy">    148.27872826 </i>
   </energy>
  </scstep>
  <scstep>
   <time name="dav">    1.06    1.08</time>
   <time name="total">    1.07    1.08</time>
   <energy>
    <i name="e_fr_energy">    -19.63348366 </i>
    <i name="e_wo_entrp">    -19.63331588 </i>
    <i name="e_0_energy">    -19.63339977 </i>
   </energy>
  </scstep>
  <scstep>
   <time name="dav">    1.10    1.13</time>
   <time name="total">    1.10    1.14</time>
   <energy>
    <i name="e_fr_energy">    -24.02070898 </i>
    <i name="e_wo_entrp">    -24.02059922 </i>
    <i name="e_0_energy">    -24.02065410 </i>
   </energy>
  </scstep>
  <scstep>
   <time name="dav">    1.08    1.10</time>
   <time name="total">    1.08    1.10</time>
   <energy>
    <i name="e_fr_energy">    -24.07623190 </i>
    <i name="e_wo_entrp">    -24.07612362 </i>
    <i name="e_0_energy">    -24.07617776 </i>
   </energy>
  </scstep>
  <scstep>
   <time name="dav">    1.10    1.13</time>
   <time name="total">    1.38    1.42</time>
   <energy>
    <i name="e_fr_energy">    -24.07743573 </i>
    <i name="e_wo_entrp">    -24.07732706 </i>
    <i name="e_0_energy">    -24.07738140 </i>
   </energy>
  </scstep>
  <scstep>
   <time name="dav">    1.06    1.06</time>
   <time name="total">    1.50    1.53</time>
   <energy>
    <i name="e_fr_energy">    -23.51670841 </i>
    <i name="e_wo_entrp">    -23.51655905 </i>
    <i name="e_0_energy">    -23.51663373 </i>
   </energy>
  </scstep>
  <scstep>
   <time name="dav">    1.09    1.09</time>
   <time name="total">    1.40    1.44</time>
   <energy>
    <i name="e_fr_energy">    -23.38123257 </i>
    <i name="e_wo_entrp">    -23.38097639 </i>
    <i name="e_0_energy">    -23.38110448 </i>
   </energy>
  </scstep>
  <scstep>
   <time name="dav">    1.04    1.04</time>
   <time name="total">    1.34    1.37</time>
   <energy>
    <i name="e_fr_energy">    -23.34835308 </i>
    <i name="e_wo_entrp">    -23.34822096 </i>
    <i name="e_0_energy">    -23.34828702 </i>
   </energy>
  </scstep>
  <scstep>
   <time name="dav">    1.06    1.06</time>
   <time name="total">    1.36    1.38</time>
   <energy>
    <i name="e_fr_energy">    -23.34563949 </i>
    <i name="e_wo_entrp">    -23.34550419 </i>
    <i name="e_0_energy">    -23.34557184 </i>
   </energy>
  </scstep>
  <scstep>
   <time name="dav">    1.07    1.07</time>
   <time name="total">    1.37    1.39</time>
   <energy>
    <i name="e_fr_energy">    -23.34542341 </i>
    <i name="e_wo_entrp">    -23.34529771 </i>
    <i name="e_0_energy">    -23.34536056 </i>
   </energy>
  </scstep>
  <scstep>
   <time name="dav">    1.07    1.07</time>
   <time name="total">    1.36    1.43</time>
   <energy>
    <i name="e_fr_energy">    -23.34541890 </i>
    <i name="e_wo_entrp">    -23.34529206 </i>
    <i name="e_0_energy">    -23.34535548 </i>
   </energy>
  </scstep>
  <scstep>
   <time name="dav">    1.09    1.09</time>
   <time name="total">    1.38    1.42</time>
   <energy>
    <i name="e_fr_energy">    -23.34542039 </i>
    <i name="e_wo_entrp">    -23.34529293 </i>
    <i name="e_0_energy">    -23.34535666 </i>
   </energy>
  </scstep>
  <scstep>
   <time name="dav">    1.00    1.00</time>
   <time name="total">    1.29    1.34</time>
   <energy>
    <i name="e_fr_energy">    -23.34541907 </i>
    <i name="e_wo_entrp">    -23.34529185 </i>
    <i name="e_0_energy">    -23.34535546 </i>
   </energy>
  </scstep>
  <scstep>
   <time name="dav">    0.85    0.85</time>
   <time name="total">    0.96    1.03</time>
   <energy>
    <i name="alphaZ">    123.37186371 </i>
    <i name="ewald">  -1645.04381916 </i>
    <i name="hartreedc">   -278.48746653 </i>
    <i name="XCdc">    -18.06418215 </i>
    <i name="pawpsdc">   3379.61059629 </i>
    <i name="pawaedc">  -3292.94198966 </i>
    <i name="eentropy">     -0.00012719 </i>
    <i name="bandstr">    -32.89480565 </i>
    <i name="atom">   1741.10451121 </i>
    <i name="e_fr_energy">    -23.34541913 </i>
    <i name="e_wo_entrp">    -23.34529194 </i>
    <i name="e_0_energy">    -23.34535554 </i>
   </energy>
  </scstep>
  <structure>
   <crystal>
    <varray name="basis" >
     <v>       0.00000000       3.02244810       3.02244810 </v>
     <v>       3.02244810       0.00000000       3.02244810 </v>
     <v>       3.02244810       3.02244810       0.00000000 </v>
    </varray>
    <i name="volume">     55.22129050 </i>
    <varray name="rec_basis" >
     <v>      -0.16542881       0.16542881       0.16542881 </v>
     <v>       0.16542881      -0.16542881       0.16542881 </v>
     <v>       0.16542881       0.16542881      -0.16542881 </v>
    </varray>
   </crystal>
   <varray name="positions" >
    <v>       0.75000000       0.75000000       0.75000000 </v>
    <v>       0.25000000       0.25000000       0.25000000 </v>
    <v>       0.00000000       0.00000000       0.00000000 </v>
   </varray>
  </structure>
  <varray name="forces" >
   <v>      -0.00000000       0.00000000      -0.00000000 </v>
   <v>      -0.00000000       0.00000000      -0.00000000 </v>
   <v>       0.00000000      -0.00000000       0.00000000 </v>
  </varray>
  <varray name="stress" >
   <v>     292.34194869       0.00000000      -0.00000000 </v>
   <v>       0.00000000     292.34194869       0.00000000 </v>
   <v>      -0.00000000      -0.00000000     292.34194869 </v>
  </varray>
  <energy>
   <i name="e_fr_energy">    -23.34541913 </i>
   <i name="e_wo_entrp">    -23.34535554 </i>
   <i name="e_0_energy">     -0.00012719 </i>
  </energy>
  <time name="totalsc">   20.61   22.20</time>
  <eigenvalues>
   <array>
    <dimension dim="1">band</dimension>
    <dimension dim="2">kpoint</dimension>
    <dimension dim="3">spin</dimension>
    <field>eigene</field>
    <field>occ</field>
    <set>
     <set comment="spin 1">
      <set comment="kpoint 1">
       <r>  -20.9080    1.0000 </r>
       <r>  -20.9080    1.0000 </r>
       <r>  -20.9080    1.0000 </r>
       <r>   -3.0467    1.0000 </r>
       <r>    4.0034    1.0000 </r>
       <r>    4.0034    1.0000 </r>
       <r>    4.0034    1.0000 </r>
       <r>    4.7904    1.0000 </r>
       <r>    4.7904    1.0000 </r>
       <r>    9.0152    1.0000 </r>
       <r>    9.0152    1.0000 </r>
       <r>    9.0152    1.0000 </r>
       <r>   11.1203    0.9084 </r>
       <r>   12.1393    0.0000 </r>
       <r>   12.1393    0.0000 </r>
       <r>   12.1393    0.0000 </r>
      </set>
      <set comment="kpoint 2">
       <r>  -20.9103    1.0000 </r>
       <r>  -20.9078    1.0000 </r>
       <r>  -20.9078    1.0000 </r>
       <r>   -2.9660    1.0000 </r>
       <r>    3.9294    1.0000 </r>
       <r>    3.9502    1.0000 </r>
       <r>    3.9502    1.0000 </r>
       <r>    4.8581    1.0000 </r>
       <r>    4.8581    1.0000 </r>
       <r>    8.5196    1.0000 </r>
       <r>    8.9500    1.0000 </r>
       <r>    8.9500    1.0000 </r>
       <r>   11.1014    1.0000 </r>
       <r>   11.9553    0.0000 </r>
       <r>   11.9553    0.0000 </r>
       <r>   12.7209    0.0000 </r>
      </set>
      <set comment="kpoint 3">
       <r>  -20.9167    1.0000 </r>
       <r>  -20.9071    1.0000 </r>
       <r>  -20.9071    1.0000 </r>
       <r>   -2.7322    1.0000 </r>
       <r>    3.7219    1.0000 </r>
       <r>    3.8456    1.0000 </r>
       <r>    3.8456    1.0000 </r>
       <r>    4.9955    1.0000 </r>
       <r>    4.9955    1.0000 </r>
       <r>    7.5723    1.0000 </r>
       <r>    8.7889    1.0000 </r>
       <r>    8.7889    1.0000 </r>
       <r>   11.1311    0.4235 </r>
       <r>   11.8237    0.0000 </r>
       <r>   11.8237    0.0000 </r>
       <r>   13.4972    0.0000 </r>
      </set>
      <set comment="kpoint 4">
       <r>  -20.9254    1.0000 </r>
       <r>  -20.9061    1.0000 </r>
       <r>  -20.9061    1.0000 </r>
       <r>   -2.3721    1.0000 </r>
       <r>    3.4105    1.0000 </r>
       <r>    3.7570    1.0000 </r>
       <r>    3.7570    1.0000 </r>
       <r>    5.1094    1.0000 </r>
       <r>    5.1094    1.0000 </r>
       <r>    6.6602    1.0000 </r>
       <r>    8.6092    1.0000 </r>
       <r>    8.6092    1.0000 </r>
       <r>   11.1880    0.0000 </r>
       <r>   11.8333    0.0000 </r>
       <r>   11.8333    0.0000 </r>
       <r>   14.2501    0.0000 </r>
      </set>
      <set comment="kpoint 5">
       <r>  -20.9346    1.0000 </r>
       <r>  -20.9051    1.0000 </r>
       <r>  -20.9051    1.0000 </r>
       <r>   -1.9359    1.0000 </r>
       <r>    3.0292    1.0000 </r>
       <r>    3.7094    1.0000 </r>
       <r>    3.7094    1.0000 </r>
       <r>    5.1524    1.0000 </r>
       <r>    5.1524    1.0000 </r>
       <r>    5.9501    1.0000 </r>
       <r>    8.4771    1.0000 </r>
       <r>    8.4771    1.0000 </r>
       <r>   11.2470    0.0000 </r>
       <r>   11.9556    0.0000 </r>
       <r>   11.9556    0.0000 </r>
       <r>   13.7497    0.0000 </r>
      </set>
      <set comment="kpoint 6">
       <r>  -20.9420    1.0000 </r>
       <r>  -20.9043    1.0000 </r>
       <r>  -20.9043    1.0000 </r>
       <r>   -1.5088    1.0000 </r>
       <r>    2.6408    1.0000 </r>
       <r>    3.6990    1.0000 </r>
       <r>    3.6990    1.0000 </r>
       <r>    5.1322    1.0000 </r>
       <r>    5.1322    1.0000 </r>
       <r>    5.4939    1.0000 </r>
       <r>    8.4116    1.0000 </r>
       <r>    8.4116    1.0000 </r>
       <r>   11.3009    0.0000 </r>
       <r>   12.1391    0.0000 </r>
       <r>   12.1391    0.0000 </r>
       <r>   12.9024    0.0000 </r>
      </set>
      <set comment="kpoint 7">
       <r>  -20.9461    1.0000 </r>
       <r>  -20.9038    1.0000 </r>
       <r>  -20.9038    1.0000 </r>
       <r>   -1.2252    1.0000 </r>
       <r>    2.3742    1.0000 </r>
       <r>    3.7045    1.0000 </r>
       <r>    3.7045    1.0000 </r>
       <r>    5.0985    1.0000 </r>
       <r>    5.0985    1.0000 </r>
       <r>    5.2796    1.0000 </r>
       <r>    8.3912    1.0000 </r>
       <r>    8.3912    1.0000 </r>
       <r>   11.3417    0.0000 </r>
       <r>   12.2886    0.0000 </r>
       <r>   12.2886    0.0000 </r>
       <r>   12.4225    0.0000 </r>
      </set>
      <set comment="kpoint 8">
       <r>  -20.9102    1.0000 </r>
       <r>  -20.9081    1.0000 </r>
       <r>  -20.9081    1.0000 </r>
       <r>   -2.9395    1.0000 </r>
       <r>    3.7285    1.0000 </r>
       <r>    4.0391    1.0000 </r>
       <r>    4.0391    1.0000 </r>
       <r>    4.8301    1.0000 </r>
       <r>    4.8981    1.0000 </r>
       <r>    8.6078    1.0000 </r>
       <r>    8.8037    1.0000 </r>
       <r>    8.8037    1.0000 </r>
       <r>   11.0371    1.0000 </r>
       <r>   11.9738    0.0000 </r>
       <r>   12.4639    0.0000 </r>
       <r>   12.4640    0.0000 </r>
      </set>
      <set comment="kpoint 9">
       <r>  -20.9149    1.0000 </r>
       <r>  -20.9080    1.0000 </r>
       <r>  -20.9075    1.0000 </r>
       <r>   -2.7582    1.0000 </r>
       <r>    3.4914    1.0000 </r>
       <r>    4.0054    1.0000 </r>
       <r>    4.0245    1.0000 </r>
       <r>    4.9228    1.0000 </r>
       <r>    4.9934    1.0000 </r>
       <r>    7.8709    1.0000 </r>
       <r>    8.6031    1.0000 </r>
       <r>    8.7151    1.0000 </r>
       <r>   11.0956    1.0000 </r>
       <r>   11.7910    0.0000 </r>
       <r>   12.1258    0.0000 </r>
       <r>   13.0942    0.0000 </r>
      </set>
      <set comment="kpoint 10">
       <r>  -20.9227    1.0000 </r>
       <r>  -20.9073    1.0000 </r>
       <r>  -20.9066    1.0000 </r>
       <r>   -2.4428    1.0000 </r>
       <r>    3.2543    1.0000 </r>
       <r>    3.8749    1.0000 </r>
       <r>    3.9600    1.0000 </r>
       <r>    5.0467    1.0000 </r>
       <r>    5.1021    1.0000 </r>
       <r>    6.9711    1.0000 </r>
       <r>    8.4278    1.0000 </r>
       <r>    8.5570    1.0000 </r>
       <r>   11.2856    0.0000 </r>
       <r>   11.7258    0.0000 </r>
       <r>   11.9609    0.0000 </r>
       <r>   13.7687    0.0000 </r>
      </set>
      <set comment="kpoint 11">
       <r>  -20.9315    1.0000 </r>
       <r>  -20.9064    1.0000 </r>
       <r>  -20.9058    1.0000 </r>
       <r>   -2.0360    1.0000 </r>
       <r>    2.9988    1.0000 </r>
       <r>    3.7348    1.0000 </r>
       <r>    3.8971    1.0000 </r>
       <r>    5.1161    1.0000 </r>
       <r>    5.1709    1.0000 </r>
       <r>    6.2009    1.0000 </r>
       <r>    8.3263    1.0000 </r>
       <r>    8.3913    1.0000 </r>
       <r>   11.2893    0.0000 </r>
       <r>   11.9412    0.0000 </r>
       <r>   11.9906    0.0000 </r>
       <r>   13.8508    0.0000 </r>
      </set>
      <set comment="kpoint 12">
       <r>  -20.9393    1.0000 </r>
       <r>  -20.9054    1.0000 </r>
       <r>  -20.9053    1.0000 </r>
       <r>   -1.6099    1.0000 </r>
       <r>    2.7116    1.0000 </r>
       <r>    3.6563    1.0000 </r>
       <r>    3.8442    1.0000 </r>
       <r>    5.1216    1.0000 </r>
       <r>    5.1766    1.0000 </r>
       <r>    5.6578    1.0000 </r>
       <r>    8.2781    1.0000 </r>
       <r>    8.2976    1.0000 </r>
       <r>   11.2695    0.0000 </r>
       <r>   12.0544    0.0000 </r>
       <r>   12.2688    0.0000 </r>
       <r>   13.1113    0.0000 </r>
      </set>
      <set comment="kpoint 13">
       <r>  -20.9443    1.0000 </r>
       <r>  -20.9053    1.0000 </r>
       <r>  -20.9044    1.0000 </r>
       <r>   -1.2785    1.0000 </r>
       <r>    2.4615    1.0000 </r>
       <r>    3.6551    1.0000 </r>
       <r>    3.7862    1.0000 </r>
       <r>    5.1125    1.0000 </r>
       <r>    5.1410    1.0000 </r>
       <r>    5.3582    1.0000 </r>
       <r>    8.2212    1.0000 </r>
       <r>    8.3058    1.0000 </r>
       <r>   11.3174    0.0000 </r>
       <r>   12.1249    0.0000 </r>
       <r>   12.2318    0.0000 </r>
       <r>   12.8678    0.0000 </r>
      </set>
      <set comment="kpoint 14">
       <r>  -20.9456    1.0000 </r>
       <r>  -20.9056    1.0000 </r>
       <r>  -20.9039    1.0000 </r>
       <r>   -1.1802    1.0000 </r>
       <r>    2.3850    1.0000 </r>
       <r>    3.7083    1.0000 </r>
       <r>    3.7127    1.0000 </r>
       <r>    5.1036    1.0000 </r>
       <r>    5.1358    1.0000 </r>
       <r>    5.2864    1.0000 </r>
       <r>    8.1892    1.0000 </r>
       <r>    8.3265    1.0000 </r>
       <r>   11.3901    0.0000 </r>
       <r>   11.9232    0.0000 </r>
       <r>   12.3263    0.0000 </r>
       <r>   12.9047    0.0000 </r>
      </set>
      <set comment="kpoint 15">
       <r>  -20.9429    1.0000 </r>
       <r>  -20.9063    1.0000 </r>
       <r>  -20.9038    1.0000 </r>
       <r>   -1.3687    1.0000 </r>
       <r>    2.5426    1.0000 </r>
       <r>    3.6383    1.0000 </r>
       <r>    3.7896    1.0000 </r>
       <r>    5.0871    1.0000 </r>
       <r>    5.1882    1.0000 </r>
       <r>    5.4383    1.0000 </r>
       <r>    8.1539    1.0000 </r>
       <r>    8.3699    1.0000 </r>
       <r>   11.3549    0.0000 </r>
       <r>   12.1274    0.0000 </r>
       <r>   12.2333    0.0000 </r>
       <r>   12.8971    0.0000 </r>
      </set>
      <set comment="kpoint 16">
       <r>  -20.9368    1.0000 </r>
       <r>  -20.9071    1.0000 </r>
       <r>  -20.9042    1.0000 </r>
       <r>   -1.7469    1.0000 </r>
       <r>    2.8434    1.0000 </r>
       <r>    3.5934    1.0000 </r>
       <r>    3.8848    1.0000 </r>
       <r>    5.0898    1.0000 </r>
       <r>    5.2250    1.0000 </r>
       <r>    5.8178    1.0000 </r>
       <r>    8.1233    1.0000 </r>
       <r>    8.4672    1.0000 </r>
       <r>   11.3614    0.0000 </r>
       <r>   12.0182    0.0000 </r>
       <r>   12.1587    0.0000 </r>
       <r>   13.3566    0.0000 </r>
      </set>
      <set comment="kpoint 17">
       <r>  -20.9285    1.0000 </r>
       <r>  -20.9079    1.0000 </r>
       <r>  -20.9049    1.0000 </r>
       <r>   -2.1772    1.0000 </r>
       <r>    3.1714    1.0000 </r>
       <r>    3.6027    1.0000 </r>
       <r>    3.9849    1.0000 </r>
       <r>    5.0635    1.0000 </r>
       <r>    5.2027    1.0000 </r>
       <r>    6.4377    1.0000 </r>
       <r>    8.1452    1.0000 </r>
       <r>    8.6333    1.0000 </r>
       <r>   11.4424    0.0000 </r>
       <r>   11.7937    0.0000 </r>
       <r>   11.9841    0.0000 </r>
       <r>   13.7422    0.0000 </r>
      </set>
      <set comment="kpoint 18">
       <r>  -20.9200    1.0000 </r>
       <r>  -20.9084    1.0000 </r>
       <r>  -20.9060    1.0000 </r>
       <r>   -2.5602    1.0000 </r>
       <r>    3.4725    1.0000 </r>
       <r>    3.6761    1.0000 </r>
       <r>    4.0661    1.0000 </r>
       <r>    4.9810    1.0000 </r>
       <r>    5.1112    1.0000 </r>
       <r>    7.2523    1.0000 </r>
       <r>    8.2736    1.0000 </r>
       <r>    8.8302    1.0000 </r>
       <r>   11.4175    0.0000 </r>
       <r>   11.6512    0.0000 </r>
       <r>   11.9732    0.0000 </r>
       <r>   13.1496    0.0000 </r>
      </set>
      <set comment="kpoint 19">
       <r>  -20.9134    1.0000 </r>
       <r>  -20.9083    1.0000 </r>
       <r>  -20.9070    1.0000 </r>
       <r>   -2.8347    1.0000 </r>
       <r>    3.7330    1.0000 </r>
       <r>    3.8043    1.0000 </r>
       <r>    4.0696    1.0000 </r>
       <r>    4.8886    1.0000 </r>
       <r>    4.9779    1.0000 </r>
       <r>    8.0680    1.0000 </r>
       <r>    8.5647    1.0000 </r>
       <r>    8.9632    1.0000 </r>
       <r>   11.2035    0.0000 </r>
       <r>   11.6831    0.0000 </r>
       <r>   12.1836    0.0000 </r>
       <r>   12.6166    0.0000 </r>
      </set>
      <set comment="kpoint 20">
       <r>  -20.9165    1.0000 </r>
       <r>  -20.9084    1.0000 </r>
       <r>  -20.9084    1.0000 </r>
       <r>   -2.6352    1.0000 </r>
       <r>    3.1989    1.0000 </r>
       <r>    4.1384    1.0000 </r>
       <r>    4.1384    1.0000 </r>
       <r>    4.9439    1.0000 </r>
       <r>    4.9833    1.0000 </r>
       <r>    7.8660    1.0000 </r>
       <r>    8.3701    1.0000 </r>
       <r>    8.3701    1.0000 </r>
       <r>   10.8368    1.0000 </r>
       <r>   12.0493    0.0000 </r>
       <r>   12.1714    0.0000 </r>
       <r>   13.1801    0.0000 </r>
      </set>
      <set comment="kpoint 21">
       <r>  -20.9222    1.0000 </r>
       <r>  -20.9083    1.0000 </r>
       <r>  -20.9081    1.0000 </r>
       <r>   -2.3794    1.0000 </r>
       <r>    2.9511    1.0000 </r>
       <r>    4.1201    1.0000 </r>
       <r>    4.1555    1.0000 </r>
       <r>    5.0194    1.0000 </r>
       <r>    5.0445    1.0000 </r>
       <r>    7.2465    1.0000 </r>
       <r>    8.1790    1.0000 </r>
       <r>    8.2188    1.0000 </r>
       <r>   10.9193    1.0000 </r>
       <r>   11.9769    0.0000 </r>
       <r>   12.0634    0.0000 </r>
       <r>   13.6160    0.0000 </r>
      </set>
      <set comment="kpoint 22">
       <r>  -20.9296    1.0000 </r>
       <r>  -20.9079    1.0000 </r>
       <r>  -20.9077    1.0000 </r>
       <r>   -2.0277    1.0000 </r>
       <r>    2.7632    1.0000 </r>
       <r>    3.9798    1.0000 </r>
       <r>    4.1166    1.0000 </r>
       <r>    5.0963    1.0000 </r>
       <r>    5.1320    1.0000 </r>
       <r>    6.5141    1.0000 </r>
       <r>    8.0527    1.0000 </r>
       <r>    8.0828    1.0000 </r>
       <r>   11.0870    1.0000 </r>
       <r>   11.8594    0.0000 </r>
       <r>   12.2558    0.0000 </r>
       <r>   13.7467    0.0000 </r>
      </set>
      <set comment="kpoint 23">
       <r>  -20.9365    1.0000 </r>
       <r>  -20.9082    1.0000 </r>
       <r>  -20.9067    1.0000 </r>
       <r>   -1.6428    1.0000 </r>
       <r>    2.6329    1.0000 </r>
       <r>    3.8056    1.0000 </r>
       <r>    4.0476    1.0000 </r>
       <r>    5.1572    1.0000 </r>
       <r>    5.1640    1.0000 </r>
       <r>    5.9071    1.0000 </r>
       <r>    7.9007    1.0000 </r>
       <r>    8.0755    1.0000 </r>
       <r>   11.1048    0.9998 </r>
       <r>   11.9082    0.0000 </r>
       <r>   12.6567    0.0000 </r>
       <r>   13.1706    0.0000 </r>
      </set>
      <set comment="kpoint 24">
       <r>  -20.9413    1.0000 </r>
       <r>  -20.9091    1.0000 </r>
       <r>  -20.9056    1.0000 </r>
       <r>   -1.3169    1.0000 </r>
       <r>    2.5502    1.0000 </r>
       <r>    3.6780    1.0000 </r>
       <r>    3.9441    1.0000 </r>
       <r>    5.1600    1.0000 </r>
       <r>    5.1785    1.0000 </r>
       <r>    5.5267    1.0000 </r>
       <r>    7.7964    1.0000 </r>
       <r>    8.1054    1.0000 </r>
       <r>   11.1273    0.6302 </r>
       <r>   12.1133    0.0000 </r>
       <r>   12.3036    0.0000 </r>
       <r>   13.2580    0.0000 </r>
      </set>
      <set comment="kpoint 25">
       <r>  -20.9430    1.0000 </r>
       <r>  -20.9102    1.0000 </r>
       <r>  -20.9046    1.0000 </r>
       <r>   -1.1581    1.0000 </r>
       <r>    2.5201    1.0000 </r>
       <r>    3.6588    1.0000 </r>
       <r>    3.8088    1.0000 </r>
       <r>    5.1014    1.0000 </r>
       <r>    5.2187    1.0000 </r>
       <r>    5.4171    1.0000 </r>
       <r>    7.7240    1.0000 </r>
       <r>    8.1394    1.0000 </r>
       <r>   11.2741    0.0000 </r>
       <r>   11.8353    0.0000 </r>
       <r>   12.3346    0.0000 </r>
       <r>   13.5326    0.0000 </r>
      </set>
      <set comment="kpoint 26">
       <r>  -20.9415    1.0000 </r>
       <r>  -20.9112    1.0000 </r>
       <r>  -20.9039    1.0000 </r>
       <r>   -1.2345    1.0000 </r>
       <r>    2.5709    1.0000 </r>
       <r>    3.6704    1.0000 </r>
       <r>    3.7613    1.0000 </r>
       <r>    5.0679    1.0000 </r>
       <r>    5.2783    1.0000 </r>
       <r>    5.5162    1.0000 </r>
       <r>    7.6437    1.0000 </r>
       <r>    8.1938    1.0000 </r>
       <r>   11.4016    0.0000 </r>
       <r>   11.8582    0.0000 </r>
       <r>   12.3565    0.0000 </r>
       <r>   13.4709    0.0000 </r>
      </set>
      <set comment="kpoint 27">
       <r>  -20.9372    1.0000 </r>
       <r>  -20.9117    1.0000 </r>
       <r>  -20.9037    1.0000 </r>
       <r>   -1.5133    1.0000 </r>
       <r>    2.7117    1.0000 </r>
       <r>    3.5668    1.0000 </r>
       <r>    3.9382    1.0000 </r>
       <r>    5.0593    1.0000 </r>
       <r>    5.3170    1.0000 </r>
       <r>    5.8189    1.0000 </r>
       <r>    7.5465    1.0000 </r>
       <r>    8.3069    1.0000 </r>
       <r>   11.4339    0.0000 </r>
       <r>   12.1719    0.0000 </r>
       <r>   12.3750    0.0000 </r>
       <r>   13.2598    0.0000 </r>
      </set>
      <set comment="kpoint 28">
       <r>  -20.9312    1.0000 </r>
       <r>  -20.9115    1.0000 </r>
       <r>  -20.9041    1.0000 </r>
       <r>   -1.8911    1.0000 </r>
       <r>    2.9242    1.0000 </r>
       <r>    3.5264    1.0000 </r>
       <r>    4.1058    1.0000 </r>
       <r>    5.0355    1.0000 </r>
       <r>    5.3004    1.0000 </r>
       <r>    6.3162    1.0000 </r>
       <r>    7.5032    1.0000 </r>
       <r>    8.4920    1.0000 </r>
       <r>   11.6107    0.0000 </r>
       <r>   11.9166    0.0000 </r>
       <r>   12.4608    0.0000 </r>
       <r>   13.2973    0.0000 </r>
      </set>
      <set comment="kpoint 29">
       <r>  -20.9250    1.0000 </r>
       <r>  -20.9102    1.0000 </r>
       <r>  -20.9049    1.0000 </r>
       <r>   -2.2647    1.0000 </r>
       <r>    3.1862    1.0000 </r>
       <r>    3.5633    1.0000 </r>
       <r>    4.1722    1.0000 </r>
       <r>    4.9942    1.0000 </r>
       <r>    5.2244    1.0000 </r>
       <r>    6.8692    1.0000 </r>
       <r>    7.6952    1.0000 </r>
       <r>    8.7017    1.0000 </r>
       <r>   11.7057    0.0000 </r>
       <r>   11.8556    0.0000 </r>
       <r>   12.0090    0.0000 </r>
       <r>   13.0656    0.0000 </r>
      </set>
      <set comment="kpoint 30">
       <r>  -20.9255    1.0000 </r>
       <r>  -20.9088    1.0000 </r>
       <r>  -20.9088    1.0000 </r>
       <r>   -2.1927    1.0000 </r>
       <r>    2.7030    1.0000 </r>
       <r>    4.2771    1.0000 </r>
       <r>    4.2771    1.0000 </r>
       <r>    4.9149    1.0000 </r>
       <r>    5.1162    1.0000 </r>
       <r>    7.1714    1.0000 </r>
       <r>    7.9599    1.0000 </r>
       <r>    7.9599    1.0000 </r>
       <r>   10.6374    1.0000 </r>
       <r>   11.8191    0.0000 </r>
       <r>   12.2693    0.0000 </r>
       <r>   13.7702    0.0000 </r>
      </set>
      <set comment="kpoint 31">
       <r>  -20.9311    1.0000 </r>
       <r>  -20.9091    1.0000 </r>
       <r>  -20.9087    1.0000 </r>
       <r>   -1.9155    1.0000 </r>
       <r>    2.5502    1.0000 </r>
       <r>    4.2366    1.0000 </r>
       <r>    4.3070    1.0000 </r>
       <r>    4.9249    1.0000 </r>
       <r>    5.2091    1.0000 </r>
       <r>    6.6974    1.0000 </r>
       <r>    7.7785    1.0000 </r>
       <r>    7.8398    1.0000 </r>
       <r>   10.6936    1.0000 </r>
       <r>   11.6581    0.0000 </r>
       <r>   12.4479    0.0000 </r>
       <r>   13.7686    0.0000 </r>
      </set>
      <set comment="kpoint 32">
       <r>  -20.9363    1.0000 </r>
       <r>  -20.9102    1.0000 </r>
       <r>  -20.9081    1.0000 </r>
       <r>   -1.6025    1.0000 </r>
       <r>    2.5120    1.0000 </r>
       <r>    4.0446    1.0000 </r>
       <r>    4.2626    1.0000 </r>
       <r>    5.0418    1.0000 </r>
       <r>    5.2618    1.0000 </r>
       <r>    6.1372    1.0000 </r>
       <r>    7.5586    1.0000 </r>
       <r>    7.8269    1.0000 </r>
       <r>   10.8043    1.0000 </r>
       <r>   11.6506    0.0000 </r>
       <r>   12.8628    0.0000 </r>
       <r>   13.2558    0.0000 </r>
      </set>
      <set comment="kpoint 33">
       <r>  -20.9396    1.0000 </r>
       <r>  -20.9124    1.0000 </r>
       <r>  -20.9070    1.0000 </r>
       <r>   -1.3255    1.0000 </r>
       <r>    2.5852    1.0000 </r>
       <r>    3.8296    1.0000 </r>
       <r>    4.1478    1.0000 </r>
       <r>    5.1235    1.0000 </r>
       <r>    5.2910    1.0000 </r>
       <r>    5.7079    1.0000 </r>
       <r>    7.3530    1.0000 </r>
       <r>    7.8630    1.0000 </r>
       <r>   10.8531    1.0000 </r>
       <r>   11.8688    0.0000 </r>
       <r>   12.5612    0.0000 </r>
       <r>   13.3847    0.0000 </r>
      </set>
      <set comment="kpoint 34">
       <r>  -20.9403    1.0000 </r>
       <r>  -20.9151    1.0000 </r>
       <r>  -20.9058    1.0000 </r>
       <r>   -1.1568    1.0000 </r>
       <r>    2.7138    1.0000 </r>
       <r>    3.6620    1.0000 </r>
       <r>    3.9763    1.0000 </r>
       <r>    5.0490    1.0000 </r>
       <r>    5.3345    1.0000 </r>
       <r>    5.6101    1.0000 </r>
       <r>    7.1918    1.0000 </r>
       <r>    7.9010    1.0000 </r>
       <r>   10.9633    1.0000 </r>
       <r>   12.0324    0.0000 </r>
       <r>   12.2478    0.0000 </r>
       <r>   13.5189    0.0000 </r>
      </set>
      <set comment="kpoint 35">
       <r>  -20.9387    1.0000 </r>
       <r>  -20.9173    1.0000 </r>
       <r>  -20.9047    1.0000 </r>
       <r>   -1.1449    1.0000 </r>
       <r>    2.7691    1.0000 </r>
       <r>    3.6470    1.0000 </r>
       <r>    3.7889    1.0000 </r>
       <r>    4.9940    1.0000 </r>
       <r>    5.3848    1.0000 </r>
       <r>    5.7293    1.0000 </r>
       <r>    7.0650    1.0000 </r>
       <r>    7.9583    1.0000 </r>
       <r>   11.1919    0.0000 </r>
       <r>   11.8006    0.0000 </r>
       <r>   12.4797    0.0000 </r>
       <r>   13.3900    0.0000 </r>
      </set>
      <set comment="kpoint 36">
       <r>  -20.9360    1.0000 </r>
       <r>  -20.9177    1.0000 </r>
       <r>  -20.9040    1.0000 </r>
       <r>   -1.2971    1.0000 </r>
       <r>    2.7393    1.0000 </r>
       <r>    3.6315    1.0000 </r>
       <r>    3.8122    1.0000 </r>
       <r>    5.0259    1.0000 </r>
       <r>    5.4064    1.0000 </r>
       <r>    5.9539    1.0000 </r>
       <r>    6.9732    1.0000 </r>
       <r>    8.0788    1.0000 </r>
       <r>   11.3598    0.0000 </r>
       <r>   12.1075    0.0000 </r>
       <r>   12.3778    0.0000 </r>
       <r>   13.2826    0.0000 </r>
      </set>
      <set comment="kpoint 37">
       <r>  -20.9335    1.0000 </r>
       <r>  -20.9154    1.0000 </r>
       <r>  -20.9037    1.0000 </r>
       <r>   -1.5715    1.0000 </r>
       <r>    2.7714    1.0000 </r>
       <r>    3.5377    1.0000 </r>
       <r>    4.0141    1.0000 </r>
       <r>    5.0453    1.0000 </r>
       <r>    5.3761    1.0000 </r>
       <r>    6.1980    1.0000 </r>
       <r>    7.0536    1.0000 </r>
       <r>    8.2736    1.0000 </r>
       <r>   11.4937    0.0000 </r>
       <r>   12.1439    0.0000 </r>
       <r>   12.7569    0.0000 </r>
       <r>   13.2606    0.0000 </r>
      </set>
      <set comment="kpoint 38">
       <r>  -20.9353    1.0000 </r>
       <r>  -20.9092    1.0000 </r>
       <r>  -20.9092    1.0000 </r>
       <r>   -1.7266    1.0000 </r>
       <r>    2.4401    1.0000 </r>
       <r>    4.4178    1.0000 </r>
       <r>    4.4178    1.0000 </r>
       <r>    4.7362    1.0000 </r>
       <r>    5.3173    1.0000 </r>
       <r>    6.5113    1.0000 </r>
       <r>    7.6782    1.0000 </r>
       <r>    7.6782    1.0000 </r>
       <r>   10.4714    1.0000 </r>
       <r>   11.4304    0.0000 </r>
       <r>   12.5633    0.0000 </r>
       <r>   13.6979    0.0000 </r>
      </set>
      <set comment="kpoint 39">
       <r>  -20.9396    1.0000 </r>
       <r>  -20.9101    1.0000 </r>
       <r>  -20.9091    1.0000 </r>
       <r>   -1.5059    1.0000 </r>
       <r>    2.4648    1.0000 </r>
       <r>    4.2895    1.0000 </r>
       <r>    4.4343    1.0000 </r>
       <r>    4.8241    1.0000 </r>
       <r>    5.3936    1.0000 </r>
       <r>    6.1009    1.0000 </r>
       <r>    7.4951    1.0000 </r>
       <r>    7.6321    1.0000 </r>
       <r>   10.4965    1.0000 </r>
       <r>   11.3310    0.0000 </r>
       <r>   12.8213    0.0000 </r>
       <r>   13.3418    0.0000 </r>
      </set>
      <set comment="kpoint 40">
       <r>  -20.9417    1.0000 </r>
       <r>  -20.9125    1.0000 </r>
       <r>  -20.9084    1.0000 </r>
       <r>   -1.3053    1.0000 </r>
       <r>    2.6230    1.0000 </r>
       <r>    4.0486    1.0000 </r>
       <r>    4.3525    1.0000 </r>
       <r>    5.0016    1.0000 </r>
       <r>    5.4298    1.0000 </r>
       <r>    5.6988    1.0000 </r>
       <r>    7.1925    1.0000 </r>
       <r>    7.6551    1.0000 </r>
       <r>   10.5755    1.0000 </r>
       <r>   11.4883    0.0000 </r>
       <r>   12.7393    0.0000 </r>
       <r>   13.3148    0.0000 </r>
      </set>
      <set comment="kpoint 41">
       <r>  -20.9410    1.0000 </r>
       <r>  -20.9164    1.0000 </r>
       <r>  -20.9073    1.0000 </r>
       <r>   -1.1663    1.0000 </r>
       <r>    2.8605    1.0000 </r>
       <r>    3.8135    1.0000 </r>
       <r>    4.1839    1.0000 </r>
       <r>    4.9563    1.0000 </r>
       <r>    5.4600    1.0000 </r>
       <r>    5.6465    1.0000 </r>
       <r>    6.8770    1.0000 </r>
       <r>    7.6887    1.0000 </r>
       <r>   10.6767    1.0000 </r>
       <r>   11.9387    0.0000 </r>
       <r>   12.2499    0.0000 </r>
       <r>   13.1316    0.0000 </r>
      </set>
      <set comment="kpoint 42">
       <r>  -20.9378    1.0000 </r>
       <r>  -20.9206    1.0000 </r>
       <r>  -20.9060    1.0000 </r>
       <r>   -1.1119    1.0000 </r>
       <r>    3.0356    1.0000 </r>
       <r>    3.5968    1.0000 </r>
       <r>    3.9736    1.0000 </r>
       <r>    4.8676    1.0000 </r>
       <r>    5.4818    1.0000 </r>
       <r>    5.9027    1.0000 </r>
       <r>    6.6122    1.0000 </r>
       <r>    7.7464    1.0000 </r>
       <r>   10.8745    1.0000 </r>
       <r>   11.9189    0.0000 </r>
       <r>   12.5233    0.0000 </r>
       <r>   13.0670    0.0000 </r>
      </set>
      <set comment="kpoint 43">
       <r>  -20.9352    1.0000 </r>
       <r>  -20.9219    1.0000 </r>
       <r>  -20.9048    1.0000 </r>
       <r>   -1.1548    1.0000 </r>
       <r>    2.9205    1.0000 </r>
       <r>    3.6298    1.0000 </r>
       <r>    3.7757    1.0000 </r>
       <r>    4.9344    1.0000 </r>
       <r>    5.4671    1.0000 </r>
       <r>    6.0943    1.0000 </r>
       <r>    6.5616    1.0000 </r>
       <r>    7.8742    1.0000 </r>
       <r>   11.1538    0.0003 </r>
       <r>   11.8547    0.0000 </r>
       <r>   12.5724    0.0000 </r>
       <r>   13.0908    0.0000 </r>
      </set>
      <set comment="kpoint 44">
       <r>  -20.9436    1.0000 </r>
       <r>  -20.9096    1.0000 </r>
       <r>  -20.9096    1.0000 </r>
       <r>   -1.3840    1.0000 </r>
       <r>    2.5370    1.0000 </r>
       <r>    4.5236    1.0000 </r>
       <r>    4.5236    1.0000 </r>
       <r>    4.5663    1.0000 </r>
       <r>    5.5023    1.0000 </r>
       <r>    5.7842    1.0000 </r>
       <r>    7.5418    1.0000 </r>
       <r>    7.5418    1.0000 </r>
       <r>   10.3447    1.0000 </r>
       <r>   11.0926    1.0000 </r>
       <r>   12.7423    0.0000 </r>
       <r>   13.2448    0.0000 </r>
      </set>
      <set comment="kpoint 45">
       <r>  -20.9457    1.0000 </r>
       <r>  -20.9107    1.0000 </r>
       <r>  -20.9094    1.0000 </r>
       <r>   -1.2690    1.0000 </r>
       <r>    2.7176    1.0000 </r>
       <r>    4.2914    1.0000 </r>
       <r>    4.5091    1.0000 </r>
       <r>    4.7946    1.0000 </r>
       <r>    5.4105    1.0000 </r>
       <r>    5.5521    1.0000 </r>
       <r>    7.3739    1.0000 </r>
       <r>    7.5363    1.0000 </r>
       <r>   10.3629    1.0000 </r>
       <r>   11.0971    1.0000 </r>
       <r>   12.7613    0.0000 </r>
       <r>   13.0545    0.0000 </r>
      </set>
      <set comment="kpoint 46">
       <r>  -20.9448    1.0000 </r>
       <r>  -20.9139    1.0000 </r>
       <r>  -20.9086    1.0000 </r>
       <r>   -1.1808    1.0000 </r>
       <r>    2.9346    1.0000 </r>
       <r>    4.0775    1.0000 </r>
       <r>    4.3867    1.0000 </r>
       <r>    4.8430    1.0000 </r>
       <r>    5.3437    1.0000 </r>
       <r>    5.5627    1.0000 </r>
       <r>    7.0268    1.0000 </r>
       <r>    7.5576    1.0000 </r>
       <r>   10.4553    1.0000 </r>
       <r>   11.4312    0.0000 </r>
       <r>   12.4587    0.0000 </r>
       <r>   12.9169    0.0000 </r>
      </set>
      <set comment="kpoint 47">
       <r>  -20.9412    1.0000 </r>
       <r>  -20.9181    1.0000 </r>
       <r>  -20.9074    1.0000 </r>
       <r>   -1.1270    1.0000 </r>
       <r>    3.0843    1.0000 </r>
       <r>    3.8091    1.0000 </r>
       <r>    4.1896    1.0000 </r>
       <r>    4.7703    1.0000 </r>
       <r>    5.5433    1.0000 </r>
       <r>    5.6773    1.0000 </r>
       <r>    6.6769    1.0000 </r>
       <r>    7.6128    1.0000 </r>
       <r>   10.6187    1.0000 </r>
       <r>   12.0388    0.0000 </r>
       <r>   12.1393    0.0000 </r>
       <r>   12.8317    0.0000 </r>
      </set>
      <set comment="kpoint 48">
       <r>  -20.9483    1.0000 </r>
       <r>  -20.9098    1.0000 </r>
       <r>  -20.9098    1.0000 </r>
       <r>   -1.2313    1.0000 </r>
       <r>    2.8506    1.0000 </r>
       <r>    4.5454    1.0000 </r>
       <r>    4.5767    1.0000 </r>
       <r>    4.5767    1.0000 </r>
       <r>    5.0827    1.0000 </r>
       <r>    5.6160    1.0000 </r>
       <r>    7.5043    1.0000 </r>
       <r>    7.5043    1.0000 </r>
       <r>   10.2748    1.0000 </r>
       <r>   10.8937    1.0000 </r>
       <r>   12.6309    0.0000 </r>
       <r>   12.9167    0.0000 </r>
      </set>
      <set comment="kpoint 49">
       <r>  -20.9480    1.0000 </r>
       <r>  -20.9110    1.0000 </r>
       <r>  -20.9095    1.0000 </r>
       <r>   -1.2016    1.0000 </r>
       <r>    2.9395    1.0000 </r>
       <r>    4.3427    1.0000 </r>
       <r>    4.5321    1.0000 </r>
       <r>    4.7768    1.0000 </r>
       <r>    4.9975    1.0000 </r>
       <r>    5.6170    1.0000 </r>
       <r>    7.3476    1.0000 </r>
       <r>    7.5106    1.0000 </r>
       <r>   10.3166    1.0000 </r>
       <r>   11.0144    1.0000 </r>
       <r>   12.6191    0.0000 </r>
       <r>   12.8699    0.0000 </r>
      </set>
      <set comment="kpoint 50">
       <r>  -20.9195    1.0000 </r>
       <r>  -20.9089    1.0000 </r>
       <r>  -20.9067    1.0000 </r>
       <r>   -2.5379    1.0000 </r>
       <r>    3.2318    1.0000 </r>
       <r>    3.8926    1.0000 </r>
       <r>    4.1509    1.0000 </r>
       <r>    4.9666    1.0000 </r>
       <r>    5.0846    1.0000 </r>
       <r>    7.4179    1.0000 </r>
       <r>    8.1208    1.0000 </r>
       <r>    8.6676    1.0000 </r>
       <r>   11.2061    0.0000 </r>
       <r>   11.8358    0.0000 </r>
       <r>   12.0681    0.0000 </r>
       <r>   13.0960    0.0000 </r>
      </set>
      <set comment="kpoint 51">
       <r>  -20.9265    1.0000 </r>
       <r>  -20.9094    1.0000 </r>
       <r>  -20.9057    1.0000 </r>
       <r>   -2.2027    1.0000 </r>
       <r>    3.0001    1.0000 </r>
       <r>    3.7658    1.0000 </r>
       <r>    4.1416    1.0000 </r>
       <r>    5.0304    1.0000 </r>
       <r>    5.1873    1.0000 </r>
       <r>    6.7306    1.0000 </r>
       <r>    7.8569    1.0000 </r>
       <r>    8.5264    1.0000 </r>
       <r>   11.3839    0.0000 </r>
       <r>   11.8867    0.0000 </r>
       <r>   12.0621    0.0000 </r>
       <r>   13.4524    0.0000 </r>
      </set>
      <set comment="kpoint 52">
       <r>  -20.9339    1.0000 </r>
       <r>  -20.9094    1.0000 </r>
       <r>  -20.9049    1.0000 </r>
       <r>   -1.8056    1.0000 </r>
       <r>    2.7934    1.0000 </r>
       <r>    3.6742    1.0000 </r>
       <r>    4.0409    1.0000 </r>
       <r>    5.0787    1.0000 </r>
       <r>    5.2418    1.0000 </r>
       <r>    6.0773    1.0000 </r>
       <r>    7.8023    1.0000 </r>
       <r>    8.3599    1.0000 </r>
       <r>   11.3524    0.0000 </r>
       <r>   11.9097    0.0000 </r>
       <r>   12.4249    0.0000 </r>
       <r>   13.4186    0.0000 </r>
      </set>
      <set comment="kpoint 53">
       <r>  -20.9400    1.0000 </r>
       <r>  -20.9091    1.0000 </r>
       <r>  -20.9045    1.0000 </r>
       <r>   -1.4310    1.0000 </r>
       <r>    2.6120    1.0000 </r>
       <r>    3.6374    1.0000 </r>
       <r>    3.9122    1.0000 </r>
       <r>    5.0954    1.0000 </r>
       <r>    5.2363    1.0000 </r>
       <r>    5.6200    1.0000 </r>
       <r>    7.8267    1.0000 </r>
       <r>    8.2496    1.0000 </r>
       <r>   11.2979    0.0000 </r>
       <r>   12.0489    0.0000 </r>
       <r>   12.4083    0.0000 </r>
       <r>   13.1314    0.0000 </r>
      </set>
      <set comment="kpoint 54">
       <r>  -20.9434    1.0000 </r>
       <r>  -20.9088    1.0000 </r>
       <r>  -20.9043    1.0000 </r>
       <r>   -1.1935    1.0000 </r>
       <r>    2.4920    1.0000 </r>
       <r>    3.6493    1.0000 </r>
       <r>    3.8080    1.0000 </r>
       <r>    5.1090    1.0000 </r>
       <r>    5.1897    1.0000 </r>
       <r>    5.4028    1.0000 </r>
       <r>    7.8524    1.0000 </r>
       <r>    8.2069    1.0000 </r>
       <r>   11.3647    0.0000 </r>
       <r>   11.8230    0.0000 </r>
       <r>   12.3306    0.0000 </r>
       <r>   13.3465    0.0000 </r>
      </set>
      <set comment="kpoint 55">
       <r>  -20.9273    1.0000 </r>
       <r>  -20.9097    1.0000 </r>
       <r>  -20.9073    1.0000 </r>
       <r>   -2.1090    1.0000 </r>
       <r>    2.7381    1.0000 </r>
       <r>    4.0470    1.0000 </r>
       <r>    4.2553    1.0000 </r>
       <r>    5.0082    1.0000 </r>
       <r>    5.1460    1.0000 </r>
       <r>    6.8703    1.0000 </r>
       <r>    7.7306    1.0000 </r>
       <r>    8.2040    1.0000 </r>
       <r>   10.9620    1.0000 </r>
       <r>   11.8270    0.0000 </r>
       <r>   12.2720    0.0000 </r>
       <r>   13.6455    0.0000 </r>
      </set>
      <set comment="kpoint 56">
       <r>  -20.9330    1.0000 </r>
       <r>  -20.9109    1.0000 </r>
       <r>  -20.9066    1.0000 </r>
       <r>   -1.7738    1.0000 </r>
       <r>    2.6149    1.0000 </r>
       <r>    3.9173    1.0000 </r>
       <r>    4.2187    1.0000 </r>
       <r>    5.0702    1.0000 </r>
       <r>    5.2165    1.0000 </r>
       <r>    6.3399    1.0000 </r>
       <r>    7.5040    1.0000 </r>
       <r>    8.1060    1.0000 </r>
       <r>   11.0789    1.0000 </r>
       <r>   11.7370    0.0000 </r>
       <r>   12.6728    0.0000 </r>
       <r>   13.4858    0.0000 </r>
      </set>
      <set comment="kpoint 57">
       <r>  -20.9377    1.0000 </r>
       <r>  -20.9120    1.0000 </r>
       <r>  -20.9061    1.0000 </r>
       <r>   -1.4449    1.0000 </r>
       <r>    2.5875    1.0000 </r>
       <r>    3.7691    1.0000 </r>
       <r>    4.1111    1.0000 </r>
       <r>    5.1312    1.0000 </r>
       <r>    5.2398    1.0000 </r>
       <r>    5.8518    1.0000 </r>
       <r>    7.4188    1.0000 </r>
       <r>    8.0279    1.0000 </r>
       <r>   11.0933    1.0000 </r>
       <r>   11.8368    0.0000 </r>
       <r>   12.7158    0.0000 </r>
       <r>   13.2347    0.0000 </r>
      </set>
      <set comment="kpoint 58">
       <r>  -20.9404    1.0000 </r>
       <r>  -20.9132    1.0000 </r>
       <r>  -20.9056    1.0000 </r>
       <r>   -1.2087    1.0000 </r>
       <r>    2.6311    1.0000 </r>
       <r>    3.6370    1.0000 </r>
       <r>    3.9921    1.0000 </r>
       <r>    5.1174    1.0000 </r>
       <r>    5.2374    1.0000 </r>
       <r>    5.6006    1.0000 </r>
       <r>    7.3588    1.0000 </r>
       <r>    8.0083    1.0000 </r>
       <r>   11.1401    0.0711 </r>
       <r>   11.9270    0.0000 </r>
       <r>   12.2693    0.0000 </r>
       <r>   13.5684    0.0000 </r>
      </set>
      <set comment="kpoint 59">
       <r>  -20.9407    1.0000 </r>
       <r>  -20.9143    1.0000 </r>
       <r>  -20.9050    1.0000 </r>
       <r>   -1.1396    1.0000 </r>
       <r>    2.6705    1.0000 </r>
       <r>    3.5893    1.0000 </r>
       <r>    3.8980    1.0000 </r>
       <r>    5.0577    1.0000 </r>
       <r>    5.2720    1.0000 </r>
       <r>    5.5894    1.0000 </r>
       <r>    7.3043    1.0000 </r>
       <r>    8.0233    1.0000 </r>
       <r>   11.3108    0.0000 </r>
       <r>   11.6710    0.0000 </r>
       <r>   12.3728    0.0000 </r>
       <r>   13.6147    0.0000 </r>
      </set>
      <set comment="kpoint 60">
       <r>  -20.9386    1.0000 </r>
       <r>  -20.9148    1.0000 </r>
       <r>  -20.9045    1.0000 </r>
       <r>   -1.2626    1.0000 </r>
       <r>    2.6669    1.0000 </r>
       <r>    3.6216    1.0000 </r>
       <r>    3.9012    1.0000 </r>
       <r>    5.0616    1.0000 </r>
       <r>    5.3219    1.0000 </r>
       <r>    5.7344    1.0000 </r>
       <r>    7.2463    1.0000 </r>
       <r>    8.0797    1.0000 </r>
       <r>   11.3602    0.0000 </r>
       <r>   11.8682    0.0000 </r>
       <r>   12.3611    0.0000 </r>
       <r>   13.5135    0.0000 </r>
      </set>
      <set comment="kpoint 61">
       <r>  -20.9350    1.0000 </r>
       <r>  -20.9141    1.0000 </r>
       <r>  -20.9044    1.0000 </r>
       <r>   -1.5370    1.0000 </r>
       <r>    2.6937    1.0000 </r>
       <r>    3.6312    1.0000 </r>
       <r>    4.0432    1.0000 </r>
       <r>    5.0685    1.0000 </r>
       <r>    5.3279    1.0000 </r>
       <r>    6.0649    1.0000 </r>
       <r>    7.2087    1.0000 </r>
       <r>    8.2059    1.0000 </r>
       <r>   11.4214    0.0000 </r>
       <r>   11.9114    0.0000 </r>
       <r>   12.7712    0.0000 </r>
       <r>   13.2850    0.0000 </r>
      </set>
      <set comment="kpoint 62">
       <r>  -20.9307    1.0000 </r>
       <r>  -20.9121    1.0000 </r>
       <r>  -20.9048    1.0000 </r>
       <r>   -1.8791    1.0000 </r>
       <r>    2.8052    1.0000 </r>
       <r>    3.6688    1.0000 </r>
       <r>    4.1710    1.0000 </r>
       <r>    5.0410    1.0000 </r>
       <r>    5.2783    1.0000 </r>
       <r>    6.4622    1.0000 </r>
       <r>    7.3497    1.0000 </r>
       <r>    8.3858    1.0000 </r>
       <r>   11.5041    0.0000 </r>
       <r>   11.8018    0.0000 </r>
       <r>   12.6260    0.0000 </r>
       <r>   13.3166    0.0000 </r>
      </set>
      <set comment="kpoint 63">
       <r>  -20.9355    1.0000 </r>
       <r>  -20.9105    1.0000 </r>
       <r>  -20.9082    1.0000 </r>
       <r>   -1.6633    1.0000 </r>
       <r>    2.4813    1.0000 </r>
       <r>    4.1548    1.0000 </r>
       <r>    4.3684    1.0000 </r>
       <r>    4.9413    1.0000 </r>
       <r>    5.2853    1.0000 </r>
       <r>    6.3605    1.0000 </r>
       <r>    7.4503    1.0000 </r>
       <r>    7.8294    1.0000 </r>
       <r>   10.7048    1.0000 </r>
       <r>   11.5226    0.0000 </r>
       <r>   12.7418    0.0000 </r>
       <r>   13.5223    0.0000 </r>
      </set>
      <set comment="kpoint 64">
       <r>  -20.9388    1.0000 </r>
       <r>  -20.9126    1.0000 </r>
       <r>  -20.9078    1.0000 </r>
       <r>   -1.4101    1.0000 </r>
       <r>    2.5487    1.0000 </r>
       <r>    3.9627    1.0000 </r>
       <r>    4.3325    1.0000 </r>
       <r>    5.0633    1.0000 </r>
       <r>    5.3068    1.0000 </r>
       <r>    5.9580    1.0000 </r>
       <r>    7.1775    1.0000 </r>
       <r>    7.8074    1.0000 </r>
       <r>   10.7881    1.0000 </r>
       <r>   11.5467    0.0000 </r>
       <r>   12.8707    0.0000 </r>
       <r>   13.2578    0.0000 </r>
      </set>
      <set comment="kpoint 65">
       <r>  -20.9398    1.0000 </r>
       <r>  -20.9155    1.0000 </r>
       <r>  -20.9072    1.0000 </r>
       <r>   -1.2153    1.0000 </r>
       <r>    2.7305    1.0000 </r>
       <r>    3.7495    1.0000 </r>
       <r>    4.2264    1.0000 </r>
       <r>    5.0884    1.0000 </r>
       <r>    5.3134    1.0000 </r>
       <r>    5.7175    1.0000 </r>
       <r>    6.9445    1.0000 </r>
       <r>    7.8158    1.0000 </r>
       <r>   10.8570    1.0000 </r>
       <r>   11.8207    0.0000 </r>
       <r>   12.2923    0.0000 </r>
       <r>   13.3510    0.0000 </r>
      </set>
      <set comment="kpoint 66">
       <r>  -20.9386    1.0000 </r>
       <r>  -20.9187    1.0000 </r>
       <r>  -20.9062    1.0000 </r>
       <r>   -1.1216    1.0000 </r>
       <r>    2.9197    1.0000 </r>
       <r>    3.5580    1.0000 </r>
       <r>    4.0816    1.0000 </r>
       <r>    4.9608    1.0000 </r>
       <r>    5.3769    1.0000 </r>
       <r>    5.7729    1.0000 </r>
       <r>    6.7620    1.0000 </r>
       <r>    7.8395    1.0000 </r>
       <r>   11.0075    1.0000 </r>
       <r>   11.8533    0.0000 </r>
       <r>   12.2596    0.0000 </r>
       <r>   13.2146    0.0000 </r>
      </set>
      <set comment="kpoint 67">
       <r>  -20.9363    1.0000 </r>
       <r>  -20.9204    1.0000 </r>
       <r>  -20.9053    1.0000 </r>
       <r>   -1.1491    1.0000 </r>
       <r>    2.8946    1.0000 </r>
       <r>    3.5431    1.0000 </r>
       <r>    3.9512    1.0000 </r>
       <r>    4.9620    1.0000 </r>
       <r>    5.4114    1.0000 </r>
       <r>    5.9483    1.0000 </r>
       <r>    6.6664    1.0000 </r>
       <r>    7.8961    1.0000 </r>
       <r>   11.2458    0.0000 </r>
       <r>   11.7325    0.0000 </r>
       <r>   12.3716    0.0000 </r>
       <r>   13.2287    0.0000 </r>
      </set>
      <set comment="kpoint 68">
       <r>  -20.9352    1.0000 </r>
       <r>  -20.9187    1.0000 </r>
       <r>  -20.9046    1.0000 </r>
       <r>   -1.2977    1.0000 </r>
       <r>    2.7418    1.0000 </r>
       <r>    3.6195    1.0000 </r>
       <r>    3.9408    1.0000 </r>
       <r>    5.0376    1.0000 </r>
       <r>    5.3911    1.0000 </r>
       <r>    6.0761    1.0000 </r>
       <r>    6.7788    1.0000 </r>
       <r>    8.0219    1.0000 </r>
       <r>   11.3737    0.0000 </r>
       <r>   11.9360    0.0000 </r>
       <r>   12.3806    0.0000 </r>
       <r>   13.2535    0.0000 </r>
      </set>
      <set comment="kpoint 69">
       <r>  -20.9425    1.0000 </r>
       <r>  -20.9113    1.0000 </r>
       <r>  -20.9090    1.0000 </r>
       <r>   -1.3435    1.0000 </r>
       <r>    2.5851    1.0000 </r>
       <r>    4.1586    1.0000 </r>
       <r>    4.4877    1.0000 </r>
       <r>    4.8883    1.0000 </r>
       <r>    5.4424    1.0000 </r>
       <r>    5.7552    1.0000 </r>
       <r>    7.2589    1.0000 </r>
       <r>    7.6445    1.0000 </r>
       <r>   10.5012    1.0000 </r>
       <r>   11.2611    0.0000 </r>
       <r>   12.8757    0.0000 </r>
       <r>   13.2144    0.0000 </r>
      </set>
      <set comment="kpoint 70">
       <r>  -20.9428    1.0000 </r>
       <r>  -20.9140    1.0000 </r>
       <r>  -20.9086    1.0000 </r>
       <r>   -1.2120    1.0000 </r>
       <r>    2.8099    1.0000 </r>
       <r>    3.9512    1.0000 </r>
       <r>    4.4404    1.0000 </r>
       <r>    4.9980    1.0000 </r>
       <r>    5.3693    1.0000 </r>
       <r>    5.5743    1.0000 </r>
       <r>    6.9148    1.0000 </r>
       <r>    7.6854    1.0000 </r>
       <r>   10.5907    1.0000 </r>
       <r>   11.4264    0.0000 </r>
       <r>   12.4873    0.0000 </r>
       <r>   13.0378    0.0000 </r>
      </set>
      <set comment="kpoint 71">
       <r>  -20.9405    1.0000 </r>
       <r>  -20.9182    1.0000 </r>
       <r>  -20.9077    1.0000 </r>
       <r>   -1.1305    1.0000 </r>
       <r>    3.0489    1.0000 </r>
       <r>    3.7208    1.0000 </r>
       <r>    4.3006    1.0000 </r>
       <r>    4.8542    1.0000 </r>
       <r>    5.4766    1.0000 </r>
       <r>    5.6621    1.0000 </r>
       <r>    6.5767    1.0000 </r>
       <r>    7.7181    1.0000 </r>
       <r>   10.7288    1.0000 </r>
       <r>   11.8492    0.0000 </r>
       <r>   12.1500    0.0000 </r>
       <r>   12.8148    0.0000 </r>
      </set>
      <set comment="kpoint 72">
       <r>  -20.9369    1.0000 </r>
       <r>  -20.9217    1.0000 </r>
       <r>  -20.9065    1.0000 </r>
       <r>   -1.1069    1.0000 </r>
       <r>    3.1444    1.0000 </r>
       <r>    3.4895    1.0000 </r>
       <r>    4.1120    1.0000 </r>
       <r>    4.8420    1.0000 </r>
       <r>    5.4776    1.0000 </r>
       <r>    6.0032    1.0000 </r>
       <r>    6.3396    1.0000 </r>
       <r>    7.7735    1.0000 </r>
       <r>   10.9609    1.0000 </r>
       <r>   11.8196    0.0000 </r>
       <r>   12.3884    0.0000 </r>
       <r>   12.8467    0.0000 </r>
      </set>
      <set comment="kpoint 73">
       <r>  -20.9465    1.0000 </r>
       <r>  -20.9117    1.0000 </r>
       <r>  -20.9095    1.0000 </r>
       <r>   -1.2049    1.0000 </r>
       <r>    2.8954    1.0000 </r>
       <r>    4.1828    1.0000 </r>
       <r>    4.5482    1.0000 </r>
       <r>    4.8780    1.0000 </r>
       <r>    5.1148    1.0000 </r>
       <r>    5.5853    1.0000 </r>
       <r>    7.1554    1.0000 </r>
       <r>    7.6010    1.0000 </r>
       <r>   10.3924    1.0000 </r>
       <r>   11.1141    0.9862 </r>
       <r>   12.6573    0.0000 </r>
       <r>   12.8278    0.0000 </r>
      </set>
      <set comment="kpoint 74">
       <r>  -20.9443    1.0000 </r>
       <r>  -20.9146    1.0000 </r>
       <r>  -20.9089    1.0000 </r>
       <r>   -1.1587    1.0000 </r>
       <r>    3.0228    1.0000 </r>
       <r>    3.9867    1.0000 </r>
       <r>    4.4708    1.0000 </r>
       <r>    4.8488    1.0000 </r>
       <r>    5.2600    1.0000 </r>
       <r>    5.5644    1.0000 </r>
       <r>    6.8158    1.0000 </r>
       <r>    7.6601    1.0000 </r>
       <r>   10.5239    1.0000 </r>
       <r>   11.3846    0.0000 </r>
       <r>   12.4346    0.0000 </r>
       <r>   12.7248    0.0000 </r>
      </set>
      <set comment="kpoint 75">
       <r>  -20.9357    1.0000 </r>
       <r>  -20.9141    1.0000 </r>
       <r>  -20.9061    1.0000 </r>
       <r>   -1.4972    1.0000 </r>
       <r>    2.5935    1.0000 </r>
       <r>    3.8038    1.0000 </r>
       <r>    4.2046    1.0000 </r>
       <r>    5.1102    1.0000 </r>
       <r>    5.2648    1.0000 </r>
       <r>    6.1509    1.0000 </r>
       <r>    7.0673    1.0000 </r>
       <r>    8.0161    1.0000 </r>
       <r>   11.1799    0.0000 </r>
       <r>   11.6475    0.0000 </r>
       <r>   12.9345    0.0000 </r>
       <r>   13.2435    0.0000 </r>
      </set>
      <set comment="kpoint 76">
       <r>  -20.9373    1.0000 </r>
       <r>  -20.9168    1.0000 </r>
       <r>  -20.9061    1.0000 </r>
       <r>   -1.2655    1.0000 </r>
       <r>    2.7040    1.0000 </r>
       <r>    3.6628    1.0000 </r>
       <r>    4.1485    1.0000 </r>
       <r>    5.1037    1.0000 </r>
       <r>    5.2878    1.0000 </r>
       <r>    5.9133    1.0000 </r>
       <r>    6.8551    1.0000 </r>
       <r>    7.9365    1.0000 </r>
       <r>   11.2202    0.0000 </r>
       <r>   11.7245    0.0000 </r>
       <r>   12.3099    0.0000 </r>
       <r>   13.3866    0.0000 </r>
      </set>
      <set comment="kpoint 77">
       <r>  -20.9380    1.0000 </r>
       <r>  -20.9184    1.0000 </r>
       <r>  -20.9062    1.0000 </r>
       <r>   -1.1356    1.0000 </r>
       <r>    2.8709    1.0000 </r>
       <r>    3.5138    1.0000 </r>
       <r>    4.1227    1.0000 </r>
       <r>    5.0264    1.0000 </r>
       <r>    5.2927    1.0000 </r>
       <r>    5.7867    1.0000 </r>
       <r>    6.7701    1.0000 </r>
       <r>    7.9092    1.0000 </r>
       <r>   11.3028    0.0000 </r>
       <r>   11.6053    0.0000 </r>
       <r>   12.1806    0.0000 </r>
       <r>   13.3164    0.0000 </r>
      </set>
      <set comment="kpoint 78">
       <r>  -20.9395    1.0000 </r>
       <r>  -20.9157    1.0000 </r>
       <r>  -20.9078    1.0000 </r>
[...]
       <r>   11.5247    0.0000 </r>
       <r>   12.3666    0.0000 </r>
       <r>   13.2492    0.0000 </r>
      </set>
      <set comment="kpoint 79">
       <r>  -20.9384    1.0000 </r>
       <r>  -20.9191    1.0000 </r>
       <r>  -20.9078    1.0000 </r>
       <r>   -1.1388    1.0000 </r>
       <r>    2.9937    1.0000 </r>
       <r>    3.5948    1.0000 </r>
       <r>    4.3703    1.0000 </r>
       <r>    5.0404    1.0000 </r>
       <r>    5.2928    1.0000 </r>
       <r>    5.7559    1.0000 </r>
       <r>    6.4332    1.0000 </r>
       <r>    7.8417    1.0000 </r>
       <r>   11.0419    1.0000 </r>
       <r>   11.7218    0.0000 </r>
       <r>   11.9244    0.0000 </r>
       <r>   12.9418    0.0000 </r>
      </set>
      <set comment="kpoint 80">
       <r>  -20.9366    1.0000 </r>
       <r>  -20.9216    1.0000 </r>
       <r>  -20.9074    1.0000 </r>
       <r>   -1.1049    1.0000 </r>
       <r>    3.1800    1.0000 </r>
       <r>    3.4104    1.0000 </r>
       <r>    4.3101    1.0000 </r>
       <r>    4.9261    1.0000 </r>
       <r>    5.3730    1.0000 </r>
       <r>    5.8880    1.0000 </r>
       <r>    6.2331    1.0000 </r>
       <r>    7.8581    1.0000 </r>
       <r>   11.2395    0.0000 </r>
       <r>   11.6039    0.0000 </r>
       <r>   11.9948    0.0000 </r>
       <r>   12.7874    0.0000 </r>
      </set>
      <set comment="kpoint 81">
       <r>  -20.9362    1.0000 </r>
       <r>  -20.9208    1.0000 </r>
       <r>  -20.9067    1.0000 </r>
       <r>   -1.1468    1.0000 </r>
       <r>    2.9611    1.0000 </r>
       <r>    3.5129    1.0000 </r>
       <r>    4.2190    1.0000 </r>
       <r>    4.9937    1.0000 </r>
       <r>    5.3521    1.0000 </r>
       <r>    5.9955    1.0000 </r>
       <r>    6.3639    1.0000 </r>
       <r>    7.8760    1.0000 </r>
       <r>   11.3576    0.0000 </r>
       <r>   11.5846    0.0000 </r>
       <r>   12.0067    0.0000 </r>
       <r>   13.1557    0.0000 </r>
      </set>
      <set comment="kpoint 82">
       <r>  -20.9416    1.0000 </r>
       <r>  -20.9166    1.0000 </r>
       <r>  -20.9089    1.0000 </r>
       <r>   -1.1459    1.0000 </r>
       <r>    3.0322    1.0000 </r>
       <r>    3.7937    1.0000 </r>
       <r>    4.4909    1.0000 </r>
       <r>    5.1174    1.0000 </r>
       <r>    5.1686    1.0000 </r>
       <r>    5.5429    1.0000 </r>
       <r>    6.5366    1.0000 </r>
       <r>    7.7850    1.0000 </r>
       <r>   10.7547    1.0000 </r>
       <r>   11.4338    0.0000 </r>
       <r>   12.2367    0.0000 </r>
       <r>   12.7204    0.0000 </r>
      </set>
      <set comment="kpoint 83">
       <r>  -20.9387    1.0000 </r>
       <r>  -20.9200    1.0000 </r>
       <r>  -20.9084    1.0000 </r>
       <r>   -1.1100    1.0000 </r>
       <r>    3.1927    1.0000 </r>
       <r>    3.5935    1.0000 </r>
       <r>    4.4412    1.0000 </r>
       <r>    4.9541    1.0000 </r>
       <r>    5.4605    1.0000 </r>
       <r>    5.5175    1.0000 </r>
       <r>    6.2562    1.0000 </r>
       <r>    7.8379    1.0000 </r>
       <r>   10.9750    1.0000 </r>
       <r>   11.6417    0.0000 </r>
       <r>   11.9852    0.0000 </r>
       <r>   12.5461    0.0000 </r>
      </set>
      <set comment="kpoint 84">
       <r>  -20.9367    1.0000 </r>
       <r>  -20.9217    1.0000 </r>
       <r>  -20.9084    1.0000 </r>
       <r>   -1.1020    1.0000 </r>
       <r>    3.2656    1.0000 </r>
       <r>    3.4527    1.0000 </r>
       <r>    4.4471    1.0000 </r>
       <r>    5.0885    1.0000 </r>
       <r>    5.3191    1.0000 </r>
       <r>    5.6099    1.0000 </r>
       <r>    6.1135    1.0000 </r>
       <r>    7.8879    1.0000 </r>
       <r>   11.3225    0.0000 </r>
       <r>   11.6037    0.0000 </r>
       <r>   11.6732    0.0000 </r>
       <r>   12.5549    0.0000 </r>
      </set>
     </set>
    </set>
   </array>
  </eigenvalues>
  <separator name="orbital magnetization" >
   <v name="MAGDIPOLOUT">      0.00000000      0.00000000      0.00000000</v>
  </separator>
  <dos>
   <i name="efermi">     11.12969855 </i>
   <total>
    <array>
     <dimension dim="1">gridpoints</dimension>
     <dimension dim="2">spin</dimension>
     <field>energy</field>
     <field>total</field>
     <field>integrated</field>
     <set>
      <set comment="spin 1">
       <r>   -22.7083     0.0000     0.0000 </r>
       <r>   -22.5792     0.0000     0.0000 </r>
       <r>   -22.4501     0.0000     0.0000 </r>
       <r>   -22.3211     0.0000     0.0000 </r>
       <r>   -22.1920     0.0000     0.0000 </r>
       <r>   -22.0630     0.0000     0.0000 </r>
       <r>   -21.9339     0.0000     0.0000 </r>
       <r>   -21.8048     0.0000     0.0000 </r>
       <r>   -21.6758     0.0000     0.0000 </r>
       <r>   -21.5467     0.0000     0.0000 </r>
       <r>   -21.4177     0.0000     0.0000 </r>
       <r>   -21.2886     0.0000     0.0000 </r>
       <r>   -21.1595     0.0000     0.0000 </r>
       <r>   -21.0305     0.0000     0.0000 </r>
       <r>   -20.9014    41.3354     5.3348 </r>
       <r>   -20.7724     0.0000     6.0000 </r>
       <r>   -20.6433     0.0000     6.0000 </r>
       <r>   -20.5142     0.0000     6.0000 </r>
       <r>   -20.3852     0.0000     6.0000 </r>
       <r>   -20.2561     0.0000     6.0000 </r>
       <r>   -20.1270     0.0000     6.0000 </r>
       <r>   -19.9980     0.0000     6.0000 </r>
       <r>   -19.8689     0.0000     6.0000 </r>
       <r>   -19.7399     0.0000     6.0000 </r>
       <r>   -19.6108     0.0000     6.0000 </r>
       <r>   -19.4817     0.0000     6.0000 </r>
       <r>   -19.3527     0.0000     6.0000 </r>
       <r>   -19.2236     0.0000     6.0000 </r>
       <r>   -19.0946     0.0000     6.0000 </r>
       <r>   -18.9655     0.0000     6.0000 </r>
       <r>   -18.8364     0.0000     6.0000 </r>
       <r>   -18.7074     0.0000     6.0000 </r>
       <r>   -18.5783     0.0000     6.0000 </r>
       <r>   -18.4493     0.0000     6.0000 </r>
       <r>   -18.3202     0.0000     6.0000 </r>
       <r>   -18.1911     0.0000     6.0000 </r>
       <r>   -18.0621     0.0000     6.0000 </r>
       <r>   -17.9330     0.0000     6.0000 </r>
       <r>   -17.8039     0.0000     6.0000 </r>
       <r>   -17.6749     0.0000     6.0000 </r>
       <r>   -17.5458     0.0000     6.0000 </r>
       <r>   -17.4168     0.0000     6.0000 </r>
       <r>   -17.2877     0.0000     6.0000 </r>
       <r>   -17.1586     0.0000     6.0000 </r>
       <r>   -17.0296     0.0000     6.0000 </r>
       <r>   -16.9005     0.0000     6.0000 </r>
       <r>   -16.7715     0.0000     6.0000 </r>
       <r>   -16.6424     0.0000     6.0000 </r>
       <r>   -16.5133     0.0000     6.0000 </r>
       <r>   -16.3843     0.0000     6.0000 </r>
       <r>   -16.2552     0.0000     6.0000 </r>
       <r>   -16.1262     0.0000     6.0000 </r>
       <r>   -15.9971     0.0000     6.0000 </r>
       <r>   -15.8680     0.0000     6.0000 </r>
       <r>   -15.7390     0.0000     6.0000 </r>
       <r>   -15.6099     0.0000     6.0000 </r>
       <r>   -15.4809     0.0000     6.0000 </r>
       <r>   -15.3518     0.0000     6.0000 </r>
       <r>   -15.2227     0.0000     6.0000 </r>
       <r>   -15.0937     0.0000     6.0000 </r>
       <r>   -14.9646     0.0000     6.0000 </r>
       <r>   -14.8355     0.0000     6.0000 </r>
       <r>   -14.7065     0.0000     6.0000 </r>
       <r>   -14.5774     0.0000     6.0000 </r>
       <r>   -14.4484     0.0000     6.0000 </r>
       <r>   -14.3193     0.0000     6.0000 </r>
       <r>   -14.1902     0.0000     6.0000 </r>
       <r>   -14.0612     0.0000     6.0000 </r>
       <r>   -13.9321     0.0000     6.0000 </r>
       <r>   -13.8031     0.0000     6.0000 </r>
       <r>   -13.6740     0.0000     6.0000 </r>
       <r>   -13.5449     0.0000     6.0000 </r>
       <r>   -13.4159     0.0000     6.0000 </r>
       <r>   -13.2868     0.0000     6.0000 </r>
       <r>   -13.1578     0.0000     6.0000 </r>
       <r>   -13.0287     0.0000     6.0000 </r>
       <r>   -12.8996     0.0000     6.0000 </r>
       <r>   -12.7706     0.0000     6.0000 </r>
       <r>   -12.6415     0.0000     6.0000 </r>
       <r>   -12.5124     0.0000     6.0000 </r>
       <r>   -12.3834     0.0000     6.0000 </r>
       <r>   -12.2543     0.0000     6.0000 </r>
       <r>   -12.1253     0.0000     6.0000 </r>
       <r>   -11.9962     0.0000     6.0000 </r>
       <r>   -11.8671     0.0000     6.0000 </r>
       <r>   -11.7381     0.0000     6.0000 </r>
       <r>   -11.6090     0.0000     6.0000 </r>
       <r>   -11.4800     0.0000     6.0000 </r>
       <r>   -11.3509     0.0000     6.0000 </r>
       <r>   -11.2218     0.0000     6.0000 </r>
       <r>   -11.0928     0.0000     6.0000 </r>
       <r>   -10.9637     0.0000     6.0000 </r>
       <r>   -10.8347     0.0000     6.0000 </r>
       <r>   -10.7056     0.0000     6.0000 </r>
       <r>   -10.5765     0.0000     6.0000 </r>
       <r>   -10.4475     0.0000     6.0000 </r>
       <r>   -10.3184     0.0000     6.0000 </r>
       <r>   -10.1893     0.0000     6.0000 </r>
       <r>   -10.0603     0.0000     6.0000 </r>
       <r>    -9.9312     0.0000     6.0000 </r>
       <r>    -9.8022     0.0000     6.0000 </r>
       <r>    -9.6731     0.0000     6.0000 </r>
       <r>    -9.5440     0.0000     6.0000 </r>
       <r>    -9.4150     0.0000     6.0000 </r>
       <r>    -9.2859     0.0000     6.0000 </r>
       <r>    -9.1569     0.0000     6.0000 </r>
       <r>    -9.0278     0.0000     6.0000 </r>
       <r>    -8.8987     0.0000     6.0000 </r>
       <r>    -8.7697     0.0000     6.0000 </r>
       <r>    -8.6406     0.0000     6.0000 </r>
       <r>    -8.5116     0.0000     6.0000 </r>
       <r>    -8.3825     0.0000     6.0000 </r>
       <r>    -8.2534     0.0000     6.0000 </r>
       <r>    -8.1244     0.0000     6.0000 </r>
       <r>    -7.9953     0.0000     6.0000 </r>
       <r>    -7.8662     0.0000     6.0000 </r>
       <r>    -7.7372     0.0000     6.0000 </r>
       <r>    -7.6081     0.0000     6.0000 </r>
       <r>    -7.4791     0.0000     6.0000 </r>
       <r>    -7.3500     0.0000     6.0000 </r>
       <r>    -7.2209     0.0000     6.0000 </r>
       <r>    -7.0919     0.0000     6.0000 </r>
       <r>    -6.9628     0.0000     6.0000 </r>
       <r>    -6.8338     0.0000     6.0000 </r>
       <r>    -6.7047     0.0000     6.0000 </r>
       <r>    -6.5756     0.0000     6.0000 </r>
       <r>    -6.4466     0.0000     6.0000 </r>
       <r>    -6.3175     0.0000     6.0000 </r>
       <r>    -6.1885     0.0000     6.0000 </r>
       <r>    -6.0594     0.0000     6.0000 </r>
       <r>    -5.9303     0.0000     6.0000 </r>
       <r>    -5.8013     0.0000     6.0000 </r>
       <r>    -5.6722     0.0000     6.0000 </r>
       <r>    -5.5432     0.0000     6.0000 </r>
       <r>    -5.4141     0.0000     6.0000 </r>
       <r>    -5.2850     0.0000     6.0000 </r>
       <r>    -5.1560     0.0000     6.0000 </r>
       <r>    -5.0269     0.0000     6.0000 </r>
       <r>    -4.8978     0.0000     6.0000 </r>
       <r>    -4.7688     0.0000     6.0000 </r>
       <r>    -4.6397     0.0000     6.0000 </r>
       <r>    -4.5107     0.0000     6.0000 </r>
       <r>    -4.3816     0.0000     6.0000 </r>
       <r>    -4.2525     0.0000     6.0000 </r>
       <r>    -4.1235     0.0000     6.0000 </r>
       <r>    -3.9944     0.0000     6.0000 </r>
       <r>    -3.8654     0.0000     6.0000 </r>
       <r>    -3.7363     0.0000     6.0000 </r>
       <r>    -3.6072     0.0000     6.0000 </r>
       <r>    -3.4782     0.0000     6.0000 </r>
       <r>    -3.3491     0.0000     6.0000 </r>
       <r>    -3.2201     0.0000     6.0000 </r>
       <r>    -3.0910     0.0000     6.0000 </r>
       <r>    -2.9619     0.0404     6.0061 </r>
       <r>    -2.8329     0.0508     6.0202 </r>
       <r>    -2.7038     0.2257     6.0537 </r>
       <r>    -2.5747     0.0457     6.0596 </r>
       <r>    -2.4457     0.0582     6.1104 </r>
       <r>    -2.3166     0.2257     6.1538 </r>
       <r>    -2.1876     0.4623     6.2135 </r>
       <r>    -2.0585     0.1694     6.2576 </r>
       <r>    -1.9294     0.0504     6.3078 </r>
       <r>    -1.8004     0.4306     6.4079 </r>
       <r>    -1.6713     0.2333     6.4917 </r>
       <r>    -1.5423     0.5006     6.5972 </r>
       <r>    -1.4132     0.7866     6.8052 </r>
       <r>    -1.2841     1.0457     6.9970 </r>
       <r>    -1.1551     2.8741     7.5170 </r>
       <r>    -1.0260     0.5079     8.0000 </r>
       <r>    -0.8970     0.0000     8.0000 </r>
       <r>    -0.7679     0.0000     8.0000 </r>
       <r>    -0.6388     0.0000     8.0000 </r>
       <r>    -0.5098     0.0000     8.0000 </r>
       <r>    -0.3807     0.0000     8.0000 </r>
       <r>    -0.2516     0.0000     8.0000 </r>
       <r>    -0.1226     0.0000     8.0000 </r>
       <r>     0.0065     0.0000     8.0000 </r>
       <r>     0.1355     0.0000     8.0000 </r>
       <r>     0.2646     0.0000     8.0000 </r>
       <r>     0.3937     0.0000     8.0000 </r>
       <r>     0.5227     0.0000     8.0000 </r>
       <r>     0.6518     0.0000     8.0000 </r>
       <r>     0.7808     0.0000     8.0000 </r>
       <r>     0.9099     0.0000     8.0000 </r>
       <r>     1.0390     0.0000     8.0000 </r>
       <r>     1.1680     0.0000     8.0000 </r>
       <r>     1.2971     0.0000     8.0000 </r>
       <r>     1.4261     0.0000     8.0000 </r>
       <r>     1.5552     0.0000     8.0000 </r>
       <r>     1.6843     0.0000     8.0000 </r>
       <r>     1.8133     0.0000     8.0000 </r>
       <r>     1.9424     0.0000     8.0000 </r>
       <r>     2.0715     0.0000     8.0000 </r>
       <r>     2.2005     0.0000     8.0000 </r>
       <r>     2.3296     0.0000     8.0000 </r>
       <r>     2.4586     0.3022     8.0463 </r>
       <r>     2.5877     1.8197     8.3787 </r>
       <r>     2.7168     1.9030     8.8537 </r>
       <r>     2.8458     1.2211     9.1936 </r>
       <r>     2.9749     1.3513     9.4889 </r>
       <r>     3.1039     0.8180     9.7260 </r>
       <r>     3.2330     0.9001     9.8640 </r>
       <r>     3.3621     0.0000     9.9172 </r>
       <r>     3.4911     0.5198    10.0352 </r>
       <r>     3.6202     2.5599    10.4842 </r>
       <r>     3.7492     2.4016    11.2285 </r>
       <r>     3.8783     1.9577    11.7447 </r>
       <r>     4.0074     3.1755    12.3971 </r>
       <r>     4.1364     2.2452    12.9133 </r>
       <r>     4.2655     1.5420    13.3797 </r>
       <r>     4.3946     1.4143    13.7346 </r>
       <r>     4.5236     0.8949    13.9516 </r>
       <r>     4.6527     0.0846    14.0109 </r>
       <r>     4.7817     0.1940    14.0360 </r>
       <r>     4.9108     1.6210    14.2984 </r>
       <r>     5.0399     4.2182    15.0141 </r>
       <r>     5.1689     5.8648    16.3445 </r>
       <r>     5.2980     4.5923    17.2053 </r>
       <r>     5.4270     3.1824    17.9210 </r>
       <r>     5.5561     1.7028    18.2544 </r>
       <r>     5.6852     1.5590    18.6527 </r>
       <r>     5.8142     1.7908    18.9940 </r>
       <r>     5.9433     1.1240    19.2193 </r>
       <r>     6.0723     0.7597    19.4198 </r>
       <r>     6.2014     0.4861    19.5921 </r>
       <r>     6.3305     0.3822    19.6988 </r>
       <r>     6.4595     0.5669    19.8756 </r>
       <r>     6.5886     0.7886    19.9916 </r>
       <r>     6.7176     0.6600    20.1007 </r>
       <r>     6.8467     0.7173    20.3010 </r>
       <r>     6.9758     0.9118    20.5119 </r>
       <r>     7.1048     0.5925    20.6017 </r>
       <r>     7.2339     1.2479    20.7628 </r>
       <r>     7.3630     0.9961    20.9979 </r>
       <r>     7.4920     0.7617    21.1315 </r>
       <r>     7.6211     0.9025    21.3682 </r>
       <r>     7.7501     1.4727    21.6675 </r>
       <r>     7.8792     4.4510    22.3359 </r>
       <r>     8.0083     0.7937    22.6013 </r>
       <r>     8.1373     1.8612    23.0122 </r>
       <r>     8.2664     1.9066    23.3348 </r>
       <r>     8.3954     1.2913    23.6159 </r>
       <r>     8.5245     0.6284    23.7452 </r>
       <r>     8.6536     0.4974    23.8703 </r>
       <r>     8.7826     0.1905    23.9272 </r>
       <r>     8.9117     0.0000    23.9718 </r>
       <r>     9.0407     0.1058    24.0000 </r>
       <r>     9.1698     0.0000    24.0000 </r>
       <r>     9.2989     0.0000    24.0000 </r>
       <r>     9.4279     0.0000    24.0000 </r>
       <r>     9.5570     0.0000    24.0000 </r>
       <r>     9.6861     0.0000    24.0000 </r>
       <r>     9.8151     0.0000    24.0000 </r>
       <r>     9.9442     0.0000    24.0000 </r>
       <r>    10.0732     0.0000    24.0000 </r>
       <r>    10.2023     0.0000    24.0000 </r>
       <r>    10.3314     0.1267    24.0163 </r>
       <r>    10.4604     0.3012    24.0826 </r>
       <r>    10.5895     0.4804    24.1985 </r>
       <r>    10.7185     0.5283    24.3085 </r>
       <r>    10.8476     0.6152    24.4508 </r>
       <r>    10.9767     0.9366    24.6562 </r>
       <r>    11.1057     1.7159    24.9424 </r>
       <r>    11.2348     1.0894    25.2048 </r>
       <r>    11.3638     3.2177    25.7671 </r>
       <r>    11.4929     1.7399    26.1809 </r>
       <r>    11.6220     1.5088    26.4514 </r>
       <r>    11.7510     1.8527    26.8454 </r>
       <r>    11.8801     4.0264    27.4100 </r>
       <r>    12.0092     2.2903    28.0070 </r>
       <r>    12.1382     1.6327    28.3555 </r>
       <r>    12.2673     1.5556    28.7288 </r>
       <r>    12.3963     2.6983    29.2677 </r>
       <r>    12.5254     1.2046    29.5410 </r>
       <r>    12.6545     0.5039    29.6964 </r>
       <r>    12.7835     1.7916    29.9991 </r>
       <r>    12.9126     1.5243    30.3269 </r>
       <r>    13.0416     0.2445    30.4476 </r>
       <r>    13.1707     1.5251    30.7112 </r>
       <r>    13.2998     2.7737    31.1509 </r>
       <r>    13.4288     1.4989    31.5052 </r>
       <r>    13.5579     1.2647    31.7372 </r>
       <r>    13.6869     0.6797    31.8656 </r>
       <r>    13.8160     0.7759    31.9709 </r>
       <r>    13.9451     0.0000    31.9927 </r>
       <r>    14.0741     0.0000    31.9927 </r>
       <r>    14.2032     0.0000    31.9927 </r>
       <r>    14.3323     0.0000    32.0000 </r>
       <r>    14.4613     0.0000    32.0000 </r>
       <r>    14.5904     0.0000    32.0000 </r>
       <r>    14.7194     0.0000    32.0000 </r>
       <r>    14.8485     0.0000    32.0000 </r>
       <r>    14.9776     0.0000    32.0000 </r>
       <r>    15.1066     0.0000    32.0000 </r>
       <r>    15.2357     0.0000    32.0000 </r>
       <r>    15.3647     0.0000    32.0000 </r>
       <r>    15.4938     0.0000    32.0000 </r>
       <r>    15.6229     0.0000    32.0000 </r>
       <r>    15.7519     0.0000    32.0000 </r>
       <r>    15.8810     0.0000    32.0000 </r>
       <r>    16.0100     0.0000    32.0000 </r>
      </set>
     </set>
    </array>
   </total>
  </dos>
 </calculation>
 <structure name="finalpos" >
  <crystal>
   <varray name="basis" >
    <v>       0.00000000       3.02244810       3.02244810 </v>
    <v>       3.02244810       0.00000000       3.02244810 </v>
    <v>       3.02244810       3.02244810       0.00000000 </v>
   </varray>
   <i name="volume">     55.22129050 </i>
   <varray name="rec_basis" >
    <v>      -0.16542881       0.16542881       0.16542881 </v>
    <v>       0.16542881      -0.16542881       0.16542881 </v>
    <v>       0.16542881       0.16542881      -0.16542881 </v>
   </varray>
  </crystal>
  <varray name="positions" >
   <v>       0.75000000       0.75000000       0.75000000 </v>
   <v>       0.25000000       0.25000000       0.25000000 </v>
   <v>       0.00000000       0.00000000       0.00000000 </v>
  </varray>
 </structure>
</modeling>
