unknown system                          
            1
     3.252071    0.000000    0.000000
     0.000000    3.252071    0.000000
     0.000000    0.000000    3.252071
   Ti
     2
Direct configuration=     1
   0.00000000  0.00000000  0.00000000
   0.50000000  0.50000000  0.50000000
unknown system                          
            1
     3.284592    0.000000    0.000000
     0.000000    3.252071    0.000000
     0.000000    0.000000    3.252071
   Ti
     2
Direct configuration=     2
   0.00000000  0.00000000  0.00000000
   0.50000000  0.50000000  0.50000000
unknown system                          
            1
     3.268331    0.000000    0.000000
     0.000000    3.252071    0.000000
     0.000000    0.000000    3.252071
   Ti
     2
Direct configuration=     3
   0.00000000  0.00000000  0.00000000
   0.50000000  0.50000000  0.50000000
unknown system                          
            1
     3.235811    0.000000    0.000000
     0.000000    3.252071    0.000000
     0.000000    0.000000    3.252071
   Ti
     2
Direct configuration=     4
   0.00000000  0.00000000  0.00000000
   0.50000000  0.50000000  0.50000000
unknown system                          
            1
     3.219550    0.000000    0.000000
     0.000000    3.252071    0.000000
     0.000000    0.000000    3.252071
   Ti
     2
Direct configuration=     5
   0.00000000  0.00000000  0.00000000
   0.50000000  0.50000000  0.50000000
unknown system                          
            1
     3.252071    0.000000    0.000000
     0.000000    3.284592    0.000000
     0.000000    0.000000    3.252071
   Ti
     2
Direct configuration=     6
   0.00000000  0.00000000  0.00000000
   0.50000000  0.50000000  0.50000000
unknown system                          
            1
     3.252071    0.000000    0.000000
     0.000000    3.268331    0.000000
     0.000000    0.000000    3.252071
   Ti
     2
Direct configuration=     7
   0.00000000  0.00000000  0.00000000
   0.50000000  0.50000000  0.50000000
unknown system                          
            1
     3.252071    0.000000    0.000000
     0.000000    3.235811    0.000000
     0.000000    0.000000    3.252071
   Ti
     2
Direct configuration=     8
   0.00000000  0.00000000  0.00000000
   0.50000000  0.50000000  0.50000000
unknown system                          
            1
     3.252071    0.000000    0.000000
     0.000000    3.219550    0.000000
     0.000000    0.000000    3.252071
   Ti
     2
Direct configuration=     9
   0.00000000  0.00000000  0.00000000
   0.50000000  0.50000000  0.50000000
unknown system                          
            1
     3.252071    0.000000    0.000000
     0.000000    3.252071    0.000000
     0.000000    0.000000    3.284592
   Ti
     2
Direct configuration=    10
   0.00000000  0.00000000  0.00000000
   0.50000000  0.50000000  0.50000000
unknown system                          
            1
     3.252071    0.000000    0.000000
     0.000000    3.252071    0.000000
     0.000000    0.000000    3.268331
   Ti
     2
Direct configuration=    11
   0.00000000  0.00000000  0.00000000
   0.50000000  0.50000000  0.50000000
unknown system                          
            1
     3.252071    0.000000    0.000000
     0.000000    3.252071    0.000000
     0.000000    0.000000    3.235811
   Ti
     2
Direct configuration=    12
   0.00000000  0.00000000  0.00000000
   0.50000000  0.50000000  0.50000000
unknown system                          
            1
     3.252071    0.000000    0.000000
     0.000000    3.252071    0.000000
     0.000000    0.000000    3.219550
   Ti
     2
Direct configuration=    13
   0.00000000  0.00000000  0.00000000
   0.50000000  0.50000000  0.50000000
unknown system                          
            1
     3.252071    0.032521    0.000000
     0.000000    3.252071    0.000000
     0.000000    0.000000    3.252071
   Ti
     2
Direct configuration=    14
   0.00000000  0.00000000  0.00000000
   0.50000000  0.50000000  0.50000000
unknown system                          
            1
     3.252071    0.016260    0.000000
     0.000000    3.252071    0.000000
     0.000000    0.000000    3.252071
   Ti
     2
Direct configuration=    15
   0.00000000  0.00000000  0.00000000
   0.50000000  0.50000000  0.50000000
unknown system                          
            1
     3.252071   -0.016260    0.000000
     0.000000    3.252071    0.000000
     0.000000    0.000000    3.252071
   Ti
     2
Direct configuration=    16
   0.00000000  0.00000000  0.00000000
   0.50000000  0.50000000  0.50000000
unknown system                          
            1
     3.252071   -0.032521    0.000000
     0.000000    3.252071    0.000000
     0.000000    0.000000    3.252071
   Ti
     2
Direct configuration=    17
   0.00000000  0.00000000  0.00000000
   0.50000000  0.50000000  0.50000000
unknown system                          
            1
     3.252071    0.000000    0.000000
     0.000000    3.252071    0.032521
     0.000000    0.000000    3.252071
   Ti
     2
Direct configuration=    18
   0.00000000  0.00000000  0.00000000
   0.50000000  0.50000000  0.50000000
unknown system                          
            1
     3.252071    0.000000    0.000000
     0.000000    3.252071    0.016260
     0.000000    0.000000    3.252071
   Ti
     2
Direct configuration=    19
   0.00000000  0.00000000  0.00000000
   0.50000000  0.50000000  0.50000000
unknown system                          
            1
     3.252071    0.000000    0.000000
     0.000000    3.252071   -0.016260
     0.000000    0.000000    3.252071
   Ti
     2
Direct configuration=    20
   0.00000000  0.00000000  0.00000000
   0.50000000  0.50000000  0.50000000
unknown system                          
            1
     3.252071    0.000000    0.000000
     0.000000    3.252071   -0.032521
     0.000000    0.000000    3.252071
   Ti
     2
Direct configuration=    21
   0.00000000  0.00000000  0.00000000
   0.50000000  0.50000000  0.50000000
unknown system                          
            1
     3.252071    0.000000    0.000000
     0.000000    3.252071    0.000000
     0.032521    0.000000    3.252071
   Ti
     2
Direct configuration=    22
   0.00000000  0.00000000  0.00000000
   0.50000000  0.50000000  0.50000000
unknown system                          
            1
     3.252071    0.000000    0.000000
     0.000000    3.252071    0.000000
     0.016260    0.000000    3.252071
   Ti
     2
Direct configuration=    23
   0.00000000  0.00000000  0.00000000
   0.50000000  0.50000000  0.50000000
unknown system                          
            1
     3.252071    0.000000    0.000000
     0.000000    3.252071    0.000000
    -0.016260    0.000000    3.252071
   Ti
     2
Direct configuration=    24
   0.00000000  0.00000000  0.00000000
   0.50000000  0.50000000  0.50000000
unknown system                          
            1
     3.252071    0.000000    0.000000
     0.000000    3.252071    0.000000
    -0.032521    0.000000    3.252071
   Ti
     2
Direct configuration=    25
   0.00000000  0.00000000  0.00000000
   0.50000000  0.50000000  0.50000000
unknown system                          
            1
     3.252071    0.000000    0.000000
     0.000000    3.252071    0.000000
     0.000000    0.000000    3.252071
   Ti
     2
Direct configuration=    26
   0.00307496  0.00000000 -0.00000000
   0.50000000  0.50000000  0.50000000
unknown system                          
            1
     3.252071    0.000000    0.000000
     0.000000    3.252071    0.000000
     0.000000    0.000000    3.252071
   Ti
     2
Direct configuration=    27
   0.00153748  0.00000000 -0.00000000
   0.50000000  0.50000000  0.50000000
unknown system                          
            1
     3.252071    0.000000    0.000000
     0.000000    3.252071    0.000000
     0.000000    0.000000    3.252071
   Ti
     2
Direct configuration=    28
  -0.00153748  0.00000000  0.00000000
   0.50000000  0.50000000  0.50000000
unknown system                          
            1
     3.252071    0.000000    0.000000
     0.000000    3.252071    0.000000
     0.000000    0.000000    3.252071
   Ti
     2
Direct configuration=    29
  -0.00307496  0.00000000  0.00000000
   0.50000000  0.50000000  0.50000000
