   3   3   0   0
  0.2785288E+02  0.4907219E-09  0.4907219E-09  0.4907219E-09  0.5000000E-15
  1.000000000000000E-004
  CAR
 unknown system
     12.12150382    -34.27159434  301      8.02730514      1.00000000
    -34.272  0.0000E+00  0.0000E+00
    -34.117  0.0000E+00  0.0000E+00
    -33.962  0.0000E+00  0.0000E+00
    -33.808  0.0000E+00  0.0000E+00
    -33.653  0.0000E+00  0.0000E+00
    -33.498  0.0000E+00  0.0000E+00
    -33.344  0.0000E+00  0.0000E+00
    -33.189  0.0000E+00  0.0000E+00
    -33.034  0.0000E+00  0.0000E+00
    -32.880  0.0000E+00  0.0000E+00
    -32.725  0.0000E+00  0.0000E+00
    -32.571  0.0000E+00  0.0000E+00
    -32.416  0.0000E+00  0.0000E+00
    -32.261  0.0000E+00  0.0000E+00
    -32.107  0.1293E+02  0.2000E+01
    -31.952  0.0000E+00  0.2000E+01
    -31.797  0.0000E+00  0.2000E+01
    -31.643  0.0000E+00  0.2000E+01
    -31.488  0.0000E+00  0.2000E+01
    -31.333  0.0000E+00  0.2000E+01
    -31.179  0.0000E+00  0.2000E+01
    -31.024  0.0000E+00  0.2000E+01
    -30.869  0.0000E+00  0.2000E+01
    -30.715  0.0000E+00  0.2000E+01
    -30.560  0.0000E+00  0.2000E+01
    -30.406  0.0000E+00  0.2000E+01
    -30.251  0.0000E+00  0.2000E+01
    -30.096  0.0000E+00  0.2000E+01
    -29.942  0.0000E+00  0.2000E+01
    -29.787  0.0000E+00  0.2000E+01
    -29.632  0.0000E+00  0.2000E+01
    -29.478  0.0000E+00  0.2000E+01
    -29.323  0.0000E+00  0.2000E+01
    -29.168  0.0000E+00  0.2000E+01
    -29.014  0.0000E+00  0.2000E+01
    -28.859  0.0000E+00  0.2000E+01
    -28.704  0.0000E+00  0.2000E+01
    -28.550  0.0000E+00  0.2000E+01
    -28.395  0.0000E+00  0.2000E+01
    -28.240  0.0000E+00  0.2000E+01
    -28.086  0.0000E+00  0.2000E+01
    -27.931  0.0000E+00  0.2000E+01
    -27.777  0.0000E+00  0.2000E+01
    -27.622  0.0000E+00  0.2000E+01
    -27.467  0.0000E+00  0.2000E+01
    -27.313  0.0000E+00  0.2000E+01
    -27.158  0.0000E+00  0.2000E+01
    -27.003  0.0000E+00  0.2000E+01
    -26.849  0.0000E+00  0.2000E+01
    -26.694  0.0000E+00  0.2000E+01
    -26.539  0.0000E+00  0.2000E+01
    -26.385  0.0000E+00  0.2000E+01
    -26.230  0.0000E+00  0.2000E+01
    -26.075  0.0000E+00  0.2000E+01
    -25.921  0.0000E+00  0.2000E+01
    -25.766  0.0000E+00  0.2000E+01
    -25.612  0.0000E+00  0.2000E+01
    -25.457  0.0000E+00  0.2000E+01
    -25.302  0.0000E+00  0.2000E+01
    -25.148  0.0000E+00  0.2000E+01
    -24.993  0.0000E+00  0.2000E+01
    -24.838  0.0000E+00  0.2000E+01
    -24.684  0.0000E+00  0.2000E+01
    -24.529  0.0000E+00  0.2000E+01
    -24.374  0.0000E+00  0.2000E+01
    -24.220  0.0000E+00  0.2000E+01
    -24.065  0.0000E+00  0.2000E+01
    -23.910  0.0000E+00  0.2000E+01
    -23.756  0.0000E+00  0.2000E+01
    -23.601  0.0000E+00  0.2000E+01
    -23.447  0.0000E+00  0.2000E+01
    -23.292  0.0000E+00  0.2000E+01
    -23.137  0.0000E+00  0.2000E+01
    -22.983  0.0000E+00  0.2000E+01
    -22.828  0.0000E+00  0.2000E+01
    -22.673  0.0000E+00  0.2000E+01
    -22.519  0.0000E+00  0.2000E+01
    -22.364  0.0000E+00  0.2000E+01
    -22.209  0.0000E+00  0.2000E+01
    -22.055  0.0000E+00  0.2000E+01
    -21.900  0.0000E+00  0.2000E+01
    -21.745  0.0000E+00  0.2000E+01
    -21.591  0.0000E+00  0.2000E+01
    -21.436  0.0000E+00  0.2000E+01
    -21.282  0.0000E+00  0.2000E+01
    -21.127  0.0000E+00  0.2000E+01
    -20.972  0.0000E+00  0.2000E+01
    -20.818  0.0000E+00  0.2000E+01
    -20.663  0.0000E+00  0.2000E+01
    -20.508  0.0000E+00  0.2000E+01
    -20.354  0.0000E+00  0.2000E+01
    -20.199  0.0000E+00  0.2000E+01
    -20.044  0.0000E+00  0.2000E+01
    -19.890  0.0000E+00  0.2000E+01
    -19.735  0.0000E+00  0.2000E+01
    -19.580  0.0000E+00  0.2000E+01
    -19.426  0.0000E+00  0.2000E+01
    -19.271  0.0000E+00  0.2000E+01
    -19.117  0.0000E+00  0.2000E+01
    -18.962  0.0000E+00  0.2000E+01
    -18.807  0.0000E+00  0.2000E+01
    -18.653  0.0000E+00  0.2000E+01
    -18.498  0.0000E+00  0.2000E+01
    -18.343  0.0000E+00  0.2000E+01
    -18.189  0.0000E+00  0.2000E+01
    -18.034  0.0000E+00  0.2000E+01
    -17.879  0.0000E+00  0.2000E+01
    -17.725  0.0000E+00  0.2000E+01
    -17.570  0.0000E+00  0.2000E+01
    -17.415  0.0000E+00  0.2000E+01
    -17.261  0.0000E+00  0.2000E+01
    -17.106  0.0000E+00  0.2000E+01
    -16.952  0.0000E+00  0.2000E+01
    -16.797  0.0000E+00  0.2000E+01
    -16.642  0.0000E+00  0.2000E+01
    -16.488  0.0000E+00  0.2000E+01
    -16.333  0.0000E+00  0.2000E+01
    -16.178  0.0000E+00  0.2000E+01
    -16.024  0.0000E+00  0.2000E+01
    -15.869  0.0000E+00  0.2000E+01
    -15.714  0.0000E+00  0.2000E+01
    -15.560  0.0000E+00  0.2000E+01
    -15.405  0.0000E+00  0.2000E+01
    -15.250  0.0000E+00  0.2000E+01
    -15.096  0.0000E+00  0.2000E+01
    -14.941  0.6988E-10  0.2000E+01
    -14.786  0.3880E+02  0.1200E+02
    -14.632  0.0000E+00  0.1200E+02
    -14.477  0.0000E+00  0.1200E+02
    -14.323  0.0000E+00  0.1200E+02
    -14.168  0.0000E+00  0.1200E+02
    -14.013  0.0000E+00  0.1200E+02
    -13.859  0.0000E+00  0.1200E+02
    -13.704  0.0000E+00  0.1200E+02
    -13.549  0.0000E+00  0.1200E+02
    -13.395  0.0000E+00  0.1200E+02
    -13.240  0.0000E+00  0.1200E+02
    -13.085  0.0000E+00  0.1200E+02
    -12.931  0.0000E+00  0.1200E+02
    -12.776  0.0000E+00  0.1200E+02
    -12.621  0.0000E+00  0.1200E+02
    -12.467  0.0000E+00  0.1200E+02
    -12.312  0.0000E+00  0.1200E+02
    -12.158  0.0000E+00  0.1200E+02
    -12.003  0.0000E+00  0.1200E+02
    -11.848  0.0000E+00  0.1200E+02
    -11.694  0.0000E+00  0.1200E+02
    -11.539  0.0000E+00  0.1200E+02
    -11.384  0.0000E+00  0.1200E+02
    -11.230  0.0000E+00  0.1200E+02
    -11.075  0.0000E+00  0.1200E+02
    -10.920  0.0000E+00  0.1200E+02
    -10.766  0.0000E+00  0.1200E+02
    -10.611  0.0000E+00  0.1200E+02
    -10.456  0.0000E+00  0.1200E+02
    -10.302  0.4224E-01  0.1201E+02
    -10.147  0.7520E+01  0.1444E+02
     -9.993  0.1248E+01  0.1800E+02
     -9.838  0.0000E+00  0.1800E+02
     -9.683  0.0000E+00  0.1800E+02
     -9.529  0.0000E+00  0.1800E+02
     -9.374  0.0000E+00  0.1800E+02
     -9.219  0.0000E+00  0.1800E+02
     -9.065  0.0000E+00  0.1800E+02
     -8.910  0.0000E+00  0.1800E+02
     -8.755  0.0000E+00  0.1800E+02
     -8.601  0.0000E+00  0.1800E+02
     -8.446  0.0000E+00  0.1800E+02
     -8.291  0.0000E+00  0.1800E+02
     -8.137  0.0000E+00  0.1800E+02
     -7.982  0.0000E+00  0.1800E+02
     -7.828  0.0000E+00  0.1800E+02
     -7.673  0.0000E+00  0.1800E+02
     -7.518  0.0000E+00  0.1800E+02
     -7.364  0.0000E+00  0.1800E+02
     -7.209  0.0000E+00  0.1800E+02
     -7.054  0.0000E+00  0.1800E+02
     -6.900  0.0000E+00  0.1800E+02
     -6.745  0.0000E+00  0.1800E+02
     -6.590  0.0000E+00  0.1800E+02
     -6.436  0.0000E+00  0.1800E+02
     -6.281  0.0000E+00  0.1800E+02
     -6.126  0.0000E+00  0.1800E+02
     -5.972  0.0000E+00  0.1800E+02
     -5.817  0.0000E+00  0.1800E+02
     -5.663  0.0000E+00  0.1800E+02
     -5.508  0.0000E+00  0.1800E+02
     -5.353  0.0000E+00  0.1800E+02
     -5.199  0.0000E+00  0.1800E+02
     -5.044  0.0000E+00  0.1800E+02
     -4.889  0.0000E+00  0.1800E+02
     -4.735  0.0000E+00  0.1800E+02
     -4.580  0.0000E+00  0.1800E+02
     -4.425  0.0000E+00  0.1800E+02
     -4.271  0.0000E+00  0.1800E+02
     -4.116  0.0000E+00  0.1800E+02
     -3.961  0.2951E-01  0.1800E+02
     -3.807  0.2484E+00  0.1805E+02
     -3.652  0.3263E+00  0.1811E+02
     -3.498  0.6439E+00  0.1825E+02
     -3.343  0.2628E+01  0.1875E+02
     -3.188  0.3358E+01  0.1977E+02
     -3.034  0.1884E+00  0.2000E+02
     -2.879  0.0000E+00  0.2000E+02
     -2.724  0.0000E+00  0.2000E+02
     -2.570  0.0000E+00  0.2000E+02
     -2.415  0.0000E+00  0.2000E+02
     -2.260  0.0000E+00  0.2000E+02
     -2.106  0.0000E+00  0.2000E+02
     -1.951  0.0000E+00  0.2000E+02
     -1.796  0.0000E+00  0.2000E+02
     -1.642  0.0000E+00  0.2000E+02
     -1.487  0.0000E+00  0.2000E+02
     -1.332  0.0000E+00  0.2000E+02
     -1.178  0.0000E+00  0.2000E+02
     -1.023  0.0000E+00  0.2000E+02
     -0.869  0.0000E+00  0.2000E+02
     -0.714  0.0000E+00  0.2000E+02
     -0.559  0.0000E+00  0.2000E+02
     -0.405  0.0000E+00  0.2000E+02
     -0.250  0.0000E+00  0.2000E+02
     -0.095  0.0000E+00  0.2000E+02
      0.059  0.0000E+00  0.2000E+02
      0.214  0.0000E+00  0.2000E+02
      0.369  0.0000E+00  0.2000E+02
      0.523  0.0000E+00  0.2000E+02
      0.678  0.0000E+00  0.2000E+02
      0.833  0.0000E+00  0.2000E+02
      0.987  0.0000E+00  0.2000E+02
      1.142  0.0000E+00  0.2000E+02
      1.296  0.0000E+00  0.2000E+02
      1.451  0.0000E+00  0.2000E+02
      1.606  0.0000E+00  0.2000E+02
      1.760  0.0000E+00  0.2000E+02
      1.915  0.0000E+00  0.2000E+02
      2.070  0.0000E+00  0.2000E+02
      2.224  0.1115E+00  0.2002E+02
      2.379  0.4769E+00  0.2012E+02
      2.534  0.2317E+01  0.2064E+02
      2.688  0.1178E+01  0.2107E+02
      2.843  0.1495E+01  0.2142E+02
      2.998  0.8209E+00  0.2157E+02
      3.152  0.4338E+00  0.2179E+02
      3.307  0.3392E+01  0.2245E+02
      3.461  0.2966E+01  0.2360E+02
      3.616  0.3534E+01  0.2451E+02
      3.771  0.3019E+01  0.2531E+02
      3.925  0.1696E+01  0.2599E+02
      4.080  0.2835E+00  0.2607E+02
      4.235  0.5055E+01  0.2690E+02
      4.389  0.4156E+01  0.2873E+02
      4.544  0.3275E+01  0.3025E+02
      4.699  0.1845E+01  0.3092E+02
      4.853  0.1462E+01  0.3148E+02
      5.008  0.5019E+00  0.3173E+02
      5.163  0.5001E+00  0.3196E+02
      5.317  0.2322E+00  0.3210E+02
      5.472  0.7113E+00  0.3244E+02
      5.626  0.7101E+00  0.3266E+02
      5.781  0.1383E+01  0.3304E+02
      5.936  0.3964E+00  0.3321E+02
      6.090  0.1271E+01  0.3355E+02
      6.245  0.6247E+00  0.3371E+02
      6.400  0.6090E+01  0.3505E+02
      6.554  0.1625E+01  0.3580E+02
      6.709  0.2119E+00  0.3593E+02
      6.864  0.7064E-01  0.3597E+02
      7.018  0.1762E-01  0.3600E+02
      7.173  0.4709E-01  0.3601E+02
      7.328  0.4748E-01  0.3602E+02
      7.482  0.1176E+00  0.3605E+02
      7.637  0.4569E+00  0.3612E+02
      7.791  0.5091E+00  0.3629E+02
      7.946  0.2181E+01  0.3674E+02
      8.101  0.1767E+01  0.3724E+02
      8.255  0.1717E+01  0.3771E+02
      8.410  0.8833E+00  0.3805E+02
      8.565  0.5589E+00  0.3824E+02
      8.719  0.5862E-01  0.3834E+02
      8.874  0.9174E+00  0.3860E+02
      9.029  0.2063E+01  0.3908E+02
      9.183  0.2320E+01  0.3984E+02
      9.338  0.1494E+01  0.4054E+02
      9.493  0.2199E+01  0.4121E+02
      9.647  0.5784E+01  0.4263E+02
      9.802  0.9902E+01  0.4483E+02
      9.956  0.5235E+01  0.4687E+02
     10.111  0.0000E+00  0.4800E+02
     10.266  0.0000E+00  0.4800E+02
     10.420  0.0000E+00  0.4800E+02
     10.575  0.0000E+00  0.4800E+02
     10.730  0.0000E+00  0.4800E+02
     10.884  0.0000E+00  0.4800E+02
     11.039  0.0000E+00  0.4800E+02
     11.194  0.0000E+00  0.4800E+02
     11.348  0.0000E+00  0.4800E+02
     11.503  0.0000E+00  0.4800E+02
     11.658  0.0000E+00  0.4800E+02
     11.812  0.0000E+00  0.4800E+02
     11.967  0.0000E+00  0.4800E+02
     12.122  0.0000E+00  0.4800E+02
