       N       E                     dE             d eps       ncg     rms          rms(c)
DAV:   1     0.440523131542E+03    0.44052E+03   -0.20538E+04  4032   0.201E+03
DAV:   2     0.445284924784E+02   -0.39599E+03   -0.38830E+03  4240   0.491E+02
DAV:   3    -0.185627920651E+02   -0.63091E+02   -0.62399E+02  5504   0.164E+02
DAV:   4    -0.228227770336E+02   -0.42600E+01   -0.42483E+01  7328   0.442E+01
DAV:   5    -0.229461398041E+02   -0.12336E+00   -0.12332E+00  5576   0.581E+00    0.309E+01
DAV:   6    -0.219915831809E+02    0.95456E+00   -0.18510E+00  5104   0.816E+00    0.192E+01
DAV:   7    -0.218793411430E+02    0.11224E+00   -0.25174E+00  6096   0.841E+00    0.635E+00
DAV:   8    -0.218283100875E+02    0.51031E-01   -0.32708E-01  5088   0.281E+00    0.481E+00
DAV:   9    -0.218167239930E+02    0.11586E-01   -0.22154E-01  6048   0.225E+00    0.324E+00
DAV:  10    -0.218113160118E+02    0.54080E-02   -0.34200E-02  4856   0.110E+00    0.659E-01
DAV:  11    -0.218114410490E+02   -0.12504E-03   -0.25459E-03  5640   0.318E-01    0.284E-01
DAV:  12    -0.218113130862E+02    0.12796E-03   -0.64548E-04  5496   0.140E-01    0.451E-02
DAV:  13    -0.218113144378E+02   -0.13517E-05   -0.14495E-04  6432   0.644E-02    0.229E-02
DAV:  14    -0.218113129124E+02    0.15255E-05   -0.13951E-05  5192   0.210E-02    0.245E-02
DAV:  15    -0.218113126607E+02    0.25171E-06   -0.17426E-06  6592   0.753E-03    0.102E-03
DAV:  16    -0.218113126589E+02    0.17844E-08   -0.14484E-07  3432   0.217E-03
   1 F= -.21811313E+02 E0= -.21811230E+02  d E =-.165278E-03
