 vasp.6.0.8 29Jun18 (build Jun 13 2019 12:54:44) complex

 executed on      IFC18_CrayMPICH date 2021.12.05  14:21:47
 running   64 mpi-ranks, with    1 threads/rank
 distrk:  each k-point on   16 cores,    4 groups
 distr:  one band on NCORES_PER_BAND=   4 cores,    4 groups


--------------------------------------------------------------------------------------------------------


 INCAR:
 POTCAR:    PAW_PBE Th 07Sep2000
 POTCAR:    PAW_PBE Bi_d 06Sep2000
 POTCAR:    PAW_PBE Pt 04Feb2005
 POTCAR:    PAW_PBE Th 07Sep2000
   VRHFIN =Th:  [Xe,5d,4f]
   LEXCH  = PE
   EATOM  =   984.7553 eV,   72.3775 Ry

   TITEL  = PAW_PBE Th 07Sep2000
   LULTRA =        F    use ultrasoft PP ?
   IUNSCR =        1    unscreen: 0-lin 1-nonlin 2-no
   RPACOR =    2.200    partial core radius
   POMASS =  232.039; ZVAL   =   12.000    mass and valenz
   RCORE  =    2.800    outmost cutoff radius
   RWIGS  =    3.000; RWIGS  =    1.588    wigner-seitz radius (au A)
   ENMAX  =  247.306; ENMIN  =  185.480 eV
   RCLOC  =    2.211    cutoff for local pot
   LCOR   =        T    correct aug charges
   LPAW   =        T    paw PP
   EAUG   =  535.431
   DEXC   =    0.000
   RMAX   =    2.862    core radius for proj-oper
   RAUG   =    1.300    factor for augmentation sphere
   RDEP   =    2.926    radius for radial grids
   RDEPT  =    2.250    core radius for aug-charge

   Atomic configuration
   18 entries
     n  l   j            E        occ.
     1  0  0.50   -109990.1879   2.0000
     2  0  0.50    -20388.0147   2.0000
     2  1  1.50    -17049.6156   6.0000
     3  0  0.50     -5106.5436   2.0000
     3  1  1.50     -4175.1262   6.0000
     3  2  2.50     -3342.8437  10.0000
     4  0  0.50     -1280.8211   2.0000
     4  1  1.50      -976.4859   6.0000
     4  2  2.50      -661.8358  10.0000
     4  3  3.50      -324.9124  14.0000
     5  0  0.50      -278.7726   2.0000
     5  1  1.50      -186.2212   6.0000
     5  2  2.50       -86.9031  10.0000
     6  0  0.50       -43.3059   2.0000
     7  0  0.50        -4.0783   2.0000
     6  1  1.50       -21.4071   6.0000
     6  2  1.50        -2.3664   1.0000
     5  3  2.50        -1.2804   1.0000
   Description
     l       E           TYP  RCUT    TYP  RCUT
     0    -43.3059201     23  2.800
     0     -4.0782900     23  2.800
     1    -21.4071032     23  2.500
     1    -22.7676858     23  2.500
     2     -2.3664170     23  2.500
     2      3.0546543     23  2.500
     3     -1.2803910     23  2.800
     3      0.1360583     23  2.800
  local pseudopotential read in
  partial core-charges read in
  partial kinetic energy density read in
  atomic valenz-charges read in
  non local Contribution for L=           0  read in
    real space projection operators read in
  non local Contribution for L=           0  read in
    real space projection operators read in
  non local Contribution for L=           1  read in
    real space projection operators read in
  non local Contribution for L=           1  read in
    real space projection operators read in
  non local Contribution for L=           2  read in
    real space projection operators read in
  non local Contribution for L=           2  read in
    real space projection operators read in
  non local Contribution for L=           3  read in
    real space projection operators read in
  non local Contribution for L=           3  read in
    real space projection operators read in
    PAW grid and wavefunctions read in

   number of l-projection  operators is LMAX  =           8
   number of lm-projection operators is LMMAX =          32

 POTCAR:    PAW_PBE Bi_d 06Sep2000
   VRHFIN =Bi:
   LEXCH  = PE
   EATOM  =  1959.2045 eV,  143.9975 Ry

   TITEL  = PAW_PBE Bi_d 06Sep2000
   LULTRA =        F    use ultrasoft PP ?
   IUNSCR =        1    unscreen: 0-lin 1-nonlin 2-no
   RPACOR =    2.200    partial core radius
   POMASS =  208.980; ZVAL   =   15.000    mass and valenz
   RCORE  =    2.500    outmost cutoff radius
   RWIGS  =    3.090; RWIGS  =    1.635    wigner-seitz radius (au A)
   ENMAX  =  242.839; ENMIN  =  182.129 eV
   ICORE  =        3    local potential
   LCOR   =        T    correct aug charges
   LPAW   =        T    paw PP
   EAUG   =  442.899
   DEXC   =    0.000
   RMAX   =    2.551    core radius for proj-oper
   RAUG   =    1.300    factor for augmentation sphere
   RDEP   =    2.650    radius for radial grids
   RDEPT  =    2.039    core radius for aug-charge

   Atomic configuration
   16 entries
     n  l   j            E        occ.
     1  0  0.50    -90639.6581   2.0000
     2  0  0.50    -16282.4666   2.0000
     2  1  1.50    -13922.8286   6.0000
     3  0  0.50     -3930.4763   2.0000
     3  1  1.50     -3256.7013   6.0000
     3  2  2.50     -2581.6168  10.0000
     4  0  0.50      -902.2614   2.0000
     4  1  1.50      -681.5915   6.0000
     4  2  2.50      -429.8249  10.0000
     4  3  3.50      -152.6004  14.0000
     5  0  0.50      -157.7156   2.0000
     5  1  1.50       -95.8054   6.0000
     5  2  2.50       -27.0806  10.0000
     6  0  0.50       -14.4732   2.0000
     6  1  1.50        -4.5702   3.0000
     5  3  2.50        -2.7212   0.0000
   Description
     l       E           TYP  RCUT    TYP  RCUT
     2    -27.0805982     23  2.500
     2     -1.3605826     23  2.500
     0    -14.4732271     23  2.500
     0      6.8029130     23  2.500
     1     -4.5701651     23  2.500
     1     13.6058260     23  2.500
     3     -1.3605826      7  2.500
  local pseudopotential read in
  partial core-charges read in
  partial kinetic energy density read in
  atomic valenz-charges read in
  non local Contribution for L=           2  read in
    real space projection operators read in
  non local Contribution for L=           2  read in
    real space projection operators read in
  non local Contribution for L=           0  read in
    real space projection operators read in
  non local Contribution for L=           0  read in
    real space projection operators read in
  non local Contribution for L=           1  read in
    real space projection operators read in
  non local Contribution for L=           1  read in
    real space projection operators read in
    PAW grid and wavefunctions read in

   number of l-projection  operators is LMAX  =           6
   number of lm-projection operators is LMMAX =          18

 POTCAR:    PAW_PBE Pt 04Feb2005
   VRHFIN =Pt: s1d9
   LEXCH  = PE
   EATOM  =   729.1176 eV,   53.5886 Ry

   TITEL  = PAW_PBE Pt 04Feb2005
   LULTRA =        F    use ultrasoft PP ?
   IUNSCR =        1    unscreen: 0-lin 1-nonlin 2-no
   RPACOR =    2.330    partial core radius
   POMASS =  195.080; ZVAL   =   10.000    mass and valenz
   RCORE  =    2.600    outmost cutoff radius
   RWIGS  =    2.750; RWIGS  =    1.455    wigner-seitz radius (au A)
   ENMAX  =  230.283; ENMIN  =  172.712 eV
   ICORE  =        3    local potential
   LCOR   =        T    correct aug charges
   LPAW   =        T    paw PP
   EAUG   =  358.966
   DEXC   =    0.000
   RMAX   =    2.658    core radius for proj-oper
   RAUG   =    1.300    factor for augmentation sphere
   RDEP   =    2.761    radius for radial grids
   RDEPT  =    2.203    core radius for aug-charge

   Atomic configuration
   16 entries
     n  l   j            E        occ.
     1  0  0.50    -78401.1885   2.0000
     2  0  0.50    -13770.7750   2.0000
     2  1  1.50    -11931.0468   6.0000
     3  0  0.50     -3234.7234   2.0000
     3  1  1.50     -2699.2216   6.0000
     3  2  2.50     -2119.5714  10.0000
     4  0  0.50      -695.1528   2.0000
     4  1  1.50      -519.6034   6.0000
     4  2  2.50      -306.6786  10.0000
     4  3  3.50       -70.1041  14.0000
     5  0  0.50      -101.7747   2.0000
     5  1  1.50       -55.9873   6.0000
     5  2  2.50        -6.1423   9.0000
     6  0  0.50        -5.6573   1.0000
     6  1  1.50        -6.8029   0.0000
     5  3  2.50        -1.3606   0.0000
   Description
     l       E           TYP  RCUT    TYP  RCUT
     2     -6.1423404     23  2.500
     2     -7.5029230     23  2.500
     0     -5.6573207     23  2.500
     0      0.7416693     23  2.500
     1     -2.7211652     23  2.600
     1     20.4087390     23  2.600
     3     -1.3605826     23  2.500
  local pseudopotential read in
  partial core-charges read in
  partial kinetic energy density read in
  atomic valenz-charges read in
  non local Contribution for L=           2  read in
    real space projection operators read in
  non local Contribution for L=           2  read in
    real space projection operators read in
  non local Contribution for L=           0  read in
    real space projection operators read in
  non local Contribution for L=           0  read in
    real space projection operators read in
  non local Contribution for L=           1  read in
    real space projection operators read in
  non local Contribution for L=           1  read in
    real space projection operators read in
    PAW grid and wavefunctions read in

   number of l-projection  operators is LMAX  =           6
   number of lm-projection operators is LMMAX =          18

 WARNING: PSMAXN for non-local potential too small
          PSMAXN should be >   13.5545592237991       NTYP=           1

 -----------------------------------------------------------------------------
|                                                                             |
|  ADVICE TO THIS USER RUNNING 'VASP/VAMP'   (HEAR YOUR MASTER'S VOICE ...):  |
|                                                                             |
|      You enforced a specific xc-type in the INCAR file,                     |
|      a different type was found on the POTCAR file                          |
|          I HOPE YOU KNOW, WHAT YOU ARE  DOING                               |
|                                                                             |
 -----------------------------------------------------------------------------

  PAW_PBE Th 07Sep2000                  :
 energy of atom  1       EATOM= -984.7553
 kinetic energy error for atom=    0.0005 (will be added to EATOM!!)
  PAW_PBE Bi_d 06Sep2000                :
 energy of atom  2       EATOM=-1959.2045
 kinetic energy error for atom=    0.0012 (will be added to EATOM!!)
  PAW_PBE Pt 04Feb2005                  :
 energy of atom  3       EATOM= -729.1176
 kinetic energy error for atom=    0.0010 (will be added to EATOM!!)


 POSCAR: Th1 Bi1 Pt1
  positions in direct lattice
  No initial velocities read in
 exchange correlation table for  LEXCH =       14
   RHO(1)=    0.500       N(1)  =     2000
   RHO(2)=  100.500       N(2)  =     4000



--------------------------------------------------------------------------------------------------------


 ion  position               nearest neighbor table
   1  0.250  0.250  0.250-   3 3.01   3 3.01   3 3.01   3 3.01   2 3.47   2 3.47   2 3.47   2 3.47
                             2 3.47   2 3.47
   2  0.750  0.750  0.750-   3 3.01   3 3.01   3 3.01   3 3.01   1 3.47   1 3.47   1 3.47   1 3.47
                             1 3.47   1 3.47
   3  0.000  0.000  0.000-   2 3.01   2 3.01   2 3.01   1 3.01   2 3.01   1 3.01   1 3.01   1 3.01


  LATTYP: Found a face centered cubic cell.
 ALAT       =     6.9398562052

  Lattice vectors:

 A1 = (   0.0000000000,   3.4699281026,   3.4699281026)
 A2 = (   3.4699281026,   0.0000000000,   3.4699281026)
 A3 = (   3.4699281026,   3.4699281026,   0.0000000000)


Analysis of symmetry for initial positions (statically):
=====================================================================
 Subroutine PRICEL returns:
 Original cell was already a primitive cell.


 Routine SETGRP: Setting up the symmetry group for a
 face centered cubic supercell.


 Subroutine GETGRP returns: Found 24 space group operations
 (whereof 24 operations were pure point group operations)
 out of a pool of 48 trial point group operations.


The static configuration has the point symmetry T_d .


Analysis of symmetry for dynamics (positions and initial velocities):
=====================================================================
 Subroutine PRICEL returns:
 Original cell was already a primitive cell.


 Routine SETGRP: Setting up the symmetry group for a
 face centered cubic supercell.


 Subroutine GETGRP returns: Found 24 space group operations
 (whereof 24 operations were pure point group operations)
 out of a pool of 48 trial point group operations.


The dynamic configuration has the point symmetry T_d .


 Subroutine INISYM returns: Found 24 space group operations
 (whereof 24 operations are pure point group operations),
 and found     1 'primitive' translations


----------------------------------------------------------------------------------------

                                     Primitive cell

  volume of cell :      83.5587

  direct lattice vectors                    reciprocal lattice vectors
     0.000000000  3.469928103  3.469928103    -0.144095205  0.144095205  0.144095205
     3.469928103  0.000000000  3.469928103     0.144095205 -0.144095205  0.144095205
     3.469928103  3.469928103  0.000000000     0.144095205  0.144095205 -0.144095205

  length of vectors
     4.907219383  4.907219383  4.907219383     0.249580216  0.249580216  0.249580216

  position of ions in fractional coordinates (direct lattice)
     0.250000000  0.250000000  0.250000000
     0.750000000  0.750000000  0.750000000
     0.000000000  0.000000000  0.000000000

  ion indices of the primitive-cell ions
   primitive index   ion index
                 1           1
                 2           2
                 3           3

----------------------------------------------------------------------------------------



 KPOINTS: KPOINTS

Automatic generation of k-mesh.
Space group operators:
 irot       det(A)        alpha          n_x          n_y          n_z        tau_x        tau_y        tau_z
    1     1.000000     0.000000     1.000000     0.000000     0.000000     0.000000     0.000000     0.000000
    2     1.000000   120.000000    -0.577350    -0.577350    -0.577350     0.000000     0.000000     0.000000
    3     1.000000   120.000000     0.577350     0.577350     0.577350     0.000000     0.000000     0.000000
    4    -1.000000    90.000000     0.000000     0.000000    -1.000000     0.000000     0.000000     0.000000
    5    -1.000000   180.000000    -0.000000     0.707107     0.707107     0.000000     0.000000     0.000000
    6    -1.000000    90.000000     0.000000     1.000000     0.000000     0.000000     0.000000     0.000000
    7     1.000000   180.000000     0.000000     0.000000     1.000000     0.000000     0.000000     0.000000
    8     1.000000   120.000000    -0.577350     0.577350     0.577350     0.000000     0.000000     0.000000
    9     1.000000   120.000000    -0.577350     0.577350    -0.577350     0.000000     0.000000     0.000000
   10    -1.000000    90.000000     0.000000     0.000000     1.000000     0.000000     0.000000     0.000000
   11    -1.000000    90.000000    -1.000000    -0.000000     0.000000     0.000000     0.000000     0.000000
   12    -1.000000   180.000000     0.707107     0.000000     0.707107     0.000000     0.000000     0.000000
   13     1.000000   120.000000     0.577350    -0.577350     0.577350     0.000000     0.000000     0.000000
   14     1.000000   120.000000    -0.577350    -0.577350     0.577350     0.000000     0.000000     0.000000
   15     1.000000   180.000000     1.000000     0.000000     0.000000     0.000000     0.000000     0.000000
   16    -1.000000    90.000000     0.000000    -1.000000     0.000000     0.000000     0.000000     0.000000
   17    -1.000000   180.000000     0.707107     0.707107     0.000000     0.000000     0.000000     0.000000
   18    -1.000000    90.000000     1.000000    -0.000000    -0.000000     0.000000     0.000000     0.000000
   19     1.000000   120.000000     0.577350    -0.577350    -0.577350     0.000000     0.000000     0.000000
   20     1.000000   180.000000    -0.000000    -1.000000    -0.000000     0.000000     0.000000     0.000000
   21     1.000000   120.000000     0.577350     0.577350    -0.577350     0.000000     0.000000     0.000000
   22    -1.000000   180.000000     0.000000    -0.707107     0.707107     0.000000     0.000000     0.000000
   23    -1.000000   180.000000     0.707107    -0.707107     0.000000     0.000000     0.000000     0.000000
   24    -1.000000   180.000000     0.707107     0.000000    -0.707107     0.000000     0.000000     0.000000

 Subroutine IBZKPT returns following result:
 ===========================================

 Found     84 irreducible k-points:

 Following reciprocal coordinates:
            Coordinates               Weight
  0.000000  0.000000  0.000000      1.000000
  0.076923 -0.000000  0.000000      8.000000
  0.153846 -0.000000  0.000000      8.000000
  0.230769 -0.000000  0.000000      8.000000
  0.307692 -0.000000  0.000000      8.000000
  0.384615  0.000000 -0.000000      8.000000
  0.461538  0.000000 -0.000000      8.000000
  0.076923  0.076923 -0.000000      6.000000
  0.153846  0.076923 -0.000000     24.000000
  0.230769  0.076923  0.000000     24.000000
  0.307692  0.076923 -0.000000     24.000000
  0.384615  0.076923 -0.000000     24.000000
  0.461538  0.076923  0.000000     24.000000
 -0.461538  0.076923  0.000000     24.000000
 -0.384615  0.076923  0.000000     24.000000
 -0.307692  0.076923  0.000000     24.000000
 -0.230769  0.076923  0.000000     24.000000
 -0.153846  0.076923 -0.000000     24.000000
 -0.076923  0.076923 -0.000000     12.000000
  0.153846  0.153846 -0.000000      6.000000
  0.230769  0.153846 -0.000000     24.000000
  0.307692  0.153846 -0.000000     24.000000
  0.384615  0.153846 -0.000000     24.000000
  0.461538  0.153846 -0.000000     24.000000
 -0.461538  0.153846 -0.000000     24.000000
 -0.384615  0.153846  0.000000     24.000000
 -0.307692  0.153846  0.000000     24.000000
 -0.230769  0.153846  0.000000     24.000000
 -0.153846  0.153846 -0.000000     12.000000
  0.230769  0.230769 -0.000000      6.000000
  0.307692  0.230769 -0.000000     24.000000
  0.384615  0.230769 -0.000000     24.000000
  0.461538  0.230769 -0.000000     24.000000
 -0.461538  0.230769 -0.000000     24.000000
 -0.384615  0.230769  0.000000     24.000000
 -0.307692  0.230769  0.000000     24.000000
 -0.230769  0.230769 -0.000000     12.000000
  0.307692  0.307692 -0.000000      6.000000
  0.384615  0.307692 -0.000000     24.000000
  0.461538  0.307692 -0.000000     24.000000
 -0.461538  0.307692  0.000000     24.000000
 -0.384615  0.307692 -0.000000     24.000000
 -0.307692  0.307692 -0.000000     12.000000
  0.384615  0.384615 -0.000000      6.000000
  0.461538  0.384615 -0.000000     24.000000
 -0.461538  0.384615 -0.000000     24.000000
 -0.384615  0.384615  0.000000     12.000000
  0.461538  0.461538 -0.000000      6.000000
 -0.461538  0.461538  0.000000     12.000000
  0.230769  0.153846  0.076923     24.000000
  0.307692  0.153846  0.076923     48.000000
  0.384615  0.153846  0.076923     48.000000
  0.461538  0.153846  0.076923     48.000000
 -0.461538  0.153846  0.076923     48.000000
  0.307692  0.230769  0.076923     24.000000
  0.384615  0.230769  0.076923     48.000000
  0.461538  0.230769  0.076923     48.000000
 -0.461538  0.230769  0.076923     48.000000
 -0.384615  0.230769  0.076923     48.000000
 -0.307692  0.230769  0.076923     48.000000
 -0.230769  0.230769  0.076923     48.000000
 -0.153846  0.230769  0.076923     24.000000
  0.384615  0.307692  0.076923     24.000000
  0.461538  0.307692  0.076923     48.000000
 -0.461538  0.307692  0.076923     48.000000
 -0.384615  0.307692  0.076923     48.000000
 -0.307692  0.307692  0.076923     48.000000
 -0.230769  0.307692  0.076923     24.000000
  0.461538  0.384615  0.076923     24.000000
 -0.461538  0.384615  0.076923     48.000000
 -0.384615  0.384615  0.076923     48.000000
 -0.307692  0.384615  0.076923     24.000000
 -0.461538  0.461538  0.076923     24.000000
 -0.384615  0.461538  0.076923     24.000000
  0.461538  0.307692  0.153846     24.000000
 -0.461538  0.307692  0.153846     48.000000
 -0.384615  0.307692  0.153846     48.000000
 -0.461538  0.384615  0.153846     24.000000
 -0.384615  0.384615  0.153846     48.000000
 -0.307692  0.384615  0.153846     48.000000
 -0.230769  0.384615  0.153846     24.000000
 -0.384615  0.461538  0.153846     24.000000
 -0.307692  0.461538  0.153846     24.000000
 -0.307692  0.461538  0.230769     24.000000

 Following cartesian coordinates:
            Coordinates               Weight
  0.000000  0.000000  0.000000      1.000000
 -0.011230  0.011230  0.011230      8.000000
 -0.022460  0.022460  0.022460      8.000000
 -0.033690  0.033690  0.033690      8.000000
 -0.044920  0.044920  0.044920      8.000000
 -0.056151  0.056151  0.056151      8.000000
 -0.067381  0.067381  0.067381      8.000000
  0.000000 -0.000000  0.022460      6.000000
 -0.011230  0.011230  0.033690     24.000000
 -0.022460  0.022460  0.044920     24.000000
 -0.033690  0.033690  0.056151     24.000000
 -0.044920  0.044920  0.067381     24.000000
 -0.056151  0.056151  0.078611     24.000000
  0.078611 -0.078611 -0.056151     24.000000
  0.067381 -0.067381 -0.044920     24.000000
  0.056151 -0.056151 -0.033690     24.000000
  0.044920 -0.044920 -0.022460     24.000000
  0.033690 -0.033690 -0.011230     24.000000
  0.022460 -0.022460  0.000000     12.000000
 -0.000000 -0.000000  0.044920      6.000000
 -0.011230  0.011230  0.056151     24.000000
 -0.022460  0.022460  0.067381     24.000000
 -0.033690  0.033690  0.078611     24.000000
 -0.044920  0.044920  0.089841     24.000000
  0.089841 -0.089841 -0.044920     24.000000
  0.078611 -0.078611 -0.033690     24.000000
  0.067381 -0.067381 -0.022460     24.000000
  0.056151 -0.056151 -0.011230     24.000000
  0.044920 -0.044920  0.000000     12.000000
 -0.000000 -0.000000  0.067381      6.000000
 -0.011230  0.011230  0.078611     24.000000
 -0.022460  0.022460  0.089841     24.000000
 -0.033690  0.033690  0.101071     24.000000
  0.101071 -0.101071 -0.033690     24.000000
  0.089841 -0.089841 -0.022460     24.000000
  0.078611 -0.078611 -0.011230     24.000000
  0.067381 -0.067381  0.000000     12.000000
 -0.000000 -0.000000  0.089841      6.000000
 -0.011230  0.011230  0.101071     24.000000
 -0.022460  0.022460  0.112301     24.000000
  0.112301 -0.112301 -0.022460     24.000000
  0.101071 -0.101071 -0.011230     24.000000
  0.089841 -0.089841  0.000000     12.000000
 -0.000000  0.000000  0.112301      6.000000
 -0.011230  0.011230  0.123531     24.000000
  0.123531 -0.123531 -0.011230     24.000000
  0.112301 -0.112301 -0.000000     12.000000
 -0.000000  0.000000  0.134761      6.000000
  0.134761 -0.134761 -0.000000     12.000000
 -0.000000  0.022460  0.044920     24.000000
 -0.011230  0.033690  0.056151     48.000000
 -0.022460  0.044920  0.067381     48.000000
 -0.033690  0.056151  0.078611     48.000000
  0.101071 -0.078611 -0.056151     48.000000
  0.000000  0.022460  0.067381     24.000000
 -0.011230  0.033690  0.078611     48.000000
 -0.022460  0.044920  0.089841     48.000000
  0.112301 -0.089841 -0.044920     48.000000
  0.101071 -0.078611 -0.033690     48.000000
  0.089841 -0.067381 -0.022460     48.000000
  0.078611 -0.056151 -0.011230     48.000000
  0.067381 -0.044920  0.000000     24.000000
  0.000000  0.022460  0.089841     24.000000
 -0.011230  0.033690  0.101071     48.000000
  0.123531 -0.101071 -0.033690     48.000000
  0.112301 -0.089841 -0.022460     48.000000
  0.101071 -0.078611 -0.011230     48.000000
  0.089841 -0.067381 -0.000000     24.000000
  0.000000  0.022460  0.112301     24.000000
  0.134761 -0.112301 -0.022460     48.000000
  0.123531 -0.101071 -0.011230     48.000000
  0.112301 -0.089841 -0.000000     24.000000
  0.145991 -0.123531 -0.011230     24.000000
  0.134761 -0.112301 -0.000000     24.000000
 -0.000000  0.044920  0.089841     24.000000
  0.134761 -0.089841 -0.044920     48.000000
  0.123531 -0.078611 -0.033690     48.000000
  0.145991 -0.101071 -0.033690     24.000000
  0.134761 -0.089841 -0.022460     48.000000
  0.123531 -0.078611 -0.011230     48.000000
  0.112301 -0.067381  0.000000     24.000000
  0.145991 -0.101071 -0.011230     24.000000
  0.134761 -0.089841 -0.000000     24.000000
  0.145991 -0.078611 -0.011230     24.000000



--------------------------------------------------------------------------------------------------------




 Dimension of arrays:
   k-points           NKPTS =     84   k-points in BZ     NKDIM =     84   number of bands    NBANDS=     24
   number of dos      NEDOS =    301   number of ions     NIONS =      3
   non local maximal  LDIM  =      8   non local SUM 2l+1 LMDIM =     32
   total plane-waves  NPLWV =  74088
   max r-space proj   IRMAX =      1   max aug-charges    IRDMAX= 429770
   dimension x,y,z NGX =    42 NGY =   42 NGZ =   42
   dimension x,y,z NGXF=    84 NGYF=   84 NGZF=   84
   support grid    NGXF=   168 NGYF=  168 NGZF=  168
   ions per type =               1   1   1
   NGX,Y,Z   is equivalent  to a cutoff of  14.23, 14.23, 14.23 a.u.
   NGXF,Y,Z  is equivalent  to a cutoff of  28.46, 28.46, 28.46 a.u.

 SYSTEM =  unknown system
 POSCAR =  Th1 Bi1 Pt1

 Startparameter for this run:
   NWRITE =      2    write-flag & timer
   PREC   = acc       normal or accurate (medium, high low for compatibility)
   ISTART =      0    job   : 0-new  1-cont  2-samecut
   ICHARG =      2    charge: 1-file 2-atom 10-const
   ISPIN  =      1    spin polarized calculation?
   LNONCOLLINEAR =      F non collinear calculations
   LSORBIT =      F    spin-orbit coupling
   INIWAV =      1    electr: 0-lowe 1-rand  2-diag
   LASPH  =      F    aspherical Exc in radial PAW
   METAGGA=      F    non-selfconsistent MetaGGA calc.

 Electronic Relaxation 1
   ENCUT  =  700.0 eV  51.45 Ry    7.17 a.u.  10.59 10.59 10.59*2*pi/ulx,y,z
   ENINI  =  700.0     initial cutoff
   ENAUG  =  535.4 eV  augmentation charge cutoff
   NELM   =     60;   NELMIN=  5; NELMDL= -5     # of ELM steps
   EDIFF  = 0.1E-06   stopping-criterion for ELM
   LREAL  =      F    real-space projection
   NLSPLINE    = F    spline interpolate recip. space projectors
   LCOMPAT=      F    compatible to vasp.4.4
   GGA_COMPAT  = T    GGA compatible to vasp.4.4-vasp.4.6
   LMAXPAW     = -100 max onsite density
   LMAXMIX     =    2 max onsite mixed and CHGCAR
   VOSKOWN=      0    Vosko Wilk Nusair interpolation
   ROPT   =    0.00000   0.00000   0.00000
 Ionic relaxation
   EDIFFG = 0.1E-05   stopping-criterion for IOM
   NSW    =      0    number of steps for IOM
   NBLOCK =      1;   KBLOCK =      1    inner block; outer block
   IBRION =     -1    ionic relax: 0-MD 1-quasi-New 2-CG
   NFREE  =      0    steps in history (QN), initial steepest desc. (CG)
   ISIF   =      3    stress and relaxation
   IWAVPR =     10    prediction:  0-non 1-charg 2-wave 3-comb
   ISYM   =      2    0-nonsym 1-usesym 2-fastsym
   LCORR  =      T    Harris-Foulkes like correction to forces

   POTIM  = 0.5000    time-step for ionic-motion
   TEIN   =    0.0    initial temperature
   TEBEG  =    0.0;   TEEND  =   0.0 temperature during run
   SMASS  =  -3.00    Nose mass-parameter (am)
   estimated Nose-frequenzy (Omega)   =  0.10E-29 period in steps = 0.13E+47 mass=  -0.550E-27a.u.
   SCALEE = 1.0000    scale energy and forces
   NPACO  =    256;   APACO  = 16.0  distance and # of slots for P.C.
   PSTRESS=    0.0 pullay stress

  Mass of Ions in am
   POMASS = 232.04208.98195.08
  Ionic Valenz
   ZVAL   =  12.00 15.00 10.00
  Atomic Wigner-Seitz radii
   RWIGS  =  -1.00 -1.00 -1.00
  virtual crystal weights
   VCA    =   1.00  1.00  1.00
   NELECT =      37.0000    total number of electrons
   NUPDOWN=      -1.0000    fix difference up-down

 DOS related values:
   EMIN   =  10.00;   EMAX   =-10.00  energy-range for DOS
   EFERMI =   0.00
   ISMEAR =     0;   SIGMA  =   0.01  broadening in eV -4-tet -1-fermi 0-gaus

 Electronic relaxation 2 (details)
   IALGO  =     38    algorithm
   LDIAG  =      T    sub-space diagonalisation (order eigenvalues)
   LSUBROT=      F    optimize rotation matrix (better conditioning)
   TURBO    =      0    0=normal 1=particle mesh
   IRESTART =      0    0=no restart 2=restart with 2 vectors
   NREBOOT  =      0    no. of reboots
   NMIN     =      0    reboot dimension
   EREF     =   0.00    reference energy to select bands
   IMIX   =      4    mixing-type and parameters
     AMIX     =   0.40;   BMIX     =  1.00
     AMIX_MAG =   1.60;   BMIX_MAG =  1.00
     AMIN     =   0.10
     WC   =   100.;   INIMIX=   1;  MIXPRE=   1;  MAXMIX= -45

 Intra band minimization:
   WEIMIN = 0.0000     energy-eigenvalue tresh-hold
   EBREAK =  0.10E-08  absolut break condition
   DEPER  =   0.30     relativ break condition

   TIME   =   0.40     timestep for ELM

  volume/ion in A,a.u.               =      27.85       187.96
  Fermi-wavevector in a.u.,A,eV,Ry     =   1.247800  2.358000 21.184332  1.557004
  Thomas-Fermi vector in A             =   2.381916

 Write flags
   LWAVE        =      F    write WAVECAR
   LDOWNSAMPLE  =      F    k-point downsampling of WAVECAR
   LCHARG       =      F    write CHGCAR
   LVTOT        =      F    write LOCPOT, total local potential
   LVHAR        =      F    write LOCPOT, Hartree potential only
   LELF         =      F    write electronic localiz. function (ELF)
   LORBIT       =      0    0 simple, 1 ext, 2 COOP (PROOUT), +10 PAW based schemes


 Dipole corrections
   LMONO  =      F    monopole corrections only (constant potential shift)
   LDIPOL =      F    correct potential (dipole corrections)
   IDIPOL =      0    1-x, 2-y, 3-z, 4-all directions
   EPSILON=  1.0000000 bulk dielectric constant

 Exchange correlation treatment:
   GGA     =    PS    GGA type
   LEXCH   =    14    internal setting for exchange type
   VOSKOWN=      0    Vosko Wilk Nusair interpolation
   LHFCALC =     F    Hartree Fock is set to
   LHFONE  =     F    Hartree Fock one center treatment
   AEXX    =    0.0000 exact exchange contribution

 Linear response parameters
   LEPSILON=     F    determine dielectric tensor
   LRPA    =     F    only Hartree local field effects (RPA)
   LNABLA  =     F    use nabla operator in PAW spheres
   LVEL    =     F    velocity operator in full k-point grid
   LINTERFAST=   F  fast interpolation
   KINTER  =     0    interpolate to denser k-point grid
   CSHIFT  =0.1000    complex shift for real part using Kramers Kronig
   OMEGAMAX=  -1.0    maximum frequency
   DEG_THRESHOLD= 0.2000000E-02 threshold for treating states as degnerate
   RTIME   =   -0.100 relaxation time in fs
  (WPLASMAI=    0.000 imaginary part of plasma frequency in eV, 0.658/RTIME)
   DFIELD  = 0.0000000 0.0000000 0.0000000 field for delta impulse in time

 Orbital magnetization related:
   ORBITALMAG=     F  switch on orbital magnetization
   LCHIMAG   =     F  perturbation theory with respect to B field
   DQ        =  0.001000  dq finite difference perturbation B field
   LLRAUG    =     F  two centre corrections for induced B field



--------------------------------------------------------------------------------------------------------


 Static calculation
 charge density and potential will be updated during run
 non-spin polarized calculation
 Variant of blocked Davidson
 Davidson routine will perform the subspace rotation
 perform sub-space diagonalisation
    after iterative eigenvector-optimisation
 modified Broyden-mixing scheme, WC =      100.0
 initial mixing is a Kerker type mixing with AMIX =  0.4000 and BMIX =      1.0000
 Hartree-type preconditioning will be used
 using additional bands            5
 reciprocal scheme for non local part
 use partial core corrections
 calculate Harris-corrections to forces
   (improved forces if not selfconsistent)
 use gradient corrections
 use of overlap-Matrix (Vanderbilt PP)
 Gauss-broadening in eV      SIGMA  =   0.01


--------------------------------------------------------------------------------------------------------


  energy-cutoff  :      700.00
  volume of cell :       83.56
      direct lattice vectors                 reciprocal lattice vectors
     0.000000000  3.469928103  3.469928103    -0.144095205  0.144095205  0.144095205
     3.469928103  0.000000000  3.469928103     0.144095205 -0.144095205  0.144095205
     3.469928103  3.469928103  0.000000000     0.144095205  0.144095205 -0.144095205

  length of vectors
     4.907219383  4.907219383  4.907219383     0.249580216  0.249580216  0.249580216



 k-points in units of 2pi/SCALE and weight: KPOINTS
   0.00000000  0.00000000  0.00000000       0.000
  -0.01123011  0.01123011  0.01123011       0.004
  -0.02246022  0.02246022  0.02246022       0.004
  -0.03369033  0.03369033  0.03369033       0.004
  -0.04492043  0.04492043  0.04492043       0.004
  -0.05615054  0.05615054  0.05615054       0.004
  -0.06738065  0.06738065  0.06738065       0.004
   0.00000000 -0.00000000  0.02246022       0.003
  -0.01123011  0.01123011  0.03369033       0.011
  -0.02246022  0.02246022  0.04492043       0.011
  -0.03369033  0.03369033  0.05615054       0.011
  -0.04492043  0.04492043  0.06738065       0.011
  -0.05615054  0.05615054  0.07861076       0.011
   0.07861076 -0.07861076 -0.05615054       0.011
   0.06738065 -0.06738065 -0.04492043       0.011
   0.05615054 -0.05615054 -0.03369033       0.011
   0.04492043 -0.04492043 -0.02246022       0.011
   0.03369033 -0.03369033 -0.01123011       0.011
   0.02246022 -0.02246022  0.00000000       0.005
  -0.00000000 -0.00000000  0.04492043       0.003
  -0.01123011  0.01123011  0.05615054       0.011
  -0.02246022  0.02246022  0.06738065       0.011
  -0.03369033  0.03369033  0.07861076       0.011
  -0.04492043  0.04492043  0.08984087       0.011
   0.08984087 -0.08984087 -0.04492043       0.011
   0.07861076 -0.07861076 -0.03369033       0.011
   0.06738065 -0.06738065 -0.02246022       0.011
   0.05615054 -0.05615054 -0.01123011       0.011
   0.04492043 -0.04492043  0.00000000       0.005
  -0.00000000 -0.00000000  0.06738065       0.003
  -0.01123011  0.01123011  0.07861076       0.011
  -0.02246022  0.02246022  0.08984087       0.011
  -0.03369033  0.03369033  0.10107098       0.011
   0.10107098 -0.10107098 -0.03369033       0.011
   0.08984087 -0.08984087 -0.02246022       0.011
   0.07861076 -0.07861076 -0.01123011       0.011
   0.06738065 -0.06738065  0.00000000       0.005
  -0.00000000 -0.00000000  0.08984087       0.003
  -0.01123011  0.01123011  0.10107098       0.011
  -0.02246022  0.02246022  0.11230109       0.011
   0.11230109 -0.11230109 -0.02246022       0.011
   0.10107098 -0.10107098 -0.01123011       0.011
   0.08984087 -0.08984087  0.00000000       0.005
  -0.00000000  0.00000000  0.11230109       0.003
  -0.01123011  0.01123011  0.12353119       0.011
   0.12353119 -0.12353119 -0.01123011       0.011
   0.11230109 -0.11230109 -0.00000000       0.005
  -0.00000000  0.00000000  0.13476130       0.003
   0.13476130 -0.13476130 -0.00000000       0.005
  -0.00000000  0.02246022  0.04492043       0.011
  -0.01123011  0.03369033  0.05615054       0.022
  -0.02246022  0.04492043  0.06738065       0.022
  -0.03369033  0.05615054  0.07861076       0.022
   0.10107098 -0.07861076 -0.05615054       0.022
   0.00000000  0.02246022  0.06738065       0.011
  -0.01123011  0.03369033  0.07861076       0.022
  -0.02246022  0.04492043  0.08984087       0.022
   0.11230109 -0.08984087 -0.04492043       0.022
   0.10107098 -0.07861076 -0.03369033       0.022
   0.08984087 -0.06738065 -0.02246022       0.022
   0.07861076 -0.05615054 -0.01123011       0.022
   0.06738065 -0.04492043  0.00000000       0.011
   0.00000000  0.02246022  0.08984087       0.011
  -0.01123011  0.03369033  0.10107098       0.022
   0.12353119 -0.10107098 -0.03369033       0.022
   0.11230109 -0.08984087 -0.02246022       0.022
   0.10107098 -0.07861076 -0.01123011       0.022
   0.08984087 -0.06738065 -0.00000000       0.011
   0.00000000  0.02246022  0.11230109       0.011
   0.13476130 -0.11230109 -0.02246022       0.022
   0.12353119 -0.10107098 -0.01123011       0.022
   0.11230109 -0.08984087 -0.00000000       0.011
   0.14599141 -0.12353119 -0.01123011       0.011
   0.13476130 -0.11230109 -0.00000000       0.011
  -0.00000000  0.04492043  0.08984087       0.011
   0.13476130 -0.08984087 -0.04492043       0.022
   0.12353119 -0.07861076 -0.03369033       0.022
   0.14599141 -0.10107098 -0.03369033       0.011
   0.13476130 -0.08984087 -0.02246022       0.022
   0.12353119 -0.07861076 -0.01123011       0.022
   0.11230109 -0.06738065  0.00000000       0.011
   0.14599141 -0.10107098 -0.01123011       0.011
   0.13476130 -0.08984087 -0.00000000       0.011
   0.14599141 -0.07861076 -0.01123011       0.011

 k-points in reciprocal lattice and weights: KPOINTS
   0.00000000  0.00000000  0.00000000       0.000
   0.07692308 -0.00000000  0.00000000       0.004
   0.15384615 -0.00000000  0.00000000       0.004
   0.23076923 -0.00000000  0.00000000       0.004
   0.30769231 -0.00000000  0.00000000       0.004
   0.38461538  0.00000000 -0.00000000       0.004
   0.46153846  0.00000000 -0.00000000       0.004
   0.07692308  0.07692308 -0.00000000       0.003
   0.15384615  0.07692308 -0.00000000       0.011
   0.23076923  0.07692308  0.00000000       0.011
   0.30769231  0.07692308 -0.00000000       0.011
   0.38461538  0.07692308 -0.00000000       0.011
   0.46153846  0.07692308  0.00000000       0.011
  -0.46153846  0.07692308  0.00000000       0.011
  -0.38461538  0.07692308  0.00000000       0.011
  -0.30769231  0.07692308  0.00000000       0.011
  -0.23076923  0.07692308  0.00000000       0.011
  -0.15384615  0.07692308 -0.00000000       0.011
  -0.07692308  0.07692308 -0.00000000       0.005
   0.15384615  0.15384615 -0.00000000       0.003
   0.23076923  0.15384615 -0.00000000       0.011
   0.30769231  0.15384615 -0.00000000       0.011
   0.38461538  0.15384615 -0.00000000       0.011
   0.46153846  0.15384615 -0.00000000       0.011
  -0.46153846  0.15384615 -0.00000000       0.011
  -0.38461538  0.15384615  0.00000000       0.011
  -0.30769231  0.15384615  0.00000000       0.011
  -0.23076923  0.15384615  0.00000000       0.011
  -0.15384615  0.15384615 -0.00000000       0.005
   0.23076923  0.23076923 -0.00000000       0.003
   0.30769231  0.23076923 -0.00000000       0.011
   0.38461538  0.23076923 -0.00000000       0.011
   0.46153846  0.23076923 -0.00000000       0.011
  -0.46153846  0.23076923 -0.00000000       0.011
  -0.38461538  0.23076923  0.00000000       0.011
  -0.30769231  0.23076923  0.00000000       0.011
  -0.23076923  0.23076923 -0.00000000       0.005
   0.30769231  0.30769231 -0.00000000       0.003
   0.38461538  0.30769231 -0.00000000       0.011
   0.46153846  0.30769231 -0.00000000       0.011
  -0.46153846  0.30769231  0.00000000       0.011
  -0.38461538  0.30769231 -0.00000000       0.011
  -0.30769231  0.30769231 -0.00000000       0.005
   0.38461538  0.38461538 -0.00000000       0.003
   0.46153846  0.38461538 -0.00000000       0.011
  -0.46153846  0.38461538 -0.00000000       0.011
  -0.38461538  0.38461538  0.00000000       0.005
   0.46153846  0.46153846 -0.00000000       0.003
  -0.46153846  0.46153846  0.00000000       0.005
   0.23076923  0.15384615  0.07692308       0.011
   0.30769231  0.15384615  0.07692308       0.022
   0.38461538  0.15384615  0.07692308       0.022
   0.46153846  0.15384615  0.07692308       0.022
  -0.46153846  0.15384615  0.07692308       0.022
   0.30769231  0.23076923  0.07692308       0.011
   0.38461538  0.23076923  0.07692308       0.022
   0.46153846  0.23076923  0.07692308       0.022
  -0.46153846  0.23076923  0.07692308       0.022
  -0.38461538  0.23076923  0.07692308       0.022
  -0.30769231  0.23076923  0.07692308       0.022
  -0.23076923  0.23076923  0.07692308       0.022
  -0.15384615  0.23076923  0.07692308       0.011
   0.38461538  0.30769231  0.07692308       0.011
   0.46153846  0.30769231  0.07692308       0.022
  -0.46153846  0.30769231  0.07692308       0.022
  -0.38461538  0.30769231  0.07692308       0.022
  -0.30769231  0.30769231  0.07692308       0.022
  -0.23076923  0.30769231  0.07692308       0.011
   0.46153846  0.38461538  0.07692308       0.011
  -0.46153846  0.38461538  0.07692308       0.022
  -0.38461538  0.38461538  0.07692308       0.022
  -0.30769231  0.38461538  0.07692308       0.011
  -0.46153846  0.46153846  0.07692308       0.011
  -0.38461538  0.46153846  0.07692308       0.011
   0.46153846  0.30769231  0.15384615       0.011
  -0.46153846  0.30769231  0.15384615       0.022
  -0.38461538  0.30769231  0.15384615       0.022
  -0.46153846  0.38461538  0.15384615       0.011
  -0.38461538  0.38461538  0.15384615       0.022
  -0.30769231  0.38461538  0.15384615       0.022
  -0.23076923  0.38461538  0.15384615       0.011
  -0.38461538  0.46153846  0.15384615       0.011
  -0.30769231  0.46153846  0.15384615       0.011
  -0.30769231  0.46153846  0.23076923       0.011

 position of ions in fractional coordinates (direct lattice)
   0.25000000  0.25000000  0.25000000
   0.75000000  0.75000000  0.75000000
   0.00000000  0.00000000  0.00000000

 position of ions in cartesian coordinates  (Angst):
   1.73496405  1.73496405  1.73496405
   5.20489215  5.20489215  5.20489215
   0.00000000  0.00000000  0.00000000



--------------------------------------------------------------------------------------------------------


 k-point  1 :   0.0000 0.0000 0.0000  plane waves:    3527
 k-point  2 :   0.0769-0.0000 0.0000  plane waves:    3524
 k-point  3 :   0.1538-0.0000 0.0000  plane waves:    3539
 k-point  4 :   0.2308-0.0000 0.0000  plane waves:    3527
 k-point  5 :   0.3077-0.0000 0.0000  plane waves:    3518
 k-point  6 :   0.3846 0.0000-0.0000  plane waves:    3501
 k-point  7 :   0.4615 0.0000-0.0000  plane waves:    3510
 k-point  8 :   0.0769 0.0769-0.0000  plane waves:    3527
 k-point  9 :   0.1538 0.0769-0.0000  plane waves:    3528
 k-point 10 :   0.2308 0.0769 0.0000  plane waves:    3524
 k-point 11 :   0.3077 0.0769-0.0000  plane waves:    3517
 k-point 12 :   0.3846 0.0769-0.0000  plane waves:    3519
 k-point 13 :   0.4615 0.0769 0.0000  plane waves:    3528
 k-point 14 :  -0.4615 0.0769 0.0000  plane waves:    3519
 k-point 15 :  -0.3846 0.0769 0.0000  plane waves:    3515
 k-point 16 :  -0.3077 0.0769 0.0000  plane waves:    3513
 k-point 17 :  -0.2308 0.0769 0.0000  plane waves:    3522
 k-point 18 :  -0.1538 0.0769-0.0000  plane waves:    3537
 k-point 19 :  -0.0769 0.0769-0.0000  plane waves:    3537
 k-point 20 :   0.1538 0.1538-0.0000  plane waves:    3543
 k-point 21 :   0.2308 0.1538-0.0000  plane waves:    3532
 k-point 22 :   0.3077 0.1538-0.0000  plane waves:    3531
 k-point 23 :   0.3846 0.1538-0.0000  plane waves:    3516
 k-point 24 :   0.4615 0.1538-0.0000  plane waves:    3519
 k-point 25 :  -0.4615 0.1538-0.0000  plane waves:    3511
 k-point 26 :  -0.3846 0.1538 0.0000  plane waves:    3516
 k-point 27 :  -0.3077 0.1538 0.0000  plane waves:    3509
 k-point 28 :  -0.2308 0.1538 0.0000  plane waves:    3521
 k-point 29 :  -0.1538 0.1538-0.0000  plane waves:    3533
 k-point 30 :   0.2308 0.2308-0.0000  plane waves:    3527
 k-point 31 :   0.3077 0.2308-0.0000  plane waves:    3529
 k-point 32 :   0.3846 0.2308-0.0000  plane waves:    3513
 k-point 33 :   0.4615 0.2308-0.0000  plane waves:    3519
 k-point 34 :  -0.4615 0.2308-0.0000  plane waves:    3521
 k-point 35 :  -0.3846 0.2308 0.0000  plane waves:    3519
 k-point 36 :  -0.3077 0.2308 0.0000  plane waves:    3515
 k-point 37 :  -0.2308 0.2308-0.0000  plane waves:    3509
 k-point 38 :   0.3077 0.3077-0.0000  plane waves:    3527
 k-point 39 :   0.3846 0.3077-0.0000  plane waves:    3509
 k-point 40 :   0.4615 0.3077-0.0000  plane waves:    3500
 k-point 41 :  -0.4615 0.3077 0.0000  plane waves:    3501
 k-point 42 :  -0.3846 0.3077-0.0000  plane waves:    3509
 k-point 43 :  -0.3077 0.3077-0.0000  plane waves:    3500
 k-point 44 :   0.3846 0.3846-0.0000  plane waves:    3503
 k-point 45 :   0.4615 0.3846-0.0000  plane waves:    3502
 k-point 46 :  -0.4615 0.3846-0.0000  plane waves:    3493
 k-point 47 :  -0.3846 0.3846 0.0000  plane waves:    3504
 k-point 48 :   0.4615 0.4615-0.0000  plane waves:    3495
 k-point 49 :  -0.4615 0.4615 0.0000  plane waves:    3514
 k-point 50 :   0.2308 0.1538 0.0769  plane waves:    3535
 k-point 51 :   0.3077 0.1538 0.0769  plane waves:    3517
 k-point 52 :   0.3846 0.1538 0.0769  plane waves:    3514
 k-point 53 :   0.4615 0.1538 0.0769  plane waves:    3524
 k-point 54 :  -0.4615 0.1538 0.0769  plane waves:    3519
 k-point 55 :   0.3077 0.2308 0.0769  plane waves:    3527
 k-point 56 :   0.3846 0.2308 0.0769  plane waves:    3514
 k-point 57 :   0.4615 0.2308 0.0769  plane waves:    3523
 k-point 58 :  -0.4615 0.2308 0.0769  plane waves:    3512
 k-point 59 :  -0.3846 0.2308 0.0769  plane waves:    3511
 k-point 60 :  -0.3077 0.2308 0.0769  plane waves:    3514
 k-point 61 :  -0.2308 0.2308 0.0769  plane waves:    3509
 k-point 62 :  -0.1538 0.2308 0.0769  plane waves:    3515
 k-point 63 :   0.3846 0.3077 0.0769  plane waves:    3511
 k-point 64 :   0.4615 0.3077 0.0769  plane waves:    3507
 k-point 65 :  -0.4615 0.3077 0.0769  plane waves:    3510
 k-point 66 :  -0.3846 0.3077 0.0769  plane waves:    3519
 k-point 67 :  -0.3077 0.3077 0.0769  plane waves:    3513
 k-point 68 :  -0.2308 0.3077 0.0769  plane waves:    3505
 k-point 69 :   0.4615 0.3846 0.0769  plane waves:    3500
 k-point 70 :  -0.4615 0.3846 0.0769  plane waves:    3498
 k-point 71 :  -0.3846 0.3846 0.0769  plane waves:    3510
 k-point 72 :  -0.3077 0.3846 0.0769  plane waves:    3515
 k-point 73 :  -0.4615 0.4615 0.0769  plane waves:    3496
 k-point 74 :  -0.3846 0.4615 0.0769  plane waves:    3500
 k-point 75 :   0.4615 0.3077 0.1538  plane waves:    3514
 k-point 76 :  -0.4615 0.3077 0.1538  plane waves:    3512
 k-point 77 :  -0.3846 0.3077 0.1538  plane waves:    3515
 k-point 78 :  -0.4615 0.3846 0.1538  plane waves:    3503
 k-point 79 :  -0.3846 0.3846 0.1538  plane waves:    3504
 k-point 80 :  -0.3077 0.3846 0.1538  plane waves:    3509
 k-point 81 :  -0.2308 0.3846 0.1538  plane waves:    3519
 k-point 82 :  -0.3846 0.4615 0.1538  plane waves:    3493
 k-point 83 :  -0.3077 0.4615 0.1538  plane waves:    3496
 k-point 84 :  -0.3077 0.4615 0.2308  plane waves:    3496

 maximum and minimum number of plane-waves per node :       908      850

 maximum number of plane-waves:      3543
 maximum index in each direction:
   IXMAX=   11   IYMAX=   10   IZMAX=   10
   IXMIN=  -11   IYMIN=  -11   IZMIN=  -10


 parallel 3D FFT for wavefunctions:
    minimum data exchange during FFTs selected (reduces bandwidth)
 parallel 3D FFT for charge:
    minimum data exchange during FFTs selected (reduces bandwidth)


 total amount of memory used by VASP MPI-rank0   104620. kBytes
=======================================================================

   base      :      30000. kBytes
   nonl-proj :      57329. kBytes
   fftplans  :       6283. kBytes
   grid      :       3541. kBytes
   one-center:         49. kBytes
   wavefun   :       7418. kBytes

     INWAV:  cpu time    0.0002: real time    0.0006
 Broyden mixing: mesh for mixing (old mesh)
   NGX = 21   NGY = 21   NGZ = 21
  (NGX  = 84   NGY  = 84   NGZ  = 84)
  gives a total of   9261 points

 initial charge density was supplied:
 charge density of overlapping atoms calculated
 number of electron      37.0000000 magnetization
 keeping initial charge density in first step


--------------------------------------------------------------------------------------------------------


 Maximum index for augmentation-charges        29151 (set IRDMAX)


--------------------------------------------------------------------------------------------------------


 First call to EWALD:  gamma=   0.405
 Maximum number of real-space cells 3x 3x 3
 Maximum number of reciprocal cells 3x 3x 3

    FEWALD:  cpu time    0.0053: real time    0.0099


--------------------------------------- Iteration      1(   1)  ---------------------------------------


    POTLOK:  cpu time    0.0515: real time    0.1450
    SETDIJ:  cpu time    0.0749: real time    0.0760
     EDDAV:  cpu time    1.5293: real time    1.5438
       DOS:  cpu time    0.0036: real time    0.0051
    --------------------------------------------
      LOOP:  cpu time    1.6597: real time    1.7744

 eigenvalue-minimisations  :  4032
 total energy-change (2. order) : 0.4405231E+03  (-0.2053841E+04)
 number of electron      37.0000000 magnetization
 augmentation part       37.0000000 magnetization

 Free energy of the ion-electron system (eV)
  ---------------------------------------------------
  alpha Z        PSCENC =       205.62278828
  Ewald energy   TEWEN  =     -3087.14763294
  -Hartree energ DENC   =      -774.17932976
  -exchange      EXHF   =         0.00000000
  -V(xc)+E(xc)   XCENC  =        67.88800264
  PAW double counting   =      3147.30828992    -3070.62761383
  entropy T*S    EENTRO =        -0.00021252
  eigenvalues    EBANDS =       276.98541711
  atomic energy  EATOM  =      3674.67342263
  Solvation  Ediel_sol  =         0.00000000
  ---------------------------------------------------
  free energy    TOTEN  =       440.52313154 eV

  energy without entropy =      440.52334406  energy(sigma->0) =      440.52323780


--------------------------------------------------------------------------------------------------------




--------------------------------------- Iteration      1(   2)  ---------------------------------------


     EDDAV:  cpu time    1.5634: real time    1.5938
       DOS:  cpu time    0.0031: real time    0.0033
    --------------------------------------------
      LOOP:  cpu time    1.5664: real time    1.5947

 eigenvalue-minimisations  :  4240
 total energy-change (2. order) :-0.3959946E+03  (-0.3883022E+03)
 number of electron      37.0000000 magnetization
 augmentation part       37.0000000 magnetization

 Free energy of the ion-electron system (eV)
  ---------------------------------------------------
  alpha Z        PSCENC =       205.62278828
  Ewald energy   TEWEN  =     -3087.14763294
  -Hartree energ DENC   =      -774.17932976
  -exchange      EXHF   =         0.00000000
  -V(xc)+E(xc)   XCENC  =        67.88800264
  PAW double counting   =      3147.30828992    -3070.62761383
  entropy T*S    EENTRO =        -0.00016873
  eigenvalues    EBANDS =      -119.00926574
  atomic energy  EATOM  =      3674.67342263
  Solvation  Ediel_sol  =         0.00000000
  ---------------------------------------------------
  free energy    TOTEN  =        44.52849248 eV

  energy without entropy =       44.52866121  energy(sigma->0) =       44.52857684


--------------------------------------------------------------------------------------------------------




--------------------------------------- Iteration      1(   3)  ---------------------------------------


     EDDAV:  cpu time    1.9235: real time    1.9511
       DOS:  cpu time    0.0030: real time    0.0035
    --------------------------------------------
      LOOP:  cpu time    1.9265: real time    1.9542

 eigenvalue-minimisations  :  5504
 total energy-change (2. order) :-0.6309128E+02  (-0.6239862E+02)
 number of electron      37.0000000 magnetization
 augmentation part       37.0000000 magnetization

 Free energy of the ion-electron system (eV)
  ---------------------------------------------------
  alpha Z        PSCENC =       205.62278828
  Ewald energy   TEWEN  =     -3087.14763294
  -Hartree energ DENC   =      -774.17932976
  -exchange      EXHF   =         0.00000000
  -V(xc)+E(xc)   XCENC  =        67.88800264
  PAW double counting   =      3147.30828992    -3070.62761383
  entropy T*S    EENTRO =        -0.00030626
  eigenvalues    EBANDS =      -182.10041275
  atomic energy  EATOM  =      3674.67342263
  Solvation  Ediel_sol  =         0.00000000
  ---------------------------------------------------
  free energy    TOTEN  =       -18.56279207 eV

  energy without entropy =      -18.56248581  energy(sigma->0) =      -18.56263894


--------------------------------------------------------------------------------------------------------




--------------------------------------- Iteration      1(   4)  ---------------------------------------


     EDDAV:  cpu time    2.4060: real time    2.4290
       DOS:  cpu time    0.0030: real time    0.0054
    --------------------------------------------
      LOOP:  cpu time    2.4090: real time    2.4346

 eigenvalue-minimisations  :  7328
 total energy-change (2. order) :-0.4259985E+01  (-0.4248287E+01)
 number of electron      37.0000000 magnetization
 augmentation part       37.0000000 magnetization

 Free energy of the ion-electron system (eV)
  ---------------------------------------------------
  alpha Z        PSCENC =       205.62278828
  Ewald energy   TEWEN  =     -3087.14763294
  -Hartree energ DENC   =      -774.17932976
  -exchange      EXHF   =         0.00000000
  -V(xc)+E(xc)   XCENC  =        67.88800264
  PAW double counting   =      3147.30828992    -3070.62761383
  entropy T*S    EENTRO =        -0.00015816
  eigenvalues    EBANDS =      -186.36054582
  atomic energy  EATOM  =      3674.67342263
  Solvation  Ediel_sol  =         0.00000000
  ---------------------------------------------------
  free energy    TOTEN  =       -22.82277703 eV

  energy without entropy =      -22.82261887  energy(sigma->0) =      -22.82269795


--------------------------------------------------------------------------------------------------------




--------------------------------------- Iteration      1(   5)  ---------------------------------------


     EDDAV:  cpu time    1.9649: real time    2.0003
       DOS:  cpu time    0.0031: real time    0.0043
    CHARGE:  cpu time    0.3288: real time    0.3299
    MIXING:  cpu time    0.0061: real time    0.0068
    --------------------------------------------
      LOOP:  cpu time    2.3027: real time    2.3428

 eigenvalue-minimisations  :  5576
 total energy-change (2. order) :-0.1233628E+00  (-0.1233239E+00)
 number of electron      37.0000000 magnetization
 augmentation part        5.9995941 magnetization

 Broyden mixing:
  rms(total) = 0.30877E+01    rms(broyden)= 0.30877E+01
  rms(prec ) = 0.34196E+01
  weight for this iteration     100.00

 Free energy of the ion-electron system (eV)
  ---------------------------------------------------
  alpha Z        PSCENC =       205.62278828
  Ewald energy   TEWEN  =     -3087.14763294
  -Hartree energ DENC   =      -774.17932976
  -exchange      EXHF   =         0.00000000
  -V(xc)+E(xc)   XCENC  =        67.88800264
  PAW double counting   =      3147.30828992    -3070.62761383
  entropy T*S    EENTRO =        -0.00015802
  eigenvalues    EBANDS =      -186.48390873
  atomic energy  EATOM  =      3674.67342263
  Solvation  Ediel_sol  =         0.00000000
  ---------------------------------------------------
  free energy    TOTEN  =       -22.94613980 eV

  energy without entropy =      -22.94598179  energy(sigma->0) =      -22.94606079


--------------------------------------------------------------------------------------------------------




--------------------------------------- Iteration      1(   6)  ---------------------------------------


    POTLOK:  cpu time    0.0378: real time    0.0762
    SETDIJ:  cpu time    0.0822: real time    0.0825
     EDDAV:  cpu time    1.7825: real time    1.7832
       DOS:  cpu time    0.0030: real time    0.0034
    CHARGE:  cpu time    0.2986: real time    0.2991
    MIXING:  cpu time    0.0045: real time    0.0054
    --------------------------------------------
      LOOP:  cpu time    2.2086: real time    2.2488

 eigenvalue-minimisations  :  5104
 total energy-change (2. order) : 0.9545566E+00  (-0.1851038E+00)
 number of electron      37.0000000 magnetization
 augmentation part        6.0541769 magnetization

 Broyden mixing:
  rms(total) = 0.19231E+01    rms(broyden)= 0.19231E+01
  rms(prec ) = 0.20394E+01
  weight for this iteration     100.00

 eigenvalues of (default mixing * dielectric matrix)
  average eigenvalue GAMMA=   2.5781
  2.5781

 Free energy of the ion-electron system (eV)
  ---------------------------------------------------
  alpha Z        PSCENC =       205.62278828
  Ewald energy   TEWEN  =     -3087.14763294
  -Hartree energ DENC   =      -758.84583265
  -exchange      EXHF   =         0.00000000
  -V(xc)+E(xc)   XCENC  =        67.42517438
  PAW double counting   =      3412.93258360    -3340.54681913
  entropy T*S    EENTRO =        -0.00022946
  eigenvalues    EBANDS =      -196.10503791
  atomic energy  EATOM  =      3674.67342263
  Solvation  Ediel_sol  =         0.00000000
  ---------------------------------------------------
  free energy    TOTEN  =       -21.99158318 eV

  energy without entropy =      -21.99135372  energy(sigma->0) =      -21.99146845


--------------------------------------------------------------------------------------------------------




--------------------------------------- Iteration      1(   7)  ---------------------------------------


    POTLOK:  cpu time    0.0442: real time    0.0702
    SETDIJ:  cpu time    0.0852: real time    0.0854
     EDDAV:  cpu time    2.0363: real time    2.0368
       DOS:  cpu time    0.0031: real time    0.0038
    CHARGE:  cpu time    0.2768: real time    0.2774
    MIXING:  cpu time    0.0054: real time    0.0061
    --------------------------------------------
      LOOP:  cpu time    2.4511: real time    2.4804

 eigenvalue-minimisations  :  6096
 total energy-change (2. order) : 0.1122420E+00  (-0.2517397E+00)
 number of electron      37.0000000 magnetization
 augmentation part        6.0055446 magnetization

 Broyden mixing:
  rms(total) = 0.63517E+00    rms(broyden)= 0.63517E+00
  rms(prec ) = 0.76621E+00
  weight for this iteration     100.00

 eigenvalues of (default mixing * dielectric matrix)
  average eigenvalue GAMMA=   2.1385
  1.0393  3.2376

 Free energy of the ion-electron system (eV)
  ---------------------------------------------------
  alpha Z        PSCENC =       205.62278828
  Ewald energy   TEWEN  =     -3087.14763294
  -Hartree energ DENC   =      -745.32837296
  -exchange      EXHF   =         0.00000000
  -V(xc)+E(xc)   XCENC  =        67.18609940
  PAW double counting   =      3764.17135984    -3696.45115565
  entropy T*S    EENTRO =        -0.00033453
  eigenvalues    EBANDS =      -204.60551522
  atomic energy  EATOM  =      3674.67342263
  Solvation  Ediel_sol  =         0.00000000
  ---------------------------------------------------
  free energy    TOTEN  =       -21.87934114 eV

  energy without entropy =      -21.87900662  energy(sigma->0) =      -21.87917388


--------------------------------------------------------------------------------------------------------




--------------------------------------- Iteration      1(   8)  ---------------------------------------


    POTLOK:  cpu time    0.0422: real time    0.0742
    SETDIJ:  cpu time    0.0782: real time    0.0788
     EDDAV:  cpu time    1.8474: real time    1.8485
       DOS:  cpu time    0.0031: real time    0.0040
    CHARGE:  cpu time    0.2751: real time    0.2764
    MIXING:  cpu time    0.0055: real time    0.0059
    --------------------------------------------
      LOOP:  cpu time    2.2515: real time    2.2888

 eigenvalue-minimisations  :  5088
 total energy-change (2. order) : 0.5103106E-01  (-0.3270773E-01)
 number of electron      37.0000000 magnetization
 augmentation part        5.9594266 magnetization

 Broyden mixing:
  rms(total) = 0.48074E+00    rms(broyden)= 0.48074E+00
  rms(prec ) = 0.52538E+00
  weight for this iteration     100.00

 eigenvalues of (default mixing * dielectric matrix)
  average eigenvalue GAMMA=   1.8961
  3.5844  1.2728  0.8310

 Free energy of the ion-electron system (eV)
  ---------------------------------------------------
  alpha Z        PSCENC =       205.62278828
  Ewald energy   TEWEN  =     -3087.14763294
  -Hartree energ DENC   =      -745.73127915
  -exchange      EXHF   =         0.00000000
  -V(xc)+E(xc)   XCENC  =        67.19887583
  PAW double counting   =      3785.32244532    -3717.61706604
  entropy T*S    EENTRO =        -0.00014170
  eigenvalues    EBANDS =      -204.14972232
  atomic energy  EATOM  =      3674.67342263
  Solvation  Ediel_sol  =         0.00000000
  ---------------------------------------------------
  free energy    TOTEN  =       -21.82831009 eV

  energy without entropy =      -21.82816839  energy(sigma->0) =      -21.82823924


--------------------------------------------------------------------------------------------------------




--------------------------------------- Iteration      1(   9)  ---------------------------------------


    POTLOK:  cpu time    0.0413: real time    0.0769
    SETDIJ:  cpu time    0.0814: real time    0.0833
     EDDAV:  cpu time    2.0266: real time    2.0277
       DOS:  cpu time    0.0032: real time    0.0183
    CHARGE:  cpu time    0.2776: real time    0.2778
    MIXING:  cpu time    0.0043: real time    0.0058
    --------------------------------------------
      LOOP:  cpu time    2.4344: real time    2.4893

 eigenvalue-minimisations  :  6048
 total energy-change (2. order) : 0.1158609E-01  (-0.2215400E-01)
 number of electron      37.0000000 magnetization
 augmentation part        5.9482275 magnetization

 Broyden mixing:
  rms(total) = 0.32356E+00    rms(broyden)= 0.32356E+00
  rms(prec ) = 0.33518E+00
  weight for this iteration     100.00

 eigenvalues of (default mixing * dielectric matrix)
  average eigenvalue GAMMA=   1.4064
  2.4758  1.2563  1.2563  0.6371

 Free energy of the ion-electron system (eV)
  ---------------------------------------------------
  alpha Z        PSCENC =       205.62278828
  Ewald energy   TEWEN  =     -3087.14763294
  -Hartree energ DENC   =      -748.11702439
  -exchange      EXHF   =         0.00000000
  -V(xc)+E(xc)   XCENC  =        67.23354704
  PAW double counting   =      3867.15113960    -3799.32969141
  entropy T*S    EENTRO =        -0.00018074
  eigenvalues    EBANDS =      -201.90309207
  atomic energy  EATOM  =      3674.67342263
  Solvation  Ediel_sol  =         0.00000000
  ---------------------------------------------------
  free energy    TOTEN  =       -21.81672399 eV

  energy without entropy =      -21.81654325  energy(sigma->0) =      -21.81663362


--------------------------------------------------------------------------------------------------------




--------------------------------------- Iteration      1(  10)  ---------------------------------------


    POTLOK:  cpu time    0.0356: real time    0.0679
    SETDIJ:  cpu time    0.0835: real time    0.0838
     EDDAV:  cpu time    1.7417: real time    1.7421
       DOS:  cpu time    0.0031: real time    0.0034
    CHARGE:  cpu time    0.2773: real time    0.2775
    MIXING:  cpu time    0.0046: real time    0.0057
    --------------------------------------------
      LOOP:  cpu time    2.1459: real time    2.1822

 eigenvalue-minimisations  :  4856
 total energy-change (2. order) : 0.5407981E-02  (-0.3420044E-02)
 number of electron      37.0000000 magnetization
 augmentation part        5.9561719 magnetization

 Broyden mixing:
  rms(total) = 0.65905E-01    rms(broyden)= 0.65905E-01
  rms(prec ) = 0.69956E-01
  weight for this iteration     100.00

 eigenvalues of (default mixing * dielectric matrix)
  average eigenvalue GAMMA=   1.4268
  2.4322  1.7836  1.3601  0.9304  0.6276

 Free energy of the ion-electron system (eV)
  ---------------------------------------------------
  alpha Z        PSCENC =       205.62278828
  Ewald energy   TEWEN  =     -3087.14763294
  -Hartree energ DENC   =      -748.31181314
  -exchange      EXHF   =         0.00000000
  -V(xc)+E(xc)   XCENC  =        67.22262746
  PAW double counting   =      3811.16604190    -3743.03636710
  entropy T*S    EENTRO =        -0.00016060
  eigenvalues    EBANDS =      -202.00022251
  atomic energy  EATOM  =      3674.67342263
  Solvation  Ediel_sol  =         0.00000000
  ---------------------------------------------------
  free energy    TOTEN  =       -21.81131601 eV

  energy without entropy =      -21.81115542  energy(sigma->0) =      -21.81123571


--------------------------------------------------------------------------------------------------------




--------------------------------------- Iteration      1(  11)  ---------------------------------------


    POTLOK:  cpu time    0.0367: real time    0.0790
    SETDIJ:  cpu time    0.0820: real time    0.0821
     EDDAV:  cpu time    1.9484: real time    1.9488
       DOS:  cpu time    0.0030: real time    0.0066
    CHARGE:  cpu time    0.2784: real time    0.2816
    MIXING:  cpu time    0.0046: real time    0.0049
    --------------------------------------------
      LOOP:  cpu time    2.3532: real time    2.4041

 eigenvalue-minimisations  :  5640
 total energy-change (2. order) :-0.1250372E-03  (-0.2545946E-03)
 number of electron      37.0000000 magnetization
 augmentation part        5.9585360 magnetization

 Broyden mixing:
  rms(total) = 0.28434E-01    rms(broyden)= 0.28434E-01
  rms(prec ) = 0.33120E-01
  weight for this iteration     100.00

 eigenvalues of (default mixing * dielectric matrix)
  average eigenvalue GAMMA=   1.3699
  2.5833  1.9681  0.6201  0.9631  0.9631  1.1216

 Free energy of the ion-electron system (eV)
  ---------------------------------------------------
  alpha Z        PSCENC =       205.62278828
  Ewald energy   TEWEN  =     -3087.14763294
  -Hartree energ DENC   =      -748.53106300
  -exchange      EXHF   =         0.00000000
  -V(xc)+E(xc)   XCENC  =        67.21728154
  PAW double counting   =      3818.27137951    -3750.08944950
  entropy T*S    EENTRO =        -0.00016248
  eigenvalues    EBANDS =      -201.82800510
  atomic energy  EATOM  =      3674.67342263
  Solvation  Ediel_sol  =         0.00000000
  ---------------------------------------------------
  free energy    TOTEN  =       -21.81144105 eV

  energy without entropy =      -21.81127857  energy(sigma->0) =      -21.81135981


--------------------------------------------------------------------------------------------------------




--------------------------------------- Iteration      1(  12)  ---------------------------------------


    POTLOK:  cpu time    0.0448: real time    0.0691
    SETDIJ:  cpu time    0.0820: real time    0.0828
     EDDAV:  cpu time    1.9009: real time    1.9018
       DOS:  cpu time    0.0030: real time    0.0037
    CHARGE:  cpu time    0.2777: real time    0.2779
    MIXING:  cpu time    0.0054: real time    0.0059
    --------------------------------------------
      LOOP:  cpu time    2.3136: real time    2.3369

 eigenvalue-minimisations  :  5496
 total energy-change (2. order) : 0.1279629E-03  (-0.6454805E-04)
 number of electron      37.0000000 magnetization
 augmentation part        5.9593350 magnetization

 Broyden mixing:
  rms(total) = 0.45060E-02    rms(broyden)= 0.45060E-02
  rms(prec ) = 0.61308E-02
  weight for this iteration     100.00

 eigenvalues of (default mixing * dielectric matrix)
  average eigenvalue GAMMA=   1.4037
  2.3782  2.3782  0.6213  1.2053  1.2053  1.0187  1.0187

 Free energy of the ion-electron system (eV)
  ---------------------------------------------------
  alpha Z        PSCENC =       205.62278828
  Ewald energy   TEWEN  =     -3087.14763294
  -Hartree energ DENC   =      -748.53872753
  -exchange      EXHF   =         0.00000000
  -V(xc)+E(xc)   XCENC  =        67.21660851
  PAW double counting   =      3820.02323536    -3751.80897791
  entropy T*S    EENTRO =        -0.00016477
  eigenvalues    EBANDS =      -201.85186473
  atomic energy  EATOM  =      3674.67342263
  Solvation  Ediel_sol  =         0.00000000
  ---------------------------------------------------
  free energy    TOTEN  =       -21.81131309 eV

  energy without entropy =      -21.81114832  energy(sigma->0) =      -21.81123070


--------------------------------------------------------------------------------------------------------




--------------------------------------- Iteration      1(  13)  ---------------------------------------


    POTLOK:  cpu time    0.0353: real time    0.0677
    SETDIJ:  cpu time    0.0873: real time    0.0876
     EDDAV:  cpu time    2.1852: real time    2.1861
       DOS:  cpu time    0.0029: real time    0.0034
    CHARGE:  cpu time    0.2752: real time    0.2764
    MIXING:  cpu time    0.0073: real time    0.0080
    --------------------------------------------
      LOOP:  cpu time    2.5933: real time    2.6316

 eigenvalue-minimisations  :  6432
 total energy-change (2. order) :-0.1351676E-05  (-0.1449537E-04)
 number of electron      37.0000000 magnetization
 augmentation part        5.9598463 magnetization

 Broyden mixing:
  rms(total) = 0.22910E-02    rms(broyden)= 0.22910E-02
  rms(prec ) = 0.31741E-02
  weight for this iteration     100.00

 eigenvalues of (default mixing * dielectric matrix)
  average eigenvalue GAMMA=   1.3964
  2.6179  1.9183  1.7557  1.2906  0.6223  0.9551  1.0055  1.0055

 Free energy of the ion-electron system (eV)
  ---------------------------------------------------
  alpha Z        PSCENC =       205.62278828
  Ewald energy   TEWEN  =     -3087.14763294
  -Hartree energ DENC   =      -748.55240564
  -exchange      EXHF   =         0.00000000
  -V(xc)+E(xc)   XCENC  =        67.21545210
  PAW double counting   =      3820.12533923    -3751.87927724
  entropy T*S    EENTRO =        -0.00016584
  eigenvalues    EBANDS =      -201.86883502
  atomic energy  EATOM  =      3674.67342263
  Solvation  Ediel_sol  =         0.00000000
  ---------------------------------------------------
  free energy    TOTEN  =       -21.81131444 eV

  energy without entropy =      -21.81114860  energy(sigma->0) =      -21.81123152


--------------------------------------------------------------------------------------------------------




--------------------------------------- Iteration      1(  14)  ---------------------------------------


    POTLOK:  cpu time    0.0348: real time    0.0796
    SETDIJ:  cpu time    0.0811: real time    0.0814
     EDDAV:  cpu time    1.8161: real time    1.8167
       DOS:  cpu time    0.0031: real time    0.0034
    CHARGE:  cpu time    0.2750: real time    0.2758
    MIXING:  cpu time    0.0070: real time    0.0073
    --------------------------------------------
      LOOP:  cpu time    2.2172: real time    2.2625

 eigenvalue-minimisations  :  5192
 total energy-change (2. order) : 0.1525468E-05  (-0.1395094E-05)
 number of electron      37.0000000 magnetization
 augmentation part        5.9602761 magnetization

 Broyden mixing:
  rms(total) = 0.24496E-02    rms(broyden)= 0.24496E-02
  rms(prec ) = 0.25779E-02
  weight for this iteration     100.00

 eigenvalues of (default mixing * dielectric matrix)
  average eigenvalue GAMMA=   1.3901
  2.6366  2.0013  2.0013  1.4479  1.0565  1.0565  0.9619  0.6199  0.7297

 Free energy of the ion-electron system (eV)
  ---------------------------------------------------
  alpha Z        PSCENC =       205.62278828
  Ewald energy   TEWEN  =     -3087.14763294
  -Hartree energ DENC   =      -748.53931838
  -exchange      EXHF   =         0.00000000
  -V(xc)+E(xc)   XCENC  =        67.21538279
  PAW double counting   =      3820.30794507    -3752.06531387
  entropy T*S    EENTRO =        -0.00016524
  eigenvalues    EBANDS =      -201.87842127
  atomic energy  EATOM  =      3674.67342263
  Solvation  Ediel_sol  =         0.00000000
  ---------------------------------------------------
  free energy    TOTEN  =       -21.81131291 eV

  energy without entropy =      -21.81114767  energy(sigma->0) =      -21.81123029


--------------------------------------------------------------------------------------------------------




--------------------------------------- Iteration      1(  15)  ---------------------------------------


    POTLOK:  cpu time    0.0351: real time    0.0695
    SETDIJ:  cpu time    0.0850: real time    0.0854
     EDDAV:  cpu time    2.2019: real time    2.2044
       DOS:  cpu time    0.0029: real time    0.0041
    CHARGE:  cpu time    0.2773: real time    0.2775
    MIXING:  cpu time    0.0062: real time    0.0066
    --------------------------------------------
      LOOP:  cpu time    2.6082: real time    2.6492

 eigenvalue-minimisations  :  6592
 total energy-change (2. order) : 0.2517118E-06  (-0.1742628E-06)
 number of electron      37.0000000 magnetization
 augmentation part        5.9600647 magnetization

 Broyden mixing:
  rms(total) = 0.10211E-03    rms(broyden)= 0.10177E-03
  rms(prec ) = 0.18335E-03
  weight for this iteration     100.00

 eigenvalues of (default mixing * dielectric matrix)
  average eigenvalue GAMMA=   1.4057
  2.7196  2.2036  2.2036  1.3916  1.0468  1.0468  0.6213  1.0738  0.8747  0.8747

 Free energy of the ion-electron system (eV)
  ---------------------------------------------------
  alpha Z        PSCENC =       205.62278828
  Ewald energy   TEWEN  =     -3087.14763294
  -Hartree energ DENC   =      -748.54452965
  -exchange      EXHF   =         0.00000000
  -V(xc)+E(xc)   XCENC  =        67.21586439
  PAW double counting   =      3819.96950321    -3751.72719491
  entropy T*S    EENTRO =        -0.00016529
  eigenvalues    EBANDS =      -201.87336839
  atomic energy  EATOM  =      3674.67342263
  Solvation  Ediel_sol  =         0.00000000
  ---------------------------------------------------
  free energy    TOTEN  =       -21.81131266 eV

  energy without entropy =      -21.81114737  energy(sigma->0) =      -21.81123001


--------------------------------------------------------------------------------------------------------




--------------------------------------- Iteration      1(  16)  ---------------------------------------


    POTLOK:  cpu time    0.0353: real time    0.0684
    SETDIJ:  cpu time    0.0859: real time    0.0865
     EDDAV:  cpu time    1.4136: real time    1.4142
       DOS:  cpu time    0.0029: real time    0.0031
    --------------------------------------------
      LOOP:  cpu time    1.5376: real time    1.5689

 eigenvalue-minimisations  :  3432
 total energy-change (2. order) : 0.1784429E-08  (-0.1448392E-07)
 number of electron      37.0000000 magnetization
 augmentation part        5.9600647 magnetization

 Free energy of the ion-electron system (eV)
  ---------------------------------------------------
  alpha Z        PSCENC =       205.62278828
  Ewald energy   TEWEN  =     -3087.14763294
  -Hartree energ DENC   =      -748.54364980
  -exchange      EXHF   =         0.00000000
  -V(xc)+E(xc)   XCENC  =        67.21583922
  PAW double counting   =      3819.96358099    -3751.72073917
  entropy T*S    EENTRO =        -0.00016528
  eigenvalues    EBANDS =      -201.87475660
  atomic energy  EATOM  =      3674.67342263
  Solvation  Ediel_sol  =         0.00000000
  ---------------------------------------------------
  free energy    TOTEN  =       -21.81131266 eV

  energy without entropy =      -21.81114738  energy(sigma->0) =      -21.81123002


--------------------------------------------------------------------------------------------------------




 average (electrostatic) potential at core
  the test charge radii are     1.1985  1.0856  1.2059
  (the norm of the test charge is              1.0000)
       1 -57.8218       2-102.7625       3 -66.1593



 E-fermi :   8.0273     XC(G=0): -10.8399     alpha+bet :-13.4639


 k-point     1 :       0.0000    0.0000    0.0000
  band No.  band energies     occupation
      1     -32.1628      2.00000
      2     -14.8848      2.00000
      3     -14.8848      2.00000
      4     -14.8541      2.00000
      5     -14.8541      2.00000
      6     -14.8541      2.00000
      7     -10.0963      2.00000
      8     -10.0963      2.00000
      9     -10.0963      2.00000
     10      -4.0150      2.00000
     11       3.8737      2.00000
     12       3.8737      2.00000
     13       3.8737      2.00000
     14       4.1195      2.00000
     15       4.1195      2.00000
     16       5.9994      2.00000
     17       6.9981      2.00000
     18       6.9981      2.00000
     19       6.9981      2.00000
     20       8.2786      0.00000
     21       8.2786      0.00000
     22       8.2786      0.00000
     23       9.0527      0.00000
     24       9.9154      0.00000

 k-point     2 :       0.0769   -0.0000    0.0000
  band No.  band energies     occupation
      1     -32.1626      2.00000
      2     -14.8854      2.00000
      3     -14.8854      2.00000
      4     -14.8542      2.00000
      5     -14.8540      2.00000
      6     -14.8540      2.00000
      7     -10.1096      2.00000
      8     -10.0947      2.00000
      9     -10.0947      2.00000
     10      -3.9613      2.00000
     11       3.7374      2.00000
     12       3.7691      2.00000
     13       3.7691      2.00000
     14       4.2180      2.00000
     15       4.2180      2.00000
     16       5.7754      2.00000
     17       6.9177      2.00000
     18       6.9177      2.00000
     19       7.1259      2.00000
     20       8.3704      0.00000
     21       8.3704      0.00000
     22       8.3725      0.00000
     23       9.2551      0.00000
     24       9.9242      0.00000

 k-point     3 :       0.1538   -0.0000    0.0000
  band No.  band energies     occupation
      1     -32.1619      2.00000
      2     -14.8870      2.00000
      3     -14.8870      2.00000
      4     -14.8546      2.00000
      5     -14.8537      2.00000
      6     -14.8537      2.00000
      7     -10.1453      2.00000
      8     -10.0903      2.00000
      9     -10.0903      2.00000
     10      -3.8122      2.00000
     11       3.3995      2.00000
     12       3.6181      2.00000
     13       3.6181      2.00000
     14       4.3415      2.00000
     15       4.3415      2.00000
     16       5.3582      2.00000
     17       6.7498      2.00000
     18       6.7498      2.00000
     19       7.2566      2.00000
     20       8.5871      0.00000
     21       8.5871      0.00000
     22       8.7783      0.00000
     23       9.6127      0.00000
     24       9.9432      0.00000

 k-point     4 :       0.2308   -0.0000    0.0000
  band No.  band energies     occupation
      1     -32.1610      2.00000
      2     -14.8893      2.00000
      3     -14.8893      2.00000
      4     -14.8551      2.00000
      5     -14.8531      2.00000
      6     -14.8531      2.00000
      7     -10.1931      2.00000
      8     -10.0841      2.00000
      9     -10.0841      2.00000
     10      -3.6007      2.00000
     11       2.9911      2.00000
     12       3.5004      2.00000
     13       3.5004      2.00000
     14       4.3926      2.00000
     15       4.3926      2.00000
     16       4.9608      2.00000
     17       6.6007      2.00000
     18       6.6007      2.00000
     19       7.3446      2.00000
     20       8.8480      0.00000
     21       8.8480      0.00000
     22       9.3500      0.00000
     23       9.8861      0.00000
     24       9.9395      0.00000

 k-point     5 :       0.3077   -0.0000    0.0000
  band No.  band energies     occupation
      1     -32.1600      2.00000
      2     -14.8917      2.00000
      3     -14.8917      2.00000
      4     -14.8557      2.00000
      5     -14.8526      2.00000
      6     -14.8526      2.00000
      7     -10.2408      2.00000
      8     -10.0775      2.00000
      9     -10.0775      2.00000
     10      -3.3744      2.00000
     11       2.6147      2.00000
[...]
  212              fftbas_plan_mpi                       0.081792                     12   6
  213                dfftw_execute                         0.036153                   36   7
  214                map_backward                          0.004694                   12   7
  215                  map_gather                            0.001471                  6   8
  216                  m_alltoallv_z                         0.001805                  6   8
  217                  map_scatter                           0.001119                  6   8
  218                map_forward                           0.037723                   12   7
  219                  map_gather                            0.019879                  6   8
  220                  m_alltoallv_z                         0.006163                  6   8
  221                  map_scatter                           0.011387                  6   8
  222            M_sumb_d                              0.012110                        6   5
  223          M_sumb_d                              0.000029                          1   4
  224        setdij_                               1.454812                           20   3
  225          fft3d_mpi                             0.296335                         40   4
  226            fftbas_plan_mpi                       0.271719                       40   5
  227              dfftw_execute                         0.117364                    120   6
  228              map_backward                          0.016093                     40   6
  229                map_gather                            0.004537                   20   7
  230                m_alltoallv_z                         0.006841                   20   7
  231                map_scatter                           0.003722                   20   7
  232              map_forward                           0.127934                     40   6
  233                map_gather                            0.061778                   20   7
  234                m_alltoallv_z                         0.024576                   20   7
  235                map_scatter                           0.040548                   20   7
  236          M_sumb_d                              0.038565                         20   4
  237        set_dd_magatom                        0.000003                            1   3
  238        set_dd_paw                            0.008802                            1   3
  239          set_rsgf_all                          0.000004                          1   4
  240          M_sumb_d                              0.008644                          8   4
  241        strkin                                0.001266                            1   3
  242          M_sumb_d                              0.000586                          1   4
  243        strelo                                0.002993                            1   3
  244          M_sumb_d                              0.000107                          2   4
  245        strenl                                1.222585                            1   3
  246          spher                                 0.899169                         19   4
  247          phase                                 0.014323                        189   4
  248          proj1                                 0.283199                       1134   4
  249            crexp_mul_wave                        0.034744                     3402   5
  250            M_sumb_d                              0.090858                     1134   5
  251          M_sumb_d                              0.002698                          1   4
  252        M_sumb_d                              0.000224                            6   3
  253        fft3d_mpi                             0.017991                           11   3
  254          fftbas_plan_mpi                       0.016666                         11   4
  255            dfftw_execute                         0.006540                       33   5
  256            map_forward                           0.003218                       10   5
  257              map_gather                            0.000613                      5   6
  258              m_alltoallv_z                         0.001302                      5   6
  259              map_scatter                           0.001056                      5   6
  260            map_backward                          0.004584                       12   5
  261              map_gather                            0.001175                      6   6
  262              m_alltoallv_z                         0.001989                      6   6
  263              map_scatter                           0.001139                      6   6
  264        ggaall_grid                           0.002089                            1   3
  265        forhar                                0.007290                            2   3
  266          M_sumb_d                              0.000099                          2   4
  267        strehar                               0.003176                            1   3
  268          M_sumb_d                              0.000125                          1   4
  269        chggra                                0.007386                            1   3
  270          fft3d_mpi                             0.004800                          3   4
  271            fftbas_plan_mpi                       0.004367                        3   5
  272              dfftw_execute                         0.001743                      9   6
  273              map_backward                          0.000697                      2   6
  274                map_gather                            0.000202                    1   7
  275                m_alltoallv_z                         0.000259                    1   7
  276                map_scatter                           0.000180                    1   7
  277              map_forward                           0.001276                      4   6
  278                map_gather                            0.000278                    2   7
  279                m_alltoallv_z                         0.000464                    2   7
  280                map_scatter                           0.000409                    2   7
  281          M_sumb_d                              0.000116                          3   4
  282        brmix                                 0.005962                            1   3
  283          M_sumb_d                              0.000269                          6   4
  284          brpre                                 0.000047                          1   4
  285          setg0                                 0.001732                          1   4
  286          broyd                                 0.002652                          1   4
  287            M_sumb_d                              0.000738                       18   5
  288            brget                                 0.000357                       64   5
  289            brsav                                 0.000082                       16   5
  290          M_bcast_z                             0.000165                          1   4
  291          M_bcast_d                             0.000043                          1   4
  292        M_bcast_d                             0.000046                            2   3
  293      potlok                                0.032148                              1   2
  294        fft3d_mpi                             0.020898                           13   3
  295          fftbas_plan_mpi                       0.019124                         13   4
  296            dfftw_execute                         0.007214                       39   5
  297            map_forward                           0.004574                       14   5
  298              map_gather                            0.000842                      8   6
  299              m_alltoallv_z                         0.001827                      8   6
  300              map_scatter                           0.001541                      8   6
  301            map_backward                          0.004571                       12   5
  302              map_gather                            0.001534                      6   6
  303              m_alltoallv_z                         0.001584                      6   6
  304              map_scatter                           0.001140                      6   6
  305        ggaall_grid                           0.001997                            1   3
  306        M_sumb_d                              0.000301                            6   3
  307        M_bcast_d                             0.000107                            1   3
  308      potlok_metagga                        0.000004                              1   2
  309      set_dd_magatom                        0.000003                              1   2
  310      set_dd_paw                            0.000466                              1   2
  311        set_rsgf_all                          0.000004                            1   3
  312        M_sumb_d                              0.000273                            8   3
  313      densta                                0.002323                              1   2
  314        M_sumb_d                              0.000849                           40   3
  315      lprj_proall                           0.000008                              1   2

 Flat profile
 ============

             routine name                   CPU           calls
 ---------------------------------------------------------------
 total_time                             13.100686           1
 dfftw_execute                           5.961902       49344
 eddav                                   5.180046          16
 fftbas_plan_mpi                         3.540592       16450
 M_sumb_d                                2.777209       45823
 setdij_                                 2.306962          40
 elmin                                   2.038719           1
 set_charge                              1.938195          12
 m_alltoallv_z                           1.711674       16473
 pdssyex_zheevx                          1.494751         336
 M_alltoall_d                            1.211068       54796
 spher                                   1.040808          20
 proj1                                   1.011326        6694
 orth1                                   0.935187       11196
 gemm                                    0.896941       22350
 vhamil                                  0.885127        7450
 fftwav_mpi                              0.740124        8710
 map_forward                             0.732823       17698
 map_scatter                             0.704177       16473
 map_gather                              0.681327       16473
 vnlac0                                  0.512259        7450
 M_bcast_z                               0.495649        6276
 redis_pw                                0.468313       21048
 hamiltmu                                0.410381        3725
 redis_proj                              0.408967       26503
 w1_copy                                 0.329771       22350
 work_mul_crexp                          0.286466       22350
 fft3d_mpi                               0.281749       16448
 map_backward                            0.271845       15198
 fftext_mpi                              0.258207        7450
 crexp_mul_wave                          0.221961       20082
 crpa_reader                             0.219111           1
 eccp                                    0.204922        2016
 kinhamil                                0.155602        7450
 overl                                   0.141028       12905
 M_bcast_d                               0.122715        3757
 potlok                                  0.103578          13
 pw_charge                               0.098906        1260
 overl1                                  0.089179        7450
 apply_precond                           0.075791        5434
 force_and_stress                        0.075254           1
 setup_precond                           0.067277        2016
 lincom                                  0.063661         357
 w1_projall                              0.060086        2717
 fornl                                   0.052704           1
 phase                                   0.042869         568
 soft_charge                             0.033659          12
 truncate_high_frequency_w1              0.032787        9466
 ggaall_grid                             0.028278          14
 densta                                  0.026168          17
 strenl                                  0.023196           1
 setg0                                   0.017480          13
 brmix                                   0.016985          12
 broyd                                   0.009109          12
 forhar                                  0.007191           2
 depsum                                  0.005187          12
 forloc                                  0.003678           1
 strehar                                 0.003051           1
 brgrid                                  0.002914           1
 strelo                                  0.002886           1
 set_dd_paw                              0.002836          14
 chggra                                  0.002470           1
 brget                                   0.002352         432
 orthch                                  0.002291           1
 choleski                                0.001811          21
 proj                                    0.001598          21
 brsav                                   0.001006         128
 brpre                                   0.000735          12
 strkin                                  0.000680           1
 fordep                                  0.000127           1
 set_rsgf_all                            0.000081          14
 vectorpot                               0.000072          13
 set_dd_magatom                          0.000052          14
 potlok_metagga                          0.000051          13
 set_kineden                             0.000039          11
 rotate_active_occupied_orbital          0.000016           1
 lprj_proall                             0.000008           1
 redis_pw_over_bands                     0.000004           1
 ---------------------------------------------------------------
  summed up times    54.6366920471191

 Accumulative profile
 ====================

             routine name                   CPU           calls
 ---------------------------------------------------------------
 total_time                             54.636692           1
 elmin                                  36.838706           1
 eddav                                  30.225378          16
 fft3d_mpi                              13.883294       16448
 fftbas_plan_mpi                        13.604340       16450
 hamiltmu                                9.564192        3725
 fftwav_mpi                              7.887330        8710
 kinhamil                                6.030460        7450
 dfftw_execute                           5.961902       49344
 fftext_mpi                              5.874858        7450
 force_and_stress                        3.599640           1
 set_charge                              3.389686          12
 setdij_                                 2.997412          40
 M_sumb_d                                2.777209       45823
 map_forward                             2.525434       17698
 vnlac0                                  2.149046        7450
 m_alltoallv_z                           1.711674       16473
 proj1                                   1.691998        6694
 map_backward                            1.576412       15198
 pdssyex_zheevx                          1.494751         336
 w1_projall                              1.439314        2717
 soft_charge                             1.239868          12
 strenl                                  1.222585           1
 M_alltoall_d                            1.211068       54796
 redis_pw                                1.146017       21048
 spher                                   1.040808          20
 redis_proj                              0.942331       26503
 orth1                                   0.935187       11196
 gemm                                    0.896941       22350
 vhamil                                  0.885127        7450
 map_scatter                             0.704177       16473
 map_gather                              0.681327       16473
 M_bcast_z                               0.495649        6276
 fordep                                  0.440924           1
 potlok                                  0.405948          13
 w1_copy                                 0.329771       22350
 eccp                                    0.318659        2016
 work_mul_crexp                          0.286466       22350
 crexp_mul_wave                          0.221961       20082
 crpa_reader                             0.219111           1
 overl                                   0.141028       12905
 M_bcast_d                               0.122715        3757
 set_dd_paw                              0.118665          14
 setup_precond                           0.117666        2016
 pw_charge                               0.098906        1260
 overl1                                  0.089179        7450
 apply_precond                           0.075791        5434
 fornl                                   0.069290           1
 brmix                                   0.064719          12
 lincom                                  0.063661         357
 phase                                   0.042869         568
 densta                                  0.039078          17
 truncate_high_frequency_w1              0.032787        9466
 proj                                    0.031169          21
 orthch                                  0.029655           1
 ggaall_grid                             0.028278          14
 setg0                                   0.017480          13
 broyd                                   0.017093          12
 depsum                                  0.010147          12
 chggra                                  0.007386           1
 forhar                                  0.007290           2
 forloc                                  0.003776           1
 strehar                                 0.003176           1
 strelo                                  0.002993           1
 brgrid                                  0.002914           1
 brget                                   0.002352         432
 choleski                                0.001811          21
 strkin                                  0.001266           1
 brsav                                   0.001006         128
 brpre                                   0.000735          12
 set_rsgf_all                            0.000081          14
 vectorpot                               0.000072          13
 set_dd_magatom                          0.000052          14
 potlok_metagga                          0.000051          13
 set_kineden                             0.000039          11
 rotate_active_occupied_orbital          0.000016           1
 lprj_proall                             0.000008           1
 redis_pw_over_bands                     0.000004           1
 ---------------------------------------------------------------

Profiling took   1.322502  1.601387  0.006625  0.005127 seconds
Profiling took   1.303768 seconds
