<?xml version="1.0" encoding="ISO-8859-1"?>
<modeling>
 <generator>
  <i name="program" type="string">vasp </i>
  <i name="version" type="string">6.0.8  </i>
  <i name="subversion" type="string">29Jun18 (build Jun 13 2019 12:54:44) complex                          parallel </i>
  <i name="platform" type="string">IFC18_CrayMPICH </i>
  <i name="date" type="string">2021 12 05 </i>
  <i name="time" type="string">14:21:47 </i>
 </generator>
 <incar>
  <i type="int" name="KPAR">     4</i>
  <i type="int" name="NPAR">     4</i>
  <i type="int" name="ISTART">     0</i>
  <i type="string" name="PREC"> ACC</i>
  <i type="string" name="ALGO"> Normal</i>
  <i type="logical" name="ADDGRID"> T  </i>
  <i type="int" name="ISPIN">     1</i>
  <i type="int" name="NELMIN">     5</i>
  <i type="int" name="IBRION">    -1</i>
  <i name="EDIFF">      0.00000010</i>
  <i type="int" name="NSW">     0</i>
  <i type="int" name="ISIF">     3</i>
  <i name="ENCUT">    700.00000000</i>
  <i type="logical" name="LREAL"> F  </i>
  <i type="int" name="ISMEAR">     0</i>
  <i name="SIGMA">      0.01000000</i>
  <i type="logical" name="LWAVE"> F  </i>
  <i type="logical" name="LCHARG"> F  </i>
  <i type="logical" name="LVTOT"> F  </i>
  <i type="string" name="ALGO"> Normal</i>
  <i type="string" name="GGA"> PS</i>
  <i name="EDIFF">      0.00000010</i>
  <i type="int" name="ISPIN">     1</i>
 </incar>
 <structure name="primitive_cell" >
  <crystal>
   <varray name="basis" >
    <v>       0.00000000       3.46992810       3.46992810 </v>
    <v>       3.46992810       0.00000000       3.46992810 </v>
    <v>       3.46992810       3.46992810       0.00000000 </v>
   </varray>
   <i name="volume">     83.55865185 </i>
   <varray name="rec_basis" >
    <v>      -0.14409520       0.14409520       0.14409520 </v>
    <v>       0.14409520      -0.14409520       0.14409520 </v>
    <v>       0.14409520       0.14409520      -0.14409520 </v>
   </varray>
  </crystal>
  <varray name="positions" >
   <v>       0.25000000       0.25000000       0.25000000 </v>
   <v>       0.75000000       0.75000000       0.75000000 </v>
   <v>       0.00000000       0.00000000       0.00000000 </v>
  </varray>
 </structure>
 <varray name="primitive_index" >
  <v type="int" >        1 </v>
  <v type="int" >        2 </v>
  <v type="int" >        3 </v>
 </varray>
 <kpoints>
  <generation param="Gamma">
   <v type="int" name="divisions">      13       13       13 </v>
   <v name="usershift">      0.00000000       0.00000000       0.00000000 </v>
   <v name="genvec1">      0.07692308       0.00000000      -0.00000000 </v>
   <v name="genvec2">      0.00000000       0.07692308       0.00000000 </v>
   <v name="genvec3">     -0.00000000      -0.00000000       0.07692308 </v>
   <v name="shift">      0.00000000       0.00000000       0.00000000 </v>
  </generation>
  <varray name="kpointlist" >
   <v>       0.00000000       0.00000000       0.00000000 </v>
   <v>       0.07692308      -0.00000000       0.00000000 </v>
   <v>       0.15384615      -0.00000000       0.00000000 </v>
   <v>       0.23076923      -0.00000000       0.00000000 </v>
   <v>       0.30769231      -0.00000000       0.00000000 </v>
   <v>       0.38461538       0.00000000      -0.00000000 </v>
   <v>       0.46153846       0.00000000      -0.00000000 </v>
   <v>       0.07692308       0.07692308      -0.00000000 </v>
   <v>       0.15384615       0.07692308      -0.00000000 </v>
   <v>       0.23076923       0.07692308       0.00000000 </v>
   <v>       0.30769231       0.07692308      -0.00000000 </v>
   <v>       0.38461538       0.07692308      -0.00000000 </v>
   <v>       0.46153846       0.07692308       0.00000000 </v>
   <v>      -0.46153846       0.07692308       0.00000000 </v>
   <v>      -0.38461538       0.07692308       0.00000000 </v>
   <v>      -0.30769231       0.07692308       0.00000000 </v>
   <v>      -0.23076923       0.07692308       0.00000000 </v>
   <v>      -0.15384615       0.07692308      -0.00000000 </v>
   <v>      -0.07692308       0.07692308      -0.00000000 </v>
   <v>       0.15384615       0.15384615      -0.00000000 </v>
   <v>       0.23076923       0.15384615      -0.00000000 </v>
   <v>       0.30769231       0.15384615      -0.00000000 </v>
   <v>       0.38461538       0.15384615      -0.00000000 </v>
   <v>       0.46153846       0.15384615      -0.00000000 </v>
   <v>      -0.46153846       0.15384615      -0.00000000 </v>
   <v>      -0.38461538       0.15384615       0.00000000 </v>
   <v>      -0.30769231       0.15384615       0.00000000 </v>
   <v>      -0.23076923       0.15384615       0.00000000 </v>
   <v>      -0.15384615       0.15384615      -0.00000000 </v>
   <v>       0.23076923       0.23076923      -0.00000000 </v>
   <v>       0.30769231       0.23076923      -0.00000000 </v>
   <v>       0.38461538       0.23076923      -0.00000000 </v>
   <v>       0.46153846       0.23076923      -0.00000000 </v>
   <v>      -0.46153846       0.23076923      -0.00000000 </v>
   <v>      -0.38461538       0.23076923       0.00000000 </v>
   <v>      -0.30769231       0.23076923       0.00000000 </v>
   <v>      -0.23076923       0.23076923      -0.00000000 </v>
   <v>       0.30769231       0.30769231      -0.00000000 </v>
   <v>       0.38461538       0.30769231      -0.00000000 </v>
   <v>       0.46153846       0.30769231      -0.00000000 </v>
   <v>      -0.46153846       0.30769231       0.00000000 </v>
   <v>      -0.38461538       0.30769231      -0.00000000 </v>
   <v>      -0.30769231       0.30769231      -0.00000000 </v>
   <v>       0.38461538       0.38461538      -0.00000000 </v>
   <v>       0.46153846       0.38461538      -0.00000000 </v>
   <v>      -0.46153846       0.38461538      -0.00000000 </v>
   <v>      -0.38461538       0.38461538       0.00000000 </v>
   <v>       0.46153846       0.46153846      -0.00000000 </v>
   <v>      -0.46153846       0.46153846       0.00000000 </v>
   <v>       0.23076923       0.15384615       0.07692308 </v>
   <v>       0.30769231       0.15384615       0.07692308 </v>
   <v>       0.38461538       0.15384615       0.07692308 </v>
   <v>       0.46153846       0.15384615       0.07692308 </v>
   <v>      -0.46153846       0.15384615       0.07692308 </v>
   <v>       0.30769231       0.23076923       0.07692308 </v>
   <v>       0.38461538       0.23076923       0.07692308 </v>
   <v>       0.46153846       0.23076923       0.07692308 </v>
   <v>      -0.46153846       0.23076923       0.07692308 </v>
   <v>      -0.38461538       0.23076923       0.07692308 </v>
   <v>      -0.30769231       0.23076923       0.07692308 </v>
   <v>      -0.23076923       0.23076923       0.07692308 </v>
   <v>      -0.15384615       0.23076923       0.07692308 </v>
   <v>       0.38461538       0.30769231       0.07692308 </v>
   <v>       0.46153846       0.30769231       0.07692308 </v>
   <v>      -0.46153846       0.30769231       0.07692308 </v>
   <v>      -0.38461538       0.30769231       0.07692308 </v>
   <v>      -0.30769231       0.30769231       0.07692308 </v>
   <v>      -0.23076923       0.30769231       0.07692308 </v>
   <v>       0.46153846       0.38461538       0.07692308 </v>
   <v>      -0.46153846       0.38461538       0.07692308 </v>
   <v>      -0.38461538       0.38461538       0.07692308 </v>
   <v>      -0.30769231       0.38461538       0.07692308 </v>
   <v>      -0.46153846       0.46153846       0.07692308 </v>
   <v>      -0.38461538       0.46153846       0.07692308 </v>
   <v>       0.46153846       0.30769231       0.15384615 </v>
   <v>      -0.46153846       0.30769231       0.15384615 </v>
   <v>      -0.38461538       0.30769231       0.15384615 </v>
   <v>      -0.46153846       0.38461538       0.15384615 </v>
   <v>      -0.38461538       0.38461538       0.15384615 </v>
   <v>      -0.30769231       0.38461538       0.15384615 </v>
   <v>      -0.23076923       0.38461538       0.15384615 </v>
   <v>      -0.38461538       0.46153846       0.15384615 </v>
   <v>      -0.30769231       0.46153846       0.15384615 </v>
   <v>      -0.30769231       0.46153846       0.23076923 </v>
  </varray>
  <varray name="weights" >
   <v>       0.00045517 </v>
   <v>       0.00364133 </v>
   <v>       0.00364133 </v>
   <v>       0.00364133 </v>
   <v>       0.00364133 </v>
   <v>       0.00364133 </v>
   <v>       0.00364133 </v>
   <v>       0.00273100 </v>
   <v>       0.01092399 </v>
   <v>       0.01092399 </v>
   <v>       0.01092399 </v>
   <v>       0.01092399 </v>
   <v>       0.01092399 </v>
   <v>       0.01092399 </v>
   <v>       0.01092399 </v>
   <v>       0.01092399 </v>
   <v>       0.01092399 </v>
   <v>       0.01092399 </v>
   <v>       0.00546199 </v>
   <v>       0.00273100 </v>
   <v>       0.01092399 </v>
   <v>       0.01092399 </v>
   <v>       0.01092399 </v>
   <v>       0.01092399 </v>
   <v>       0.01092399 </v>
   <v>       0.01092399 </v>
   <v>       0.01092399 </v>
   <v>       0.01092399 </v>
   <v>       0.00546199 </v>
   <v>       0.00273100 </v>
   <v>       0.01092399 </v>
   <v>       0.01092399 </v>
   <v>       0.01092399 </v>
   <v>       0.01092399 </v>
   <v>       0.01092399 </v>
   <v>       0.01092399 </v>
   <v>       0.00546199 </v>
   <v>       0.00273100 </v>
   <v>       0.01092399 </v>
   <v>       0.01092399 </v>
   <v>       0.01092399 </v>
   <v>       0.01092399 </v>
   <v>       0.00546199 </v>
   <v>       0.00273100 </v>
   <v>       0.01092399 </v>
   <v>       0.01092399 </v>
   <v>       0.00546199 </v>
   <v>       0.00273100 </v>
   <v>       0.00546199 </v>
   <v>       0.01092399 </v>
   <v>       0.02184797 </v>
   <v>       0.02184797 </v>
   <v>       0.02184797 </v>
   <v>       0.02184797 </v>
   <v>       0.01092399 </v>
   <v>       0.02184797 </v>
   <v>       0.02184797 </v>
   <v>       0.02184797 </v>
   <v>       0.02184797 </v>
   <v>       0.02184797 </v>
   <v>       0.02184797 </v>
   <v>       0.01092399 </v>
   <v>       0.01092399 </v>
   <v>       0.02184797 </v>
   <v>       0.02184797 </v>
   <v>       0.02184797 </v>
   <v>       0.02184797 </v>
   <v>       0.01092399 </v>
   <v>       0.01092399 </v>
   <v>       0.02184797 </v>
   <v>       0.02184797 </v>
   <v>       0.01092399 </v>
   <v>       0.01092399 </v>
   <v>       0.01092399 </v>
   <v>       0.01092399 </v>
   <v>       0.02184797 </v>
   <v>       0.02184797 </v>
   <v>       0.01092399 </v>
   <v>       0.02184797 </v>
   <v>       0.02184797 </v>
   <v>       0.01092399 </v>
   <v>       0.01092399 </v>
   <v>       0.01092399 </v>
   <v>       0.01092399 </v>
  </varray>
 </kpoints>
 <parameters>
  <separator name="general" >
   <i type="string" name="SYSTEM">unknown system</i>
   <i type="logical" name="LCOMPAT"> F  </i>
  </separator>
  <separator name="electronic" >
   <i type="string" name="PREC">acc</i>
   <i name="ENMAX">    700.00000000</i>
   <i name="ENAUG">    535.43100000</i>
   <i name="EDIFF">      0.00000010</i>
   <i type="int" name="IALGO">    38</i>
   <i type="int" name="IWAVPR">    10</i>
   <i type="int" name="NBANDS">    24</i>
   <i type="int" name="NBANDSLOW">    -1</i>
   <i type="int" name="NBANDSHIGH">    -1</i>
   <i name="NELECT">     37.00000000</i>
   <i type="int" name="TURBO">     0</i>
   <i type="int" name="IRESTART">     0</i>
   <i type="int" name="NREBOOT">     0</i>
   <i type="int" name="NMIN">     0</i>
   <i name="EREF">      0.00000000</i>
   <separator name="electronic smearing" >
    <i type="int" name="ISMEAR">     0</i>
    <i name="SIGMA">      0.01000000</i>
    <i name="KSPACING">      0.50000000</i>
    <i type="logical" name="KGAMMA"> T  </i>
    <i type="logical" name="KBLOWUP"> T  </i>
   </separator>
   <separator name="electronic projectors" >
    <i type="logical" name="LREAL"> F  </i>
    <v name="ROPT">      0.00000000      0.00000000      0.00000000</v>
    <i type="int" name="LMAXPAW">  -100</i>
    <i type="int" name="LMAXMIX">     2</i>
    <i type="logical" name="NLSPLINE"> F  </i>
   </separator>
   <separator name="electronic startup" >
    <i type="int" name="ISTART">     0</i>
    <i type="int" name="ICHARG">     2</i>
    <i type="int" name="INIWAV">     1</i>
   </separator>
   <separator name="electronic spin" >
    <i type="int" name="ISPIN">     1</i>
    <i type="logical" name="LNONCOLLINEAR"> F  </i>
    <v name="MAGMOM">      1.00000000      1.00000000      1.00000000</v>
    <i name="NUPDOWN">     -1.00000000</i>
    <i type="logical" name="LSORBIT"> F  </i>
    <v name="SAXIS">      0.00000000      0.00000000      1.00000000</v>
    <i type="logical" name="LSPIRAL"> F  </i>
    <v name="QSPIRAL">      0.00000000      0.00000000      0.00000000</v>
    <i type="logical" name="LZEROZ"> F  </i>
   </separator>
   <separator name="electronic exchange-correlation" >
    <i type="logical" name="LASPH"> F  </i>
    <i type="logical" name="LMETAGGA"> F  </i>
   </separator>
   <separator name="electronic convergence" >
    <i type="int" name="NELM">    60</i>
    <i type="int" name="NELMDL">    -5</i>
    <i type="int" name="NELMIN">     5</i>
    <i name="ENINI">    700.00000000</i>
    <separator name="electronic convergence detail" >
     <i type="logical" name="LDIAG"> T  </i>
     <i type="logical" name="LSUBROT"> F  </i>
     <i name="WEIMIN">      0.00000000</i>
     <i name="EBREAK">      0.00000000</i>
     <i name="DEPER">      0.30000000</i>
     <i type="int" name="NRMM">     4</i>
     <i name="TIME">      0.40000000</i>
    </separator>
   </separator>
   <separator name="electronic mixer" >
    <i name="AMIX">      0.40000000</i>
    <i name="BMIX">      1.00000000</i>
    <i name="AMIN">      0.10000000</i>
    <i name="AMIX_MAG">      1.60000000</i>
    <i name="BMIX_MAG">      1.00000000</i>
    <separator name="electronic mixer details" >
     <i type="int" name="IMIX">     4</i>
     <i type="logical" name="MIXFIRST"> F  </i>
     <i type="int" name="MAXMIX">   -45</i>
     <i name="WC">    100.00000000</i>
     <i type="int" name="INIMIX">     1</i>
     <i type="int" name="MIXPRE">     1</i>
     <i type="int" name="MREMOVE">     5</i>
    </separator>
   </separator>
   <separator name="electronic dipolcorrection" >
    <i type="logical" name="LDIPOL"> F  </i>
    <i type="logical" name="LMONO"> F  </i>
    <i type="int" name="IDIPOL">     0</i>
    <i name="EPSILON">      1.00000000</i>
    <v name="DIPOL">   -100.00000000   -100.00000000   -100.00000000</v>
    <i name="EFIELD">      0.00000000</i>
   </separator>
  </separator>
  <separator name="grids" >
   <i type="int" name="NGX">    42</i>
   <i type="int" name="NGY">    42</i>
   <i type="int" name="NGZ">    42</i>
   <i type="int" name="NGXF">    84</i>
   <i type="int" name="NGYF">    84</i>
   <i type="int" name="NGZF">    84</i>
   <i type="logical" name="ADDGRID"> T  </i>
  </separator>
  <separator name="ionic" >
   <i type="int" name="NSW">     0</i>
   <i type="int" name="IBRION">    -1</i>
   <i type="int" name="MDALGO">     0</i>
   <i type="int" name="ISIF">     3</i>
   <i name="PSTRESS">      0.00000000</i>
   <i name="EDIFFG">      0.00000100</i>
   <i type="int" name="NFREE">     0</i>
   <i name="POTIM">      0.50000000</i>
   <i name="SMASS">     -3.00000000</i>
   <i name="SCALEE">      1.00000000</i>
  </separator>
  <separator name="ionic md" >
   <i name="TEBEG">      0.00010000</i>
   <i name="TEEND">      0.00010000</i>
   <i type="int" name="NBLOCK">     1</i>
   <i type="int" name="KBLOCK">     1</i>
   <i type="int" name="NPACO">   256</i>
   <i name="APACO">     16.00000000</i>
  </separator>
  <separator name="symmetry" >
   <i type="int" name="ISYM">     2</i>
   <i name="SYMPREC">      0.00001000</i>
  </separator>
  <separator name="dos" >
   <i type="int" name="LORBIT">     0</i>
   <v name="RWIGS">     -1.00000000     -1.00000000     -1.00000000</v>
   <i type="int" name="NEDOS">   301</i>
   <i name="EMIN">     10.00000000</i>
   <i name="EMAX">    -10.00000000</i>
   <i name="EFERMI">      0.00000000</i>
  </separator>
  <separator name="writing" >
   <i type="int" name="NWRITE">     2</i>
   <i type="logical" name="LWAVE"> F  </i>
   <i type="logical" name="LDOWNSAMPLE"> F  </i>
   <i type="logical" name="LCHARG"> F  </i>
   <i type="logical" name="LPARD"> F  </i>
   <i type="logical" name="LVTOT"> F  </i>
   <i type="logical" name="LVHAR"> F  </i>
   <i type="logical" name="LELF"> F  </i>
   <i type="logical" name="LOPTICS"> F  </i>
   <v name="STM">      0.00000000      0.00000000      0.00000000      0.00000000      0.00000000      0.00000000      0.00000000</v>
  </separator>
  <separator name="performance" >
   <i type="int" name="NPAR">     4</i>
   <i type="int" name="NSIM">     4</i>
   <i type="int" name="NBLK">    -1</i>
   <i type="logical" name="LPLANE"> T  </i>
   <i type="logical" name="LSCALAPACK"> T  </i>
   <i type="logical" name="LSCAAWARE"> F  </i>
   <i type="logical" name="LSCALU"> F  </i>
   <i type="logical" name="LASYNC"> F  </i>
   <i type="logical" name="LORBITALREAL"> F  </i>
  </separator>
  <separator name="miscellaneous" >
   <i type="int" name="IDIOT">     3</i>
   <i type="int" name="PHON_NSTRUCT">    -1</i>
   <i type="logical" name="LMUSIC"> F  </i>
   <v name="POMASS">    232.03900000    208.98000000    195.08000000</v>
   <v name="DARWINR">      0.00000000      0.00000000      0.00000000</v>
   <v name="DARWINV">      1.00000000      1.00000000      1.00000000</v>
   <i type="logical" name="LCORR"> T  </i>
  </separator>
  <i type="logical" name="GGA_COMPAT"> T  </i>
  <i type="logical" name="LBERRY"> F  </i>
  <i type="int" name="ICORELEVEL">     0</i>
  <i type="logical" name="LDAU"> F  </i>
  <i type="int" name="I_CONSTRAINED_M">     0</i>
  <separator name="electronic exchange-correlation" >
   <i type="string" name="GGA">PS</i>
   <i type="int" name="VOSKOWN">     0</i>
   <i type="logical" name="LHFCALC"> F  </i>
   <i type="string" name="PRECFOCK"></i>
   <i type="logical" name="LSYMGRAD"> F  </i>
   <i type="logical" name="LHFONE"> F  </i>
   <i type="logical" name="LRHFCALC"> F  </i>
   <i type="logical" name="LTHOMAS"> F  </i>
   <i type="logical" name="LMODELHF"> F  </i>
   <i type="logical" name="LFOCKACE"> F  </i>
   <i name="ENCUT4O">     -1.00000000</i>
   <i type="int" name="EXXOEP">     0</i>
   <i type="int" name="FOURORBIT">     0</i>
   <i name="AEXX">      0.00000000</i>
   <i name="HFALPHA">      0.00000000</i>
   <i name="MCALPHA">      0.00000000</i>
   <i name="ALDAX">      1.00000000</i>
   <i name="AGGAX">      1.00000000</i>
   <i name="ALDAC">      1.00000000</i>
   <i name="AGGAC">      1.00000000</i>
   <i type="int" name="NKREDX">     1</i>
   <i type="int" name="NKREDY">     1</i>
   <i type="int" name="NKREDZ">     1</i>
   <i type="logical" name="SHIFTRED"> F  </i>
   <i type="logical" name="ODDONLY"> F  </i>
   <i type="logical" name="EVENONLY"> F  </i>
   <i type="int" name="LMAXFOCK">     0</i>
   <i type="int" name="NMAXFOCKAE">     0</i>
   <i type="logical" name="LFOCKAEDFT"> F  </i>
   <i name="HFSCREEN">      0.00000000</i>
   <i name="HFSCREENC">      0.00000000</i>
   <i type="int" name="NBANDSGWLOW">     0</i>
  </separator>
  <separator name="vdW DFT" >
   <i type="logical" name="LUSE_VDW"> F  </i>
   <i name="Zab_VDW">     -0.84910000</i>
   <i name="PARAM1">      0.12340000</i>
   <i name="PARAM2">      1.00000000</i>
   <i name="PARAM3">      0.00000000</i>
  </separator>
  <separator name="model GW" >
   <i type="int" name="MODEL_GW">     0</i>
   <i name="MODEL_EPS0">     16.71173037</i>
   <i name="MODEL_ALPHA">      1.00000000</i>
  </separator>
  <separator name="linear response parameters" >
   <i type="logical" name="LEPSILON"> F  </i>
   <i type="logical" name="LRPA"> F  </i>
   <i type="logical" name="LNABLA"> F  </i>
   <i type="logical" name="LVEL"> F  </i>
   <i type="int" name="KINTER">     0</i>
   <i name="CSHIFT">      0.10000000</i>
   <i name="OMEGAMAX">     -1.00000000</i>
   <i name="DEG_THRESHOLD">      0.00200000</i>
   <i name="RTIME">     -0.10000000</i>
   <i name="WPLASMAI">      0.00000000</i>
   <v name="DFIELD">      0.00000000      0.00000000      0.00000000</v>
   <v name="WPLASMA">      0.00000000      0.00000000      0.00000000      0.00000000      0.00000000      0.00000000      0.00000000      0.00000000      0.00000000</v>
  </separator>
  <separator name="orbital magnetization" >
   <i type="logical" name="NUCIND"> F  </i>
   <v name="MAGPOS">      0.00000000      0.00000000      0.00000000</v>
   <i type="logical" name="LNICSALL"> T  </i>
   <i type="logical" name="ORBITALMAG"> F  </i>
   <i type="logical" name="LMAGBLOCH"> F  </i>
   <i type="logical" name="LCHIMAG"> F  </i>
   <i type="logical" name="LGAUGE"> T  </i>
   <i type="int" name="MAGATOM">     0</i>
   <v name="MAGDIPOL">      0.00000000      0.00000000      0.00000000</v>
   <v name="AVECCONST">      0.00000000      0.00000000      0.00000000</v>
  </separator>
  <separator name="response functions" >
   <i type="logical" name="LFINITE_TEMPERATURE"> F  </i>
   <i type="logical" name="LADDER"> F  </i>
   <i type="logical" name="LRPAFORCE"> F  </i>
   <i type="logical" name="LFXC"> F  </i>
   <i type="logical" name="LHARTREE"> T  </i>
   <i type="int" name="IBSE">     0</i>
   <v type="int" name="KPOINT">    -1     0     0     0</v>
   <i type="logical" name="LTCTC"> F  </i>
   <i type="logical" name="LTCTE"> F  </i>
   <i type="logical" name="LTETE"> F  </i>
   <i type="logical" name="LTRIPLET"> F  </i>
   <i type="logical" name="LFXCEPS"> F  </i>
   <i type="logical" name="LFXHEG"> F  </i>
   <i type="int" name="NATURALO">     2</i>
   <i type="logical" name="L2ORDER"> F  </i>
   <i type="logical" name="LDMP1"> F  </i>
   <i type="logical" name="LMP2LT"> F  </i>
   <i type="logical" name="LSMP2LT"> F  </i>
   <i type="logical" name="LUSEW"> F  </i>
   <i name="ENCUTGW">     -2.00000000</i>
   <i name="ENCUTGWSOFT">     -2.00000000</i>
   <i name="ENCUTLF">     -1.00000000</i>
   <i type="int" name="LMAXMP2">    -1</i>
   <i name="SCISSOR">      0.00000000</i>
   <i type="int" name="NOMEGA">     0</i>
   <i type="int" name="NOMEGAR">     0</i>
   <i type="int" name="NBANDSGW">    -1</i>
   <i type="int" name="NBANDSO">    -1</i>
   <i type="int" name="NBANDSV">    -1</i>
   <i type="int" name="NELM">     1</i>
   <i type="int" name="NELMHF">     1</i>
   <i type="int" name="DIM">     3</i>
   <i type="int" name="IESPILON">     4</i>
   <i type="int" name="ANTIRES">     0</i>
   <i name="OMEGAMAX">    -30.00000000</i>
   <i name="OMEGAMIN">    -30.00000000</i>
   <i name="OMEGATL">   -200.00000000</i>
   <i type="int" name="OMEGAGRID">   145</i>
   <i name="CSHIFT">     -0.10000000</i>
   <i type="logical" name="LSELFENERGY"> F  </i>
   <i type="logical" name="LSPECTRAL"> F  </i>
   <i type="logical" name="LSPECTRALGW"> F  </i>
   <i type="logical" name="LSINGLES"> F  </i>
   <i type="logical" name="LFERMIGW"> F  </i>
   <i type="logical" name="ODDONLYGW"> F  </i>
   <i type="logical" name="EVENONLYGW"> F  </i>
   <i type="int" name="NKREDLFX">     1</i>
   <i type="int" name="NKREDLFY">     1</i>
   <i type="int" name="NKREDLFZ">     1</i>
   <i type="int" name="MAXMEM">  2800</i>
   <i type="int" name="TELESCOPE">     0</i>
   <i type="int" name="NTAUPAR">     1</i>
   <i type="int" name="NOMEGAPAR">    -1</i>
   <i name="LAMBDA">      1.00000000</i>
  </separator>
  <separator name="External order field" >
   <i name="OFIELD_KAPPA">      0.00000000</i>
   <v name="OFIELD_K">      0.00000000      0.00000000      0.00000000</v>
   <i name="OFIELD_Q6_NEAR">      0.00000000</i>
   <i name="OFIELD_Q6_FAR">      0.00000000</i>
   <i name="OFIELD_A">      0.00000000</i>
  </separator>
 </parameters>
 <atominfo>
  <atoms>       3 </atoms>
  <types>       3 </types>
  <array name="atoms" >
   <dimension dim="1">ion</dimension>
   <field type="string">element</field>
   <field type="int">atomtype</field>
   <set>
    <rc><c>Th</c><c>   1</c></rc>
    <rc><c>Bi</c><c>   2</c></rc>
    <rc><c>Pt</c><c>   3</c></rc>
   </set>
  </array>
  <array name="atomtypes" >
   <dimension dim="1">type</dimension>
   <field type="int">atomspertype</field>
   <field type="string">element</field>
   <field>mass</field>
   <field>valence</field>
   <field type="string">pseudopotential</field>
   <set>
    <rc><c>   1</c><c>Th</c><c>    232.03900000</c><c>     12.00000000</c><c>  PAW_PBE Th 07Sep2000                  </c></rc>
    <rc><c>   1</c><c>Bi</c><c>    208.98000000</c><c>     15.00000000</c><c>  PAW_PBE Bi_d 06Sep2000                </c></rc>
    <rc><c>   1</c><c>Pt</c><c>    195.08000000</c><c>     10.00000000</c><c>  PAW_PBE Pt 04Feb2005                  </c></rc>
   </set>
  </array>
 </atominfo>
 <structure name="initialpos" >
  <crystal>
   <varray name="basis" >
    <v>       0.00000000       3.46992810       3.46992810 </v>
    <v>       3.46992810       0.00000000       3.46992810 </v>
    <v>       3.46992810       3.46992810       0.00000000 </v>
   </varray>
   <i name="volume">     83.55865185 </i>
   <varray name="rec_basis" >
    <v>      -0.14409520       0.14409520       0.14409520 </v>
    <v>       0.14409520      -0.14409520       0.14409520 </v>
    <v>       0.14409520       0.14409520      -0.14409520 </v>
   </varray>
  </crystal>
  <varray name="positions" >
   <v>       0.25000000       0.25000000       0.25000000 </v>
   <v>       0.75000000       0.75000000       0.75000000 </v>
   <v>       0.00000000       0.00000000       0.00000000 </v>
  </varray>
 </structure>
 <calculation>
  <scstep>
   <time name="dav">    1.53    1.54</time>
   <time name="total">    1.66    1.77</time>
   <energy>
    <i name="alphaZ">    205.62278828 </i>
    <i name="ewald">  -3087.14763294 </i>
    <i name="hartreedc">   -774.17932976 </i>
    <i name="XCdc">     67.88800264 </i>
    <i name="pawpsdc">   3147.30828992 </i>
    <i name="pawaedc">  -3070.62761383 </i>
    <i name="eentropy">     -0.00021252 </i>
    <i name="bandstr">    276.98541711 </i>
    <i name="atom">   3674.67342263 </i>
    <i name="e_fr_energy">    440.52313154 </i>
    <i name="e_wo_entrp">    440.52334406 </i>
    <i name="e_0_energy">    440.52323780 </i>
   </energy>
  </scstep>
  <scstep>
   <time name="dav">    1.56    1.59</time>
   <time name="total">    1.57    1.59</time>
   <energy>
    <i name="e_fr_energy">     44.52849248 </i>
    <i name="e_wo_entrp">     44.52866121 </i>
    <i name="e_0_energy">     44.52857684 </i>
   </energy>
  </scstep>
  <scstep>
   <time name="dav">    1.92    1.95</time>
   <time name="total">    1.93    1.95</time>
   <energy>
    <i name="e_fr_energy">    -18.56279207 </i>
    <i name="e_wo_entrp">    -18.56248581 </i>
    <i name="e_0_energy">    -18.56263894 </i>
   </energy>
  </scstep>
  <scstep>
   <time name="dav">    2.41    2.43</time>
   <time name="total">    2.41    2.43</time>
   <energy>
    <i name="e_fr_energy">    -22.82277703 </i>
    <i name="e_wo_entrp">    -22.82261887 </i>
    <i name="e_0_energy">    -22.82269795 </i>
   </energy>
  </scstep>
  <scstep>
   <time name="dav">    1.96    2.00</time>
   <time name="total">    2.30    2.34</time>
   <energy>
    <i name="e_fr_energy">    -22.94613980 </i>
    <i name="e_wo_entrp">    -22.94598179 </i>
    <i name="e_0_energy">    -22.94606079 </i>
   </energy>
  </scstep>
  <scstep>
   <time name="dav">    1.78    1.78</time>
   <time name="total">    2.21    2.25</time>
   <energy>
    <i name="e_fr_energy">    -21.99158318 </i>
    <i name="e_wo_entrp">    -21.99135372 </i>
    <i name="e_0_energy">    -21.99146845 </i>
   </energy>
  </scstep>
  <scstep>
   <time name="dav">    2.04    2.04</time>
   <time name="total">    2.45    2.48</time>
   <energy>
    <i name="e_fr_energy">    -21.87934114 </i>
    <i name="e_wo_entrp">    -21.87900662 </i>
    <i name="e_0_energy">    -21.87917388 </i>
   </energy>
  </scstep>
  <scstep>
   <time name="dav">    1.85    1.85</time>
   <time name="total">    2.25    2.29</time>
   <energy>
    <i name="e_fr_energy">    -21.82831009 </i>
    <i name="e_wo_entrp">    -21.82816839 </i>
    <i name="e_0_energy">    -21.82823924 </i>
   </energy>
  </scstep>
  <scstep>
   <time name="dav">    2.03    2.03</time>
   <time name="total">    2.43    2.49</time>
   <energy>
    <i name="e_fr_energy">    -21.81672399 </i>
    <i name="e_wo_entrp">    -21.81654325 </i>
    <i name="e_0_energy">    -21.81663362 </i>
   </energy>
  </scstep>
  <scstep>
   <time name="dav">    1.74    1.74</time>
   <time name="total">    2.15    2.18</time>
   <energy>
    <i name="e_fr_energy">    -21.81131601 </i>
    <i name="e_wo_entrp">    -21.81115542 </i>
    <i name="e_0_energy">    -21.81123571 </i>
   </energy>
  </scstep>
  <scstep>
   <time name="dav">    1.95    1.95</time>
   <time name="total">    2.35    2.40</time>
   <energy>
    <i name="e_fr_energy">    -21.81144105 </i>
    <i name="e_wo_entrp">    -21.81127857 </i>
    <i name="e_0_energy">    -21.81135981 </i>
   </energy>
  </scstep>
  <scstep>
   <time name="dav">    1.90    1.90</time>
   <time name="total">    2.31    2.34</time>
   <energy>
    <i name="e_fr_energy">    -21.81131309 </i>
    <i name="e_wo_entrp">    -21.81114832 </i>
    <i name="e_0_energy">    -21.81123070 </i>
   </energy>
  </scstep>
  <scstep>
   <time name="dav">    2.19    2.19</time>
   <time name="total">    2.59    2.63</time>
   <energy>
    <i name="e_fr_energy">    -21.81131444 </i>
    <i name="e_wo_entrp">    -21.81114860 </i>
    <i name="e_0_energy">    -21.81123152 </i>
   </energy>
  </scstep>
  <scstep>
   <time name="dav">    1.82    1.82</time>
   <time name="total">    2.22    2.26</time>
   <energy>
    <i name="e_fr_energy">    -21.81131291 </i>
    <i name="e_wo_entrp">    -21.81114767 </i>
    <i name="e_0_energy">    -21.81123029 </i>
   </energy>
  </scstep>
  <scstep>
   <time name="dav">    2.20    2.20</time>
   <time name="total">    2.61    2.65</time>
   <energy>
    <i name="e_fr_energy">    -21.81131266 </i>
    <i name="e_wo_entrp">    -21.81114737 </i>
    <i name="e_0_energy">    -21.81123001 </i>
   </energy>
  </scstep>
  <scstep>
   <time name="dav">    1.41    1.41</time>
   <time name="total">    1.54    1.57</time>
   <energy>
    <i name="alphaZ">    205.62278828 </i>
    <i name="ewald">  -3087.14763294 </i>
    <i name="hartreedc">   -748.54364980 </i>
    <i name="XCdc">     67.21583922 </i>
    <i name="pawpsdc">   3819.96358099 </i>
    <i name="pawaedc">  -3751.72073917 </i>
    <i name="eentropy">     -0.00016528 </i>
    <i name="bandstr">   -201.87475660 </i>
    <i name="atom">   3674.67342263 </i>
    <i name="e_fr_energy">    -21.81131266 </i>
    <i name="e_wo_entrp">    -21.81114738 </i>
    <i name="e_0_energy">    -21.81123002 </i>
   </energy>
  </scstep>
  <structure>
   <crystal>
    <varray name="basis" >
     <v>       0.00000000       3.46992810       3.46992810 </v>
     <v>       3.46992810       0.00000000       3.46992810 </v>
     <v>       3.46992810       3.46992810       0.00000000 </v>
    </varray>
    <i name="volume">     83.55865185 </i>
    <varray name="rec_basis" >
     <v>      -0.14409520       0.14409520       0.14409520 </v>
     <v>       0.14409520      -0.14409520       0.14409520 </v>
     <v>       0.14409520       0.14409520      -0.14409520 </v>
    </varray>
   </crystal>
   <varray name="positions" >
    <v>       0.25000000       0.25000000       0.25000000 </v>
    <v>       0.75000000       0.75000000       0.75000000 </v>
    <v>       0.00000000       0.00000000       0.00000000 </v>
   </varray>
  </structure>
  <varray name="forces" >
   <v>       0.00000000       0.00000000       0.00000000 </v>
   <v>       0.00000000       0.00000000       0.00000000 </v>
   <v>      -0.00000000      -0.00000000      -0.00000000 </v>
  </varray>
  <varray name="stress" >
   <v>     -37.75163727      -0.00000000       0.00000000 </v>
   <v>       0.00000000     -37.75163727       0.00000000 </v>
   <v>       0.00000000       0.00000000     -37.75163727 </v>
  </varray>
  <energy>
   <i name="e_fr_energy">    -21.81131266 </i>
   <i name="e_wo_entrp">    -21.81123002 </i>
   <i name="e_0_energy">     -0.00016528 </i>
  </energy>
  <time name="totalsc">   38.82   40.65</time>
  <eigenvalues>
   <array>
    <dimension dim="1">band</dimension>
    <dimension dim="2">kpoint</dimension>
    <dimension dim="3">spin</dimension>
    <field>eigene</field>
    <field>occ</field>
    <set>
     <set comment="spin 1">
      <set comment="kpoint 1">
       <r>  -32.1628    1.0000 </r>
       <r>  -14.8848    1.0000 </r>
       <r>  -14.8848    1.0000 </r>
       <r>  -14.8541    1.0000 </r>
       <r>  -14.8541    1.0000 </r>
       <r>  -14.8541    1.0000 </r>
       <r>  -10.0963    1.0000 </r>
       <r>  -10.0963    1.0000 </r>
       <r>  -10.0963    1.0000 </r>
       <r>   -4.0150    1.0000 </r>
       <r>    3.8737    1.0000 </r>
       <r>    3.8737    1.0000 </r>
       <r>    3.8737    1.0000 </r>
       <r>    4.1195    1.0000 </r>
       <r>    4.1195    1.0000 </r>
       <r>    5.9994    1.0000 </r>
       <r>    6.9981    1.0000 </r>
       <r>    6.9981    1.0000 </r>
       <r>    6.9981    1.0000 </r>
       <r>    8.2786    0.0000 </r>
       <r>    8.2786    0.0000 </r>
       <r>    8.2786    0.0000 </r>
       <r>    9.0527    0.0000 </r>
       <r>    9.9154    0.0000 </r>
      </set>
      <set comment="kpoint 2">
       <r>  -32.1626    1.0000 </r>
       <r>  -14.8854    1.0000 </r>
       <r>  -14.8854    1.0000 </r>
       <r>  -14.8542    1.0000 </r>
       <r>  -14.8540    1.0000 </r>
       <r>  -14.8540    1.0000 </r>
       <r>  -10.1096    1.0000 </r>
       <r>  -10.0947    1.0000 </r>
       <r>  -10.0947    1.0000 </r>
       <r>   -3.9613    1.0000 </r>
       <r>    3.7374    1.0000 </r>
       <r>    3.7691    1.0000 </r>
       <r>    3.7691    1.0000 </r>
       <r>    4.2180    1.0000 </r>
       <r>    4.2180    1.0000 </r>
       <r>    5.7754    1.0000 </r>
       <r>    6.9177    1.0000 </r>
       <r>    6.9177    1.0000 </r>
       <r>    7.1259    1.0000 </r>
       <r>    8.3704    0.0000 </r>
       <r>    8.3704    0.0000 </r>
       <r>    8.3725    0.0000 </r>
       <r>    9.2551    0.0000 </r>
       <r>    9.9242    0.0000 </r>
      </set>
      <set comment="kpoint 3">
       <r>  -32.1619    1.0000 </r>
       <r>  -14.8870    1.0000 </r>
       <r>  -14.8870    1.0000 </r>
       <r>  -14.8546    1.0000 </r>
       <r>  -14.8537    1.0000 </r>
       <r>  -14.8537    1.0000 </r>
       <r>  -10.1453    1.0000 </r>
       <r>  -10.0903    1.0000 </r>
       <r>  -10.0903    1.0000 </r>
       <r>   -3.8122    1.0000 </r>
       <r>    3.3995    1.0000 </r>
       <r>    3.6181    1.0000 </r>
       <r>    3.6181    1.0000 </r>
       <r>    4.3415    1.0000 </r>
       <r>    4.3415    1.0000 </r>
       <r>    5.3582    1.0000 </r>
       <r>    6.7498    1.0000 </r>
       <r>    6.7498    1.0000 </r>
       <r>    7.2566    1.0000 </r>
       <r>    8.5871    0.0000 </r>
       <r>    8.5871    0.0000 </r>
       <r>    8.7783    0.0000 </r>
       <r>    9.6127    0.0000 </r>
       <r>    9.9432    0.0000 </r>
      </set>
      <set comment="kpoint 4">
       <r>  -32.1610    1.0000 </r>
       <r>  -14.8893    1.0000 </r>
       <r>  -14.8893    1.0000 </r>
       <r>  -14.8551    1.0000 </r>
       <r>  -14.8531    1.0000 </r>
       <r>  -14.8531    1.0000 </r>
       <r>  -10.1931    1.0000 </r>
       <r>  -10.0841    1.0000 </r>
       <r>  -10.0841    1.0000 </r>
       <r>   -3.6007    1.0000 </r>
       <r>    2.9911    1.0000 </r>
       <r>    3.5004    1.0000 </r>
       <r>    3.5004    1.0000 </r>
       <r>    4.3926    1.0000 </r>
       <r>    4.3926    1.0000 </r>
       <r>    4.9608    1.0000 </r>
       <r>    6.6007    1.0000 </r>
       <r>    6.6007    1.0000 </r>
       <r>    7.3446    1.0000 </r>
       <r>    8.8480    0.0000 </r>
       <r>    8.8480    0.0000 </r>
       <r>    9.3500    0.0000 </r>
       <r>    9.8861    0.0000 </r>
       <r>    9.9395    0.0000 </r>
      </set>
      <set comment="kpoint 5">
       <r>  -32.1600    1.0000 </r>
       <r>  -14.8917    1.0000 </r>
       <r>  -14.8917    1.0000 </r>
       <r>  -14.8557    1.0000 </r>
       <r>  -14.8526    1.0000 </r>
       <r>  -14.8526    1.0000 </r>
       <r>  -10.2408    1.0000 </r>
       <r>  -10.0775    1.0000 </r>
       <r>  -10.0775    1.0000 </r>
       <r>   -3.3744    1.0000 </r>
       <r>    2.6147    1.0000 </r>
       <r>    3.4308    1.0000 </r>
       <r>    3.4308    1.0000 </r>
       <r>    4.3572    1.0000 </r>
       <r>    4.3572    1.0000 </r>
       <r>    4.6560    1.0000 </r>
       <r>    6.5172    1.0000 </r>
       <r>    6.5172    1.0000 </r>
       <r>    7.4629    1.0000 </r>
       <r>    9.0998    0.0000 </r>
       <r>    9.0998    0.0000 </r>
       <r>    9.7950    0.0000 </r>
       <r>    9.9052    0.0000 </r>
       <r>    9.9052    0.0000 </r>
      </set>
      <set comment="kpoint 6">
       <r>  -32.1591    1.0000 </r>
       <r>  -14.8938    1.0000 </r>
       <r>  -14.8938    1.0000 </r>
       <r>  -14.8563    1.0000 </r>
       <r>  -14.8521    1.0000 </r>
       <r>  -14.8521    1.0000 </r>
       <r>  -10.2782    1.0000 </r>
       <r>  -10.0720    1.0000 </r>
       <r>  -10.0720    1.0000 </r>
       <r>   -3.1853    1.0000 </r>
       <r>    2.3340    1.0000 </r>
       <r>    3.4052    1.0000 </r>
       <r>    3.4052    1.0000 </r>
       <r>    4.2733    1.0000 </r>
       <r>    4.2733    1.0000 </r>
       <r>    4.4620    1.0000 </r>
       <r>    6.4893    1.0000 </r>
       <r>    6.4893    1.0000 </r>
       <r>    7.6213    1.0000 </r>
       <r>    9.2948    0.0000 </r>
       <r>    9.2948    0.0000 </r>
       <r>    9.8705    0.0000 </r>
       <r>    9.8706    0.0000 </r>
       <r>    9.9290    0.0000 </r>
      </set>
      <set comment="kpoint 7">
       <r>  -32.1586    1.0000 </r>
       <r>  -14.8949    1.0000 </r>
       <r>  -14.8949    1.0000 </r>
       <r>  -14.8566    1.0000 </r>
       <r>  -14.8518    1.0000 </r>
       <r>  -14.8518    1.0000 </r>
       <r>  -10.2985    1.0000 </r>
       <r>  -10.0689    1.0000 </r>
       <r>  -10.0689    1.0000 </r>
       <r>   -3.0778    1.0000 </r>
       <r>    2.1854    1.0000 </r>
       <r>    3.4040    1.0000 </r>
       <r>    3.4040    1.0000 </r>
       <r>    4.2057    1.0000 </r>
       <r>    4.2057    1.0000 </r>
       <r>    4.3710    1.0000 </r>
       <r>    6.4858    1.0000 </r>
       <r>    6.4858    1.0000 </r>
       <r>    7.7608    1.0000 </r>
       <r>    9.3990    0.0000 </r>
       <r>    9.3990    0.0000 </r>
       <r>    9.8341    0.0000 </r>
       <r>    9.8479    0.0000 </r>
       <r>    9.8479    0.0000 </r>
      </set>
      <set comment="kpoint 8">
       <r>  -32.1625    1.0000 </r>
       <r>  -14.8865    1.0000 </r>
       <r>  -14.8846    1.0000 </r>
       <r>  -14.8544    1.0000 </r>
       <r>  -14.8539    1.0000 </r>
       <r>  -14.8539    1.0000 </r>
       <r>  -10.1064    1.0000 </r>
       <r>  -10.0981    1.0000 </r>
       <r>  -10.0981    1.0000 </r>
       <r>   -3.9449    1.0000 </r>
       <r>    3.5081    1.0000 </r>
       <r>    3.8876    1.0000 </r>
       <r>    3.8876    1.0000 </r>
       <r>    4.1357    1.0000 </r>
       <r>    4.2503    1.0000 </r>
       <r>    5.7615    1.0000 </r>
       <r>    6.8032    1.0000 </r>
       <r>    6.8032    1.0000 </r>
       <r>    7.3514    1.0000 </r>
       <r>    8.1060    0.0000 </r>
       <r>    8.5253    0.0000 </r>
       <r>    8.5253    0.0000 </r>
       <r>    9.2914    0.0000 </r>
       <r>    9.9040    0.0000 </r>
      </set>
      <set comment="kpoint 9">
       <r>  -32.1620    1.0000 </r>
       <r>  -14.8883    1.0000 </r>
       <r>  -14.8850    1.0000 </r>
       <r>  -14.8547    1.0000 </r>
       <r>  -14.8536    1.0000 </r>
       <r>  -14.8536    1.0000 </r>
       <r>  -10.1329    1.0000 </r>
       <r>  -10.0980    1.0000 </r>
       <r>  -10.0930    1.0000 </r>
       <r>   -3.8319    1.0000 </r>
       <r>    3.2296    1.0000 </r>
       <r>    3.7739    1.0000 </r>
       <r>    3.8108    1.0000 </r>
       <r>    4.2251    1.0000 </r>
       <r>    4.3408    1.0000 </r>
       <r>    5.4908    1.0000 </r>
       <r>    6.6230    1.0000 </r>
       <r>    6.6389    1.0000 </r>
       <r>    7.5820    1.0000 </r>
       <r>    8.1281    0.0000 </r>
       <r>    8.7508    0.0000 </r>
       <r>    8.8201    0.0000 </r>
       <r>    9.5568    0.0000 </r>
       <r>    9.8956    0.0000 </r>
      </set>
      <set comment="kpoint 10">
       <r>  -32.1611    1.0000 </r>
       <r>  -14.8905    1.0000 </r>
       <r>  -14.8865    1.0000 </r>
       <r>  -14.8551    1.0000 </r>
       <r>  -14.8533    1.0000 </r>
       <r>  -14.8531    1.0000 </r>
       <r>  -10.1762    1.0000 </r>
       <r>  -10.0946    1.0000 </r>
       <r>  -10.0857    1.0000 </r>
       <r>   -3.6484    1.0000 </r>
       <r>    2.9378    1.0000 </r>
       <r>    3.5660    1.0000 </r>
       <r>    3.6962    1.0000 </r>
       <r>    4.3011    1.0000 </r>
       <r>    4.4259    1.0000 </r>
       <r>    5.1255    1.0000 </r>
       <r>    6.4518    1.0000 </r>
       <r>    6.5105    1.0000 </r>
       <r>    7.6404    1.0000 </r>
       <r>    8.4564    0.0000 </r>
       <r>    8.9809    0.0000 </r>
       <r>    9.2459    0.0000 </r>
       <r>    9.8276    0.0000 </r>
       <r>    9.8880    0.0000 </r>
      </set>
      <set comment="kpoint 11">
       <r>  -32.1601    1.0000 </r>
       <r>  -14.8925    1.0000 </r>
       <r>  -14.8888    1.0000 </r>
       <r>  -14.8556    1.0000 </r>
       <r>  -14.8528    1.0000 </r>
       <r>  -14.8525    1.0000 </r>
       <r>  -10.2231    1.0000 </r>
       <r>  -10.0886    1.0000 </r>
       <r>  -10.0796    1.0000 </r>
       <r>   -3.4368    1.0000 </r>
       <r>    2.6515    1.0000 </r>
       <r>    3.4125    1.0000 </r>
       <r>    3.6053    1.0000 </r>
       <r>    4.2940    1.0000 </r>
       <r>    4.4371    1.0000 </r>
       <r>    4.7921    1.0000 </r>
       <r>    6.3559    1.0000 </r>
       <r>    6.4513    1.0000 </r>
       <r>    7.6456    1.0000 </r>
       <r>    8.8589    0.0000 </r>
       <r>    9.1873    0.0000 </r>
       <r>    9.6622    0.0000 </r>
       <r>    9.8766    0.0000 </r>
       <r>    9.9272    0.0000 </r>
      </set>
      <set comment="kpoint 12">
       <r>  -32.1593    1.0000 </r>
       <r>  -14.8939    1.0000 </r>
       <r>  -14.8913    1.0000 </r>
       <r>  -14.8560    1.0000 </r>
       <r>  -14.8524    1.0000 </r>
       <r>  -14.8520    1.0000 </r>
       <r>  -10.2631    1.0000 </r>
       <r>  -10.0814    1.0000 </r>
       <r>  -10.0759    1.0000 </r>
       <r>   -3.2455    1.0000 </r>
       <r>    2.4139    1.0000 </r>
       <r>    3.3478    1.0000 </r>
       <r>    3.5359    1.0000 </r>
       <r>    4.2386    1.0000 </r>
       <r>    4.3777    1.0000 </r>
       <r>    4.5491    1.0000 </r>
       <r>    6.3266    1.0000 </r>
       <r>    6.4424    1.0000 </r>
       <r>    7.7117    1.0000 </r>
       <r>    9.1650    0.0000 </r>
       <r>    9.3451    0.0000 </r>
       <r>    9.8177    0.0000 </r>
       <r>    9.8577    0.0000 </r>
       <r>    9.9600    0.0000 </r>
      </set>
      <set comment="kpoint 13">
       <r>  -32.1587    1.0000 </r>
       <r>  -14.8945    1.0000 </r>
       <r>  -14.8935    1.0000 </r>
       <r>  -14.8564    1.0000 </r>
       <r>  -14.8521    1.0000 </r>
       <r>  -14.8517    1.0000 </r>
       <r>  -10.2883    1.0000 </r>
       <r>  -10.0755    1.0000 </r>
       <r>  -10.0747    1.0000 </r>
       <r>   -3.1183    1.0000 </r>
       <r>    2.2647    1.0000 </r>
       <r>    3.3596    1.0000 </r>
       <r>    3.4675    1.0000 </r>
       <r>    4.2061    1.0000 </r>
       <r>    4.2903    1.0000 </r>
       <r>    4.4097    1.0000 </r>
       <r>    6.3283    1.0000 </r>
       <r>    6.4487    1.0000 </r>
       <r>    7.8244    1.0000 </r>
       <r>    9.3160    0.0000 </r>
       <r>    9.4316    0.0000 </r>
       <r>    9.8028    0.0000 </r>
       <r>    9.8368    0.0000 </r>
       <r>    9.9379    0.0000 </r>
      </set>
      <set comment="kpoint 14">
       <r>  -32.1585    1.0000 </r>
       <r>  -14.8948    1.0000 </r>
       <r>  -14.8939    1.0000 </r>
       <r>  -14.8565    1.0000 </r>
       <r>  -14.8519    1.0000 </r>
       <r>  -14.8517    1.0000 </r>
       <r>  -10.2948    1.0000 </r>
       <r>  -10.0784    1.0000 </r>
       <r>  -10.0700    1.0000 </r>
       <r>   -3.0835    1.0000 </r>
       <r>    2.2251    1.0000 </r>
       <r>    3.3909    1.0000 </r>
       <r>    3.4205    1.0000 </r>
       <r>    4.2190    1.0000 </r>
       <r>    4.2417    1.0000 </r>
       <r>    4.3774    1.0000 </r>
       <r>    6.3254    1.0000 </r>
       <r>    6.4527    1.0000 </r>
       <r>    7.8783    1.0000 </r>
       <r>    9.3476    0.0000 </r>
       <r>    9.4277    0.0000 </r>
       <r>    9.8065    0.0000 </r>
       <r>    9.8283    0.0000 </r>
       <r>    9.9027    0.0000 </r>
      </set>
      <set comment="kpoint 15">
       <r>  -32.1588    1.0000 </r>
       <r>  -14.8950    1.0000 </r>
       <r>  -14.8924    1.0000 </r>
       <r>  -14.8562    1.0000 </r>
       <r>  -14.8520    1.0000 </r>
       <r>  -14.8519    1.0000 </r>
       <r>  -10.2816    1.0000 </r>
       <r>  -10.0839    1.0000 </r>
       <r>  -10.0683    1.0000 </r>
       <r>   -3.1489    1.0000 </r>
       <r>    2.3024    1.0000 </r>
       <r>    3.3267    1.0000 </r>
       <r>    3.5011    1.0000 </r>
       <r>    4.2023    1.0000 </r>
       <r>    4.3329    1.0000 </r>
       <r>    4.4462    1.0000 </r>
       <r>    6.2978    1.0000 </r>
       <r>    6.4611    1.0000 </r>
       <r>    7.8073    1.0000 </r>
       <r>    9.3167    0.0000 </r>
       <r>    9.3631    0.0000 </r>
       <r>    9.8192    0.0000 </r>
       <r>    9.8406    0.0000 </r>
       <r>    9.9585    0.0000 </r>
      </set>
      <set comment="kpoint 16">
       <r>  -32.1595    1.0000 </r>
       <r>  -14.8939    1.0000 </r>
       <r>  -14.8904    1.0000 </r>
       <r>  -14.8558    1.0000 </r>
       <r>  -14.8524    1.0000 </r>
       <r>  -14.8524    1.0000 </r>
       <r>  -10.2508    1.0000 </r>
       <r>  -10.0905    1.0000 </r>
       <r>  -10.0700    1.0000 </r>
       <r>   -3.3003    1.0000 </r>
       <r>    2.4932    1.0000 </r>
       <r>    3.3032    1.0000 </r>
       <r>    3.5893    1.0000 </r>
       <r>    4.2396    1.0000 </r>
       <r>    4.4317    1.0000 </r>
       <r>    4.6162    1.0000 </r>
       <r>    6.2514    1.0000 </r>
       <r>    6.4990    1.0000 </r>
       <r>    7.7091    1.0000 </r>
       <r>    9.1051    0.0000 </r>
       <r>    9.2658    0.0000 </r>
       <r>    9.8040    0.0000 </r>
       <r>    9.8637    0.0000 </r>
       <r>    9.9584    0.0000 </r>
      </set>
      <set comment="kpoint 17">
       <r>  -32.1605    1.0000 </r>
       <r>  -14.8920    1.0000 </r>
       <r>  -14.8882    1.0000 </r>
       <r>  -14.8553    1.0000 </r>
       <r>  -14.8530    1.0000 </r>
       <r>  -14.8528    1.0000 </r>
       <r>  -10.2080    1.0000 </r>
       <r>  -10.0967    1.0000 </r>
       <r>  -10.0748    1.0000 </r>
       <r>   -3.5037    1.0000 </r>
       <r>    2.7794    1.0000 </r>
       <r>    3.3382    1.0000 </r>
       <r>    3.6950    1.0000 </r>
       <r>    4.2748    1.0000 </r>
       <r>    4.4840    1.0000 </r>
       <r>    4.8898    1.0000 </r>
       <r>    6.2288    1.0000 </r>
       <r>    6.5946    1.0000 </r>
       <r>    7.6554    1.0000 </r>
       <r>    8.8331    0.0000 </r>
       <r>    9.0114    0.0000 </r>
       <r>    9.5594    0.0000 </r>
       <r>    9.8868    0.0000 </r>
       <r>    9.9399    0.0000 </r>
      </set>
      <set comment="kpoint 18">
       <r>  -32.1614    1.0000 </r>
       <r>  -14.8895    1.0000 </r>
       <r>  -14.8863    1.0000 </r>
       <r>  -14.8548    1.0000 </r>
       <r>  -14.8535    1.0000 </r>
       <r>  -14.8533    1.0000 </r>
       <r>  -10.1623    1.0000 </r>
       <r>  -10.1006    1.0000 </r>
       <r>  -10.0816    1.0000 </r>
       <r>   -3.7121    1.0000 </r>
       <r>    3.1225    1.0000 </r>
       <r>    3.4360    1.0000 </r>
       <r>    3.8223    1.0000 </r>
       <r>    4.2457    1.0000 </r>
       <r>    4.4568    1.0000 </r>
       <r>    5.2361    1.0000 </r>
       <r>    6.3091    1.0000 </r>
       <r>    6.7469    1.0000 </r>
       <r>    7.6144    1.0000 </r>
       <r>    8.5655    0.0000 </r>
       <r>    8.6109    0.0000 </r>
       <r>    9.1843    0.0000 </r>
       <r>    9.7506    0.0000 </r>
       <r>    9.9040    0.0000 </r>
      </set>
      <set comment="kpoint 19">
       <r>  -32.1622    1.0000 </r>
       <r>  -14.8872    1.0000 </r>
       <r>  -14.8853    1.0000 </r>
       <r>  -14.8545    1.0000 </r>
       <r>  -14.8539    1.0000 </r>
       <r>  -14.8537    1.0000 </r>
       <r>  -10.1260    1.0000 </r>
       <r>  -10.1000    1.0000 </r>
       <r>  -10.0888    1.0000 </r>
       <r>   -3.8773    1.0000 </r>
       <r>    3.4650    1.0000 </r>
       <r>    3.5883    1.0000 </r>
       <r>    3.8995    1.0000 </r>
       <r>    4.1835    1.0000 </r>
       <r>    4.3559    1.0000 </r>
       <r>    5.5626    1.0000 </r>
       <r>    6.5712    1.0000 </r>
       <r>    6.8909    1.0000 </r>
       <r>    7.4196    1.0000 </r>
       <r>    8.3379    0.0000 </r>
       <r>    8.3826    0.0000 </r>
       <r>    8.7937    0.0000 </r>
       <r>    9.4699    0.0000 </r>
       <r>    9.9335    0.0000 </r>
      </set>
      <set comment="kpoint 20">
       <r>  -32.1616    1.0000 </r>
       <r>  -14.8898    1.0000 </r>
       <r>  -14.8840    1.0000 </r>
       <r>  -14.8551    1.0000 </r>
       <r>  -14.8533    1.0000 </r>
       <r>  -14.8533    1.0000 </r>
       <r>  -10.1333    1.0000 </r>
       <r>  -10.1029    1.0000 </r>
       <r>  -10.1029    1.0000 </r>
       <r>   -3.7672    1.0000 </r>
       <r>    2.9529    1.0000 </r>
       <r>    3.9162    1.0000 </r>
       <r>    3.9162    1.0000 </r>
       <r>    4.1816    1.0000 </r>
       <r>    4.2696    1.0000 </r>
       <r>    5.4800    1.0000 </r>
       <r>    6.4930    1.0000 </r>
       <r>    6.4930    1.0000 </r>
       <r>    7.6821    1.0000 </r>
       <r>    8.0755    0.0000 </r>
       <r>    8.9602    0.0000 </r>
       <r>    8.9602    0.0000 </r>
       <r>    9.6522    0.0000 </r>
       <r>    9.8639    0.0000 </r>
      </set>
      <set comment="kpoint 21">
       <r>  -32.1609    1.0000 </r>
       <r>  -14.8913    1.0000 </r>
       <r>  -14.8843    1.0000 </r>
       <r>  -14.8556    1.0000 </r>
       <r>  -14.8529    1.0000 </r>
       <r>  -14.8528    1.0000 </r>
       <r>  -10.1637    1.0000 </r>
       <r>  -10.1039    1.0000 </r>
       <r>  -10.0993    1.0000 </r>
       <r>   -3.6355    1.0000 </r>
       <r>    2.7215    1.0000 </r>
       <r>    3.7909    1.0000 </r>
       <r>    3.8674    1.0000 </r>
       <r>    4.2400    1.0000 </r>
       <r>    4.3204    1.0000 </r>
       <r>    5.2897    1.0000 </r>
       <r>    6.2973    1.0000 </r>
       <r>    6.3870    1.0000 </r>
       <r>    7.8461    1.0000 </r>
       <r>    8.1970    0.0000 </r>
       <r>    9.1508    0.0000 </r>
       <r>    9.2337    0.0000 </r>
       <r>    9.8313    0.0000 </r>
       <r>    9.8382    0.0000 </r>
      </set>
      <set comment="kpoint 22">
       <r>  -32.1600    1.0000 </r>
       <r>  -14.8924    1.0000 </r>
       <r>  -14.8858    1.0000 </r>
       <r>  -14.8559    1.0000 </r>
       <r>  -14.8526    1.0000 </r>
       <r>  -14.8522    1.0000 </r>
       <r>  -10.2046    1.0000 </r>
       <r>  -10.1008    1.0000 </r>
       <r>  -10.0938    1.0000 </r>
       <r>   -3.4703    1.0000 </r>
       <r>    2.5584    1.0000 </r>
       <r>    3.5768    1.0000 </r>
       <r>    3.7807    1.0000 </r>
       <r>    4.2614    1.0000 </r>
       <r>    4.3938    1.0000 </r>
       <r>    5.0098    1.0000 </r>
       <r>    6.1118    1.0000 </r>
       <r>    6.3504    1.0000 </r>
       <r>    7.9046    1.0000 </r>
       <r>    8.5884    0.0000 </r>
       <r>    9.3068    0.0000 </r>
       <r>    9.5485    0.0000 </r>
       <r>    9.8232    0.0000 </r>
       <r>    9.9400    0.0000 </r>
      </set>
      <set comment="kpoint 23">
       <r>  -32.1592    1.0000 </r>
       <r>  -14.8929    1.0000 </r>
       <r>  -14.8882    1.0000 </r>
       <r>  -14.8561    1.0000 </r>
       <r>  -14.8524    1.0000 </r>
       <r>  -14.8517    1.0000 </r>
       <r>  -10.2420    1.0000 </r>
       <r>  -10.0943    1.0000 </r>
       <r>  -10.0923    1.0000 </r>
       <r>   -3.3108    1.0000 </r>
       <r>    2.4633    1.0000 </r>
       <r>    3.4175    1.0000 </r>
       <r>    3.6838    1.0000 </r>
       <r>    4.2418    1.0000 </r>
       <r>    4.4064    1.0000 </r>
       <r>    4.7344    1.0000 </r>
       <r>    6.0247    1.0000 </r>
       <r>    6.3586    1.0000 </r>
       <r>    7.8928    1.0000 </r>
       <r>    9.0298    0.0000 </r>
       <r>    9.4254    0.0000 </r>
       <r>    9.7449    0.0000 </r>
       <r>    9.8175    0.0000 </r>
       <r>    9.9750    0.0000 </r>
      </set>
      <set comment="kpoint 24">
       <r>  -32.1585    1.0000 </r>
       <r>  -14.8926    1.0000 </r>
       <r>  -14.8908    1.0000 </r>
       <r>  -14.8561    1.0000 </r>
       <r>  -14.8523    1.0000 </r>
       <r>  -14.8513    1.0000 </r>
       <r>  -10.2679    1.0000 </r>
       <r>  -10.0952    1.0000 </r>
       <r>  -10.0860    1.0000 </r>
       <r>   -3.1914    1.0000 </r>
       <r>    2.4155    1.0000 </r>
       <r>    3.3572    1.0000 </r>
       <r>    3.5639    1.0000 </r>
       <r>    4.2452    1.0000 </r>
       <r>    4.3619    1.0000 </r>
       <r>    4.5365    1.0000 </r>
       <r>    6.0013    1.0000 </r>
       <r>    6.3705    1.0000 </r>
       <r>    7.9483    1.0000 </r>
       <r>    9.2291    0.0000 </r>
       <r>    9.4981    0.0000 </r>
       <r>    9.7740    0.0000 </r>
       <r>    9.8099    0.0000 </r>
       <r>    9.9872    0.0000 </r>
      </set>
      <set comment="kpoint 25">
       <r>  -32.1583    1.0000 </r>
       <r>  -14.8931    1.0000 </r>
       <r>  -14.8916    1.0000 </r>
       <r>  -14.8560    1.0000 </r>
       <r>  -14.8523    1.0000 </r>
       <r>  -14.8513    1.0000 </r>
       <r>  -10.2780    1.0000 </r>
       <r>  -10.1016    1.0000 </r>
       <r>  -10.0776    1.0000 </r>
       <r>   -3.1347    1.0000 </r>
       <r>    2.3924    1.0000 </r>
       <r>    3.3965    1.0000 </r>
       <r>    3.4298    1.0000 </r>
       <r>    4.2875    1.0000 </r>
       <r>    4.3044    1.0000 </r>
       <r>    4.4580    1.0000 </r>
       <r>    5.9868    1.0000 </r>
       <r>    6.3703    1.0000 </r>
       <r>    8.0411    0.0252 </r>
       <r>    9.2097    0.0000 </r>
       <r>    9.5050    0.0000 </r>
       <r>    9.8005    0.0000 </r>
       <r>    9.8161    0.0000 </r>
       <r>    9.9558    0.0000 </r>
      </set>
      <set comment="kpoint 26">
       <r>  -32.1584    1.0000 </r>
       <r>  -14.8946    1.0000 </r>
       <r>  -14.8902    1.0000 </r>
       <r>  -14.8558    1.0000 </r>
       <r>  -14.8524    1.0000 </r>
       <r>  -14.8516    1.0000 </r>
       <r>  -10.2714    1.0000 </r>
       <r>  -10.1095    1.0000 </r>
       <r>  -10.0711    1.0000 </r>
       <r>   -3.1508    1.0000 </r>
       <r>    2.3951    1.0000 </r>
       <r>    3.3133    1.0000 </r>
       <r>    3.5078    1.0000 </r>
       <r>    4.2223    1.0000 </r>
       <r>    4.4028    1.0000 </r>
       <r>    4.5062    1.0000 </r>
       <r>    5.9394    1.0000 </r>
       <r>    6.3717    1.0000 </r>
       <r>    8.0724    0.0000 </r>
       <r>    9.2451    0.0000 </r>
       <r>    9.4124    0.0000 </r>
       <r>    9.8055    0.0000 </r>
       <r>    9.8293    0.0000 </r>
       <r>    9.9674    0.0000 </r>
      </set>
      <set comment="kpoint 27">
       <r>  -32.1590    1.0000 </r>
       <r>  -14.8949    1.0000 </r>
       <r>  -14.8887    1.0000 </r>
       <r>  -14.8555    1.0000 </r>
       <r>  -14.8526    1.0000 </r>
       <r>  -14.8521    1.0000 </r>
       <r>  -10.2500    1.0000 </r>
       <r>  -10.1161    1.0000 </r>
       <r>  -10.0679    1.0000 </r>
       <r>   -3.2393    1.0000 </r>
       <r>    2.4502    1.0000 </r>
       <r>    3.2435    1.0000 </r>
       <r>    3.6574    1.0000 </r>
       <r>    4.1931    1.0000 </r>
       <r>    4.5001    1.0000 </r>
       <r>    4.6627    1.0000 </r>
       <r>    5.8528    1.0000 </r>
       <r>    6.4050    1.0000 </r>
       <r>    8.0560    0.0000 </r>
       <r>    9.2162    0.0000 </r>
       <r>    9.2743    0.0000 </r>
       <r>    9.8077    0.0000 </r>
       <r>    9.8246    0.0000 </r>
       <r>    9.9973    0.0000 </r>
      </set>
      <set comment="kpoint 28">
       <r>  -32.1598    1.0000 </r>
       <r>  -14.8940    1.0000 </r>
       <r>  -14.8873    1.0000 </r>
       <r>  -14.8553    1.0000 </r>
       <r>  -14.8527    1.0000 </r>
       <r>  -14.8526    1.0000 </r>
       <r>  -10.2190    1.0000 </r>
       <r>  -10.1183    1.0000 </r>
       <r>  -10.0689    1.0000 </r>
       <r>   -3.3851    1.0000 </r>
       <r>    2.5889    1.0000 </r>
       <r>    3.2380    1.0000 </r>
       <r>    3.8122    1.0000 </r>
       <r>    4.1844    1.0000 </r>
       <r>    4.5524    1.0000 </r>
       <r>    4.8978    1.0000 </r>
       <r>    5.7853    1.0000 </r>
       <r>    6.4958    1.0000 </r>
       <r>    8.0506    0.0005 </r>
       <r>    8.9587    0.0000 </r>
       <r>    9.0970    0.0000 </r>
       <r>    9.7174    0.0000 </r>
       <r>    9.8487    0.0000 </r>
       <r>   10.0013    0.0000 </r>
      </set>
      <set comment="kpoint 29">
       <r>  -32.1607    1.0000 </r>
       <r>  -14.8921    1.0000 </r>
       <r>  -14.8865    1.0000 </r>
       <r>  -14.8550    1.0000 </r>
       <r>  -14.8531    1.0000 </r>
       <r>  -14.8530    1.0000 </r>
       <r>  -10.1869    1.0000 </r>
       <r>  -10.1131    1.0000 </r>
       <r>  -10.0739    1.0000 </r>
       <r>   -3.5567    1.0000 </r>
       <r>    2.8213    1.0000 </r>
       <r>    3.3036    1.0000 </r>
       <r>    3.9146    1.0000 </r>
       <r>    4.1739    1.0000 </r>
       <r>    4.5358    1.0000 </r>
       <r>    5.1149    1.0000 </r>
       <r>    5.9004    1.0000 </r>
       <r>    6.6330    1.0000 </r>
       <r>    7.9750    1.0000 </r>
       <r>    8.7126    0.0000 </r>
       <r>    8.7552    0.0000 </r>
       <r>    9.5101    0.0000 </r>
       <r>    9.8750    0.0000 </r>
       <r>    9.9072    0.0000 </r>
      </set>
      <set comment="kpoint 30">
       <r>  -32.1604    1.0000 </r>
       <r>  -14.8917    1.0000 </r>
       <r>  -14.8832    1.0000 </r>
       <r>  -14.8562    1.0000 </r>
       <r>  -14.8523    1.0000 </r>
       <r>  -14.8523    1.0000 </r>
       <r>  -10.1693    1.0000 </r>
       <r>  -10.1099    1.0000 </r>
       <r>  -10.1099    1.0000 </r>
       <r>   -3.5693    1.0000 </r>
       <r>    2.5538    1.0000 </r>
       <r>    3.9284    1.0000 </r>
       <r>    3.9284    1.0000 </r>
       <r>    4.1591    1.0000 </r>
       <r>    4.2486    1.0000 </r>
       <r>    5.2821    1.0000 </r>
       <r>    6.2998    1.0000 </r>
       <r>    6.2998    1.0000 </r>
       <r>    7.6234    1.0000 </r>
       <r>    8.4327    0.0000 </r>
       <r>    9.2977    0.0000 </r>
       <r>    9.2977    0.0000 </r>
       <r>    9.7861    0.0000 </r>
       <r>    9.9061    0.0000 </r>
      </set>
      <set comment="kpoint 31">
       <r>  -32.1597    1.0000 </r>
       <r>  -14.8915    1.0000 </r>
       <r>  -14.8835    1.0000 </r>
       <r>  -14.8566    1.0000 </r>
       <r>  -14.8518    1.0000 </r>
       <r>  -14.8517    1.0000 </r>
       <r>  -10.1960    1.0000 </r>
       <r>  -10.1113    1.0000 </r>
       <r>  -10.1102    1.0000 </r>
       <r>   -3.4710    1.0000 </r>
       <r>    2.4826    1.0000 </r>
       <r>    3.7674    1.0000 </r>
       <r>    3.8881    1.0000 </r>
       <r>    4.2155    1.0000 </r>
       <r>    4.2797    1.0000 </r>
       <r>    5.1374    1.0000 </r>
       <r>    6.1331    1.0000 </r>
       <r>    6.2801    1.0000 </r>
       <r>    7.7729    1.0000 </r>
       <r>    8.6087    0.0000 </r>
       <r>    9.4099    0.0000 </r>
       <r>    9.4756    0.0000 </r>
       <r>    9.7524    0.0000 </r>
       <r>    9.9396    0.0000 </r>
      </set>
      <set comment="kpoint 32">
       <r>  -32.1589    1.0000 </r>
       <r>  -14.8908    1.0000 </r>
       <r>  -14.8850    1.0000 </r>
       <r>  -14.8568    1.0000 </r>
       <r>  -14.8517    1.0000 </r>
       <r>  -14.8512    1.0000 </r>
       <r>  -10.2253    1.0000 </r>
       <r>  -10.1117    1.0000 </r>
       <r>  -10.1077    1.0000 </r>
       <r>   -3.3664    1.0000 </r>
       <r>    2.5090    1.0000 </r>
       <r>    3.5571    1.0000 </r>
       <r>    3.7983    1.0000 </r>
       <r>    4.2882    1.0000 </r>
       <r>    4.3091    1.0000 </r>
       <r>    4.9244    1.0000 </r>
       <r>    5.9061    1.0000 </r>
       <r>    6.3000    1.0000 </r>
       <r>    7.9191    1.0000 </r>
       <r>    8.9454    0.0000 </r>
       <r>    9.4958    0.0000 </r>
       <r>    9.6664    0.0000 </r>
       <r>    9.7564    0.0000 </r>
       <r>    9.9593    0.0000 </r>
      </set>
      <set comment="kpoint 33">
       <r>  -32.1583    1.0000 </r>
       <r>  -14.8897    1.0000 </r>
       <r>  -14.8875    1.0000 </r>
       <r>  -14.8566    1.0000 </r>
       <r>  -14.8519    1.0000 </r>
       <r>  -14.8509    1.0000 </r>
       <r>  -10.2461    1.0000 </r>
       <r>  -10.1189    1.0000 </r>
       <r>  -10.1000    1.0000 </r>
       <r>   -3.2770    1.0000 </r>
       <r>    2.5926    1.0000 </r>
       <r>    3.4187    1.0000 </r>
       <r>    3.6657    1.0000 </r>
       <r>    4.3122    1.0000 </r>
       <r>    4.3457    1.0000 </r>
       <r>    4.7165    1.0000 </r>
       <r>    5.7501    1.0000 </r>
       <r>    6.3102    1.0000 </r>
       <r>    7.9890    1.0000 </r>
       <r>    9.1941    0.0000 </r>
       <r>    9.5588    0.0000 </r>
       <r>    9.7379    0.0000 </r>
       <r>    9.7764    0.0000 </r>
       <r>    9.9988    0.0000 </r>
      </set>
      <set comment="kpoint 34">
       <r>  -32.1580    1.0000 </r>
       <r>  -14.8903    1.0000 </r>
       <r>  -14.8886    1.0000 </r>
       <r>  -14.8560    1.0000 </r>
       <r>  -14.8523    1.0000 </r>
       <r>  -14.8508    1.0000 </r>
       <r>  -10.2542    1.0000 </r>
       <r>  -10.1307    1.0000 </r>
       <r>  -10.0900    1.0000 </r>
       <r>   -3.2158    1.0000 </r>
       <r>    2.6509    1.0000 </r>
       <r>    3.3818    1.0000 </r>
       <r>    3.5089    1.0000 </r>
       <r>    4.3085    1.0000 </r>
       <r>    4.3755    1.0000 </r>
       <r>    4.6127    1.0000 </r>
       <r>    5.6563    1.0000 </r>
       <r>    6.2948    1.0000 </r>
       <r>    8.1018    0.0000 </r>
       <r>    9.1551    0.0000 </r>
       <r>    9.5870    0.0000 </r>
       <r>    9.7812    0.0000 </r>
       <r>    9.7860    0.0000 </r>
       <r>    9.9774    0.0000 </r>
      </set>
      <set comment="kpoint 35">
       <r>  -32.1580    1.0000 </r>
       <r>  -14.8928    1.0000 </r>
       <r>  -14.8876    1.0000 </r>
       <r>  -14.8553    1.0000 </r>
       <r>  -14.8529    1.0000 </r>
       <r>  -14.8511    1.0000 </r>
       <r>  -10.2501    1.0000 </r>
       <r>  -10.1426    1.0000 </r>
       <r>  -10.0798    1.0000 </r>
       <r>   -3.1914    1.0000 </r>
       <r>    2.6201    1.0000 </r>
       <r>    3.3623    1.0000 </r>
       <r>    3.4466    1.0000 </r>
       <r>    4.2506    1.0000 </r>
       <r>    4.4633    1.0000 </r>
       <r>    4.6438    1.0000 </r>
       <r>    5.5815    1.0000 </r>
       <r>    6.2771    1.0000 </r>
       <r>    8.2351    0.0000 </r>
       <r>    9.0995    0.0000 </r>
       <r>    9.5397    0.0000 </r>
       <r>    9.7795    0.0000 </r>
       <r>    9.8212    0.0000 </r>
       <r>    9.9705    0.0000 </r>
      </set>
      <set comment="kpoint 36">
       <r>  -32.1584    1.0000 </r>
       <r>  -14.8944    1.0000 </r>
       <r>  -14.8870    1.0000 </r>
       <r>  -14.8549    1.0000 </r>
       <r>  -14.8532    1.0000 </r>
       <r>  -14.8515    1.0000 </r>
       <r>  -10.2388    1.0000 </r>
       <r>  -10.1476    1.0000 </r>
       <r>  -10.0718    1.0000 </r>
       <r>   -3.2113    1.0000 </r>
       <r>    2.5417    1.0000 </r>
       <r>    3.2561    1.0000 </r>
       <r>    3.5779    1.0000 </r>
       <r>    4.2140    1.0000 </r>
       <r>    4.5415    1.0000 </r>
       <r>    4.7742    1.0000 </r>
       <r>    5.5058    1.0000 </r>
       <r>    6.2952    1.0000 </r>
       <r>    8.2988    0.0000 </r>
       <r>    9.1437    0.0000 </r>
       <r>    9.3876    0.0000 </r>
       <r>    9.7939    0.0000 </r>
       <r>    9.8405    0.0000 </r>
       <r>    9.9734    0.0000 </r>
      </set>
      <set comment="kpoint 37">
       <r>  -32.1590    1.0000 </r>
       <r>  -14.8949    1.0000 </r>
       <r>  -14.8869    1.0000 </r>
       <r>  -14.8550    1.0000 </r>
       <r>  -14.8529    1.0000 </r>
       <r>  -14.8521    1.0000 </r>
       <r>  -10.2278    1.0000 </r>
       <r>  -10.1389    1.0000 </r>
       <r>  -10.0679    1.0000 </r>
       <r>   -3.2790    1.0000 </r>
       <r>    2.5103    1.0000 </r>
       <r>    3.2110    1.0000 </r>
       <r>    3.7299    1.0000 </r>
       <r>    4.1881    1.0000 </r>
       <r>    4.5756    1.0000 </r>
       <r>    4.8983    1.0000 </r>
       <r>    5.5193    1.0000 </r>
       <r>    6.3740    1.0000 </r>
       <r>    8.2606    0.0000 </r>
       <r>    9.1473    0.0000 </r>
       <r>    9.1700    0.0000 </r>
       <r>    9.8131    0.0000 </r>
       <r>    9.8183    0.0000 </r>
       <r>   10.0105    0.0000 </r>
      </set>
      <set comment="kpoint 38">
       <r>  -32.1591    1.0000 </r>
       <r>  -14.8900    1.0000 </r>
       <r>  -14.8823    1.0000 </r>
       <r>  -14.8573    1.0000 </r>
       <r>  -14.8512    1.0000 </r>
       <r>  -14.8512    1.0000 </r>
       <r>  -10.2058    1.0000 </r>
       <r>  -10.1177    1.0000 </r>
       <r>  -10.1177    1.0000 </r>
       <r>   -3.4455    1.0000 </r>
       <r>    2.4979    1.0000 </r>
       <r>    3.9026    1.0000 </r>
       <r>    3.9026    1.0000 </r>
       <r>    3.9937    1.0000 </r>
       <r>    4.3230    1.0000 </r>
       <r>    5.0757    1.0000 </r>
       <r>    6.2762    1.0000 </r>
       <r>    6.2762    1.0000 </r>
       <r>    7.6229    1.0000 </r>
       <r>    8.7525    0.0000 </r>
       <r>    9.4870    0.0000 </r>
       <r>    9.4870    0.0000 </r>
       <r>    9.6803    0.0000 </r>
       <r>    9.9112    0.0000 </r>
      </set>
      <set comment="kpoint 39">
       <r>  -32.1585    1.0000 </r>
       <r>  -14.8882    1.0000 </r>
       <r>  -14.8827    1.0000 </r>
       <r>  -14.8577    1.0000 </r>
       <r>  -14.8508    1.0000 </r>
       <r>  -14.8506    1.0000 </r>
       <r>  -10.2241    1.0000 </r>
       <r>  -10.1220    1.0000 </r>
       <r>  -10.1185    1.0000 </r>
       <r>   -3.4043    1.0000 </r>
       <r>    2.6127    1.0000 </r>
       <r>    3.7023    1.0000 </r>
       <r>    3.8529    1.0000 </r>
       <r>    4.0975    1.0000 </r>
       <r>    4.3491    1.0000 </r>
       <r>    4.9212    1.0000 </r>
       <r>    6.1382    1.0000 </r>
       <r>    6.3105    1.0000 </r>
       <r>    7.7698    1.0000 </r>
       <r>    8.9585    0.0000 </r>
       <r>    9.5462    0.0000 </r>
       <r>    9.5908    0.0000 </r>
       <r>    9.6626    0.0000 </r>
       <r>    9.8860    0.0000 </r>
      </set>
      <set comment="kpoint 40">
       <r>  -32.1580    1.0000 </r>
       <r>  -14.8865    1.0000 </r>
       <r>  -14.8844    1.0000 </r>
       <r>  -14.8575    1.0000 </r>
       <r>  -14.8509    1.0000 </r>
       <r>  -14.8503    1.0000 </r>
       <r>  -10.2365    1.0000 </r>
       <r>  -10.1325    1.0000 </r>
       <r>  -10.1137    1.0000 </r>
       <r>   -3.3556    1.0000 </r>
       <r>    2.7895    1.0000 </r>
       <r>    3.5167    1.0000 </r>
       <r>    3.7500    1.0000 </r>
       <r>    4.2205    1.0000 </r>
       <r>    4.3769    1.0000 </r>
       <r>    4.7450    1.0000 </r>
       <r>    5.8451    1.0000 </r>
       <r>    6.3199    1.0000 </r>
       <r>    7.9163    1.0000 </r>
       <r>    9.2261    0.0000 </r>
       <r>    9.5948    0.0000 </r>
       <r>    9.6890    0.0000 </r>
       <r>    9.7142    0.0000 </r>
       <r>    9.9882    0.0000 </r>
      </set>
      <set comment="kpoint 41">
       <r>  -32.1577    1.0000 </r>
       <r>  -14.8870    1.0000 </r>
       <r>  -14.8854    1.0000 </r>
       <r>  -14.8569    1.0000 </r>
       <r>  -14.8515    1.0000 </r>
       <r>  -14.8503    1.0000 </r>
       <r>  -10.2368    1.0000 </r>
       <r>  -10.1508    1.0000 </r>
       <r>  -10.1042    1.0000 </r>
       <r>   -3.3043    1.0000 </r>
       <r>    2.9358    1.0000 </r>
       <r>    3.4075    1.0000 </r>
       <r>    3.6087    1.0000 </r>
       <r>    4.2711    1.0000 </r>
       <r>    4.4283    1.0000 </r>
       <r>    4.6546    1.0000 </r>
       <r>    5.5674    1.0000 </r>
       <r>    6.2832    1.0000 </r>
       <r>    8.0338    0.1791 </r>
       <r>    9.2272    0.0000 </r>
       <r>    9.6305    0.0000 </r>
       <r>    9.7271    0.0000 </r>
       <r>    9.7671    0.0000 </r>
       <r>    9.9910    0.0000 </r>
      </set>
      <set comment="kpoint 42">
       <r>  -32.1577    1.0000 </r>
       <r>  -14.8900    1.0000 </r>
       <r>  -14.8851    1.0000 </r>
       <r>  -14.8559    1.0000 </r>
       <r>  -14.8524    1.0000 </r>
       <r>  -14.8505    1.0000 </r>
       <r>  -10.2267    1.0000 </r>
       <r>  -10.1713    1.0000 </r>
       <r>  -10.0923    1.0000 </r>
       <r>   -3.2559    1.0000 </r>
       <r>    2.9177    1.0000 </r>
       <r>    3.3935    1.0000 </r>
       <r>    3.4594    1.0000 </r>
       <r>    4.2469    1.0000 </r>
       <r>    4.4921    1.0000 </r>
       <r>    4.7237    1.0000 </r>
       <r>    5.3729    1.0000 </r>
       <r>    6.2367    1.0000 </r>
       <r>    8.1960    0.0000 </r>
       <r>    9.1167    0.0000 </r>
       <r>    9.6336    0.0000 </r>
       <r>    9.7512    0.0000 </r>
       <r>    9.7739    0.0000 </r>
       <r>    9.9836    0.0000 </r>
      </set>
      <set comment="kpoint 43">
       <r>  -32.1579    1.0000 </r>
       <r>  -14.8927    1.0000 </r>
       <r>  -14.8857    1.0000 </r>
       <r>  -14.8549    1.0000 </r>
       <r>  -14.8533    1.0000 </r>
       <r>  -14.8510    1.0000 </r>
       <r>  -10.2243    1.0000 </r>
       <r>  -10.1734    1.0000 </r>
       <r>  -10.0806    1.0000 </r>
       <r>   -3.2202    1.0000 </r>
       <r>    2.7351    1.0000 </r>
       <r>    3.3336    1.0000 </r>
       <r>    3.4665    1.0000 </r>
       <r>    4.2310    1.0000 </r>
       <r>    4.5383    1.0000 </r>
       <r>    4.8219    1.0000 </r>
       <r>    5.3187    1.0000 </r>
       <r>    6.2318    1.0000 </r>
       <r>    8.3382    0.0000 </r>
       <r>    9.0687    0.0000 </r>
       <r>    9.5503    0.0000 </r>
       <r>    9.7735    0.0000 </r>
       <r>    9.7946    0.0000 </r>
       <r>    9.9635    0.0000 </r>
      </set>
      <set comment="kpoint 44">
       <r>  -32.1581    1.0000 </r>
       <r>  -14.8856    1.0000 </r>
       <r>  -14.8816    1.0000 </r>
       <r>  -14.8583    1.0000 </r>
       <r>  -14.8502    1.0000 </r>
       <r>  -14.8502    1.0000 </r>
       <r>  -10.2350    1.0000 </r>
       <r>  -10.1243    1.0000 </r>
       <r>  -10.1243    1.0000 </r>
       <r>   -3.4203    1.0000 </r>
       <r>    2.7909    1.0000 </r>
       <r>    3.8470    1.0000 </r>
       <r>    3.8540    1.0000 </r>
       <r>    3.8540    1.0000 </r>
       <r>    4.3874    1.0000 </r>
       <r>    4.7743    1.0000 </r>
       <r>    6.3697    1.0000 </r>
       <r>    6.3697    1.0000 </r>
       <r>    7.6956    1.0000 </r>
       <r>    9.0196    0.0000 </r>
       <r>    9.5799    0.0000 </r>
       <r>    9.5840    0.0000 </r>
       <r>    9.5840    0.0000 </r>
       <r>    9.7895    0.0000 </r>
      </set>
      <set comment="kpoint 45">
       <r>  -32.1578    1.0000 </r>
       <r>  -14.8837    1.0000 </r>
       <r>  -14.8821    1.0000 </r>
       <r>  -14.8584    1.0000 </r>
       <r>  -14.8500    1.0000 </r>
       <r>  -14.8498    1.0000 </r>
       <r>  -10.2432    1.0000 </r>
       <r>  -10.1309    1.0000 </r>
       <r>  -10.1238    1.0000 </r>
       <r>   -3.4121    1.0000 </r>
       <r>    3.0099    1.0000 </r>
       <r>    3.6368    1.0000 </r>
       <r>    3.8041    1.0000 </r>
       <r>    4.0133    1.0000 </r>
       <r>    4.4122    1.0000 </r>
       <r>    4.5897    1.0000 </r>
       <r>    6.2274    1.0000 </r>
       <r>    6.3980    1.0000 </r>
       <r>    7.8067    1.0000 </r>
       <r>    9.2473    0.0000 </r>
       <r>    9.5927    0.0000 </r>
       <r>    9.6229    0.0000 </r>
       <r>    9.6405    0.0000 </r>
       <r>    9.7188    0.0000 </r>
      </set>
      <set comment="kpoint 46">
       <r>  -32.1575    1.0000 </r>
       <r>  -14.8840    1.0000 </r>
       <r>  -14.8829    1.0000 </r>
       <r>  -14.8580    1.0000 </r>
       <r>  -14.8504    1.0000 </r>
       <r>  -14.8498    1.0000 </r>
       <r>  -10.2401    1.0000 </r>
       <r>  -10.1471    1.0000 </r>
       <r>  -10.1171    1.0000 </r>
       <r>   -3.3791    1.0000 </r>
       <r>    3.1783    1.0000 </r>
       <r>    3.4828    1.0000 </r>
       <r>    3.7073    1.0000 </r>
       <r>    4.1653    1.0000 </r>
       <r>    4.4454    1.0000 </r>
       <r>    4.4756    1.0000 </r>
       <r>    5.8646    1.0000 </r>
       <r>    6.3511    1.0000 </r>
       <r>    7.9177    1.0000 </r>
       <r>    9.3559    0.0000 </r>
       <r>    9.6332    0.0000 </r>
       <r>    9.6781    0.0000 </r>
       <r>    9.7126    0.0000 </r>
       <r>    9.9152    0.0000 </r>
      </set>
      <set comment="kpoint 47">
       <r>  -32.1575    1.0000 </r>
       <r>  -14.8868    1.0000 </r>
       <r>  -14.8834    1.0000 </r>
       <r>  -14.8570    1.0000 </r>
       <r>  -14.8514    1.0000 </r>
       <r>  -14.8501    1.0000 </r>
       <r>  -10.2270    1.0000 </r>
       <r>  -10.1689    1.0000 </r>
       <r>  -10.1058    1.0000 </r>
       <r>   -3.3240    1.0000 </r>
       <r>    3.1598    1.0000 </r>
       <r>    3.3920    1.0000 </r>
       <r>    3.5832    1.0000 </r>
       <r>    4.2217    1.0000 </r>
       <r>    4.4806    1.0000 </r>
       <r>    4.5864    1.0000 </r>
       <r>    5.5126    1.0000 </r>
       <r>    6.2730    1.0000 </r>
       <r>    8.0477    0.0020 </r>
       <r>    9.2414    0.0000 </r>
       <r>    9.6518    0.0000 </r>
       <r>    9.7015    0.0000 </r>
       <r>    9.7751    0.0000 </r>
       <r>    9.9568    0.0000 </r>
      </set>
      <set comment="kpoint 48">
       <r>  -32.1576    1.0000 </r>
       <r>  -14.8820    1.0000 </r>
       <r>  -14.8812    1.0000 </r>
       <r>  -14.8588    1.0000 </r>
       <r>  -14.8496    1.0000 </r>
       <r>  -14.8496    1.0000 </r>
       <r>  -10.2513    1.0000 </r>
       <r>  -10.1281    1.0000 </r>
       <r>  -10.1281    1.0000 </r>
       <r>   -3.4371    1.0000 </r>
       <r>    3.2151    1.0000 </r>
       <r>    3.7688    1.0000 </r>
       <r>    3.8178    1.0000 </r>
       <r>    3.8178    1.0000 </r>
       <r>    4.4113    1.0000 </r>
       <r>    4.4251    1.0000 </r>
       <r>    6.4660    1.0000 </r>
       <r>    6.4660    1.0000 </r>
       <r>    7.7754    1.0000 </r>
       <r>    9.2177    0.0000 </r>
       <r>    9.5194    0.0000 </r>
       <r>    9.5649    0.0000 </r>
       <r>    9.6293    0.0000 </r>
       <r>    9.6293    0.0000 </r>
      </set>
      <set comment="kpoint 49">
       <r>  -32.1575    1.0000 </r>
       <r>  -14.8819    1.0000 </r>
       <r>  -14.8817    1.0000 </r>
       <r>  -14.8587    1.0000 </r>
       <r>  -14.8497    1.0000 </r>
       <r>  -14.8496    1.0000 </r>
       <r>  -10.2500    1.0000 </r>
       <r>  -10.1342    1.0000 </r>
       <r>  -10.1257    1.0000 </r>
       <r>   -3.4257    1.0000 </r>
       <r>    3.2956    1.0000 </r>
       <r>    3.6105    1.0000 </r>
       <r>    3.7832    1.0000 </r>
       <r>    3.9908    1.0000 </r>
       <r>    4.3423    1.0000 </r>
       <r>    4.4368    1.0000 </r>
       <r>    6.2774    1.0000 </r>
       <r>    6.4428    1.0000 </r>
       <r>    7.8283    1.0000 </r>
       <r>    9.4686    0.0000 </r>
       <r>    9.5009    0.0000 </r>
       <r>    9.5735    0.0000 </r>
       <r>    9.6447    0.0000 </r>
       <r>    9.6531    0.0000 </r>
      </set>
      <set comment="kpoint 50">
       <r>  -32.1614    1.0000 </r>
       <r>  -14.8903    1.0000 </r>
       <r>  -14.8852    1.0000 </r>
       <r>  -14.8550    1.0000 </r>
       <r>  -14.8533    1.0000 </r>
       <r>  -14.8532    1.0000 </r>
       <r>  -10.1556    1.0000 </r>
       <r>  -10.1056    1.0000 </r>
       <r>  -10.0871    1.0000 </r>
       <r>   -3.7068    1.0000 </r>
       <r>    2.9523    1.0000 </r>
       <r>    3.6050    1.0000 </r>
       <r>    3.9211    1.0000 </r>
       <r>    4.1927    1.0000 </r>
       <r>    4.4172    1.0000 </r>
       <r>    5.3241    1.0000 </r>
       <r>    6.2365    1.0000 </r>
       <r>    6.6287    1.0000 </r>
       <r>    7.9040    1.0000 </r>
       <r>    8.1141    0.0000 </r>
       <r>    8.8658    0.0000 </r>
       <r>    9.1932    0.0000 </r>
       <r>    9.7466    0.0000 </r>
       <r>    9.8762    0.0000 </r>
      </set>
      <set comment="kpoint 51">
       <r>  -32.1605    1.0000 </r>
       <r>  -14.8922    1.0000 </r>
       <r>  -14.8862    1.0000 </r>
       <r>  -14.8554    1.0000 </r>
       <r>  -14.8529    1.0000 </r>
       <r>  -14.8527    1.0000 </r>
       <r>  -10.1926    1.0000 </r>
       <r>  -10.1081    1.0000 </r>
       <r>  -10.0800    1.0000 </r>
       <r>   -3.5330    1.0000 </r>
       <r>    2.7088    1.0000 </r>
       <r>    3.4379    1.0000 </r>
       <r>    3.8483    1.0000 </r>
       <r>    4.2194    1.0000 </r>
       <r>    4.4786    1.0000 </r>
       <r>    5.0673    1.0000 </r>
       <r>    6.0221    1.0000 </r>
       <r>    6.5294    1.0000 </r>
       <r>    7.9396    1.0000 </r>
       <r>    8.5152    0.0000 </r>
       <r>    9.0858    0.0000 </r>
       <r>    9.5022    0.0000 </r>
       <r>    9.8595    0.0000 </r>
       <r>    9.9263    0.0000 </r>
      </set>
      <set comment="kpoint 52">
       <r>  -32.1596    1.0000 </r>
       <r>  -14.8936    1.0000 </r>
       <r>  -14.8880    1.0000 </r>
       <r>  -14.8557    1.0000 </r>
       <r>  -14.8526    1.0000 </r>
       <r>  -14.8522    1.0000 </r>
       <r>  -10.2323    1.0000 </r>
       <r>  -10.1052    1.0000 </r>
       <r>  -10.0754    1.0000 </r>
       <r>   -3.3525    1.0000 </r>
       <r>    2.5211    1.0000 </r>
       <r>    3.3330    1.0000 </r>
       <r>    3.7246    1.0000 </r>
       <r>    4.2195    1.0000 </r>
       <r>    4.4740    1.0000 </r>
       <r>    4.7816    1.0000 </r>
       <r>    5.9953    1.0000 </r>
       <r>    6.4449    1.0000 </r>
       <r>    7.9091    1.0000 </r>
       <r>    8.9425    0.0000 </r>
       <r>    9.3002    0.0000 </r>
       <r>    9.7314    0.0000 </r>
       <r>    9.8426    0.0000 </r>
       <r>    9.9673    0.0000 </r>
      </set>
      <set comment="kpoint 53">
       <r>  -32.1588    1.0000 </r>
       <r>  -14.8942    1.0000 </r>
[...]
       <r>    8.4359    0.0000 </r>
       <r>    8.9002    0.0000 </r>
       <r>    9.6093    0.0000 </r>
       <r>    9.6946    0.0000 </r>
       <r>    9.8023    0.0000 </r>
       <r>    9.9482    0.0000 </r>
      </set>
      <set comment="kpoint 81">
       <r>  -32.1578    1.0000 </r>
       <r>  -14.8911    1.0000 </r>
       <r>  -14.8842    1.0000 </r>
       <r>  -14.8552    1.0000 </r>
       <r>  -14.8535    1.0000 </r>
       <r>  -14.8502    1.0000 </r>
       <r>  -10.2220    1.0000 </r>
       <r>  -10.1669    1.0000 </r>
       <r>  -10.0985    1.0000 </r>
       <r>   -3.2601    1.0000 </r>
       <r>    2.8774    1.0000 </r>
       <r>    3.2712    1.0000 </r>
       <r>    3.6683    1.0000 </r>
       <r>    4.2851    1.0000 </r>
       <r>    4.4639    1.0000 </r>
       <r>    4.7716    1.0000 </r>
       <r>    5.1432    1.0000 </r>
       <r>    6.3963    1.0000 </r>
       <r>    8.4480    0.0000 </r>
       <r>    8.8950    0.0000 </r>
       <r>    9.5895    0.0000 </r>
       <r>    9.6995    0.0000 </r>
       <r>    9.8133    0.0000 </r>
       <r>    9.9449    0.0000 </r>
      </set>
      <set comment="kpoint 82">
       <r>  -32.1575    1.0000 </r>
       <r>  -14.8871    1.0000 </r>
       <r>  -14.8818    1.0000 </r>
       <r>  -14.8571    1.0000 </r>
       <r>  -14.8517    1.0000 </r>
       <r>  -14.8495    1.0000 </r>
       <r>  -10.2292    1.0000 </r>
       <r>  -10.1510    1.0000 </r>
       <r>  -10.1234    1.0000 </r>
       <r>   -3.3446    1.0000 </r>
       <r>    3.1843    1.0000 </r>
       <r>    3.3419    1.0000 </r>
       <r>    3.7931    1.0000 </r>
       <r>    4.2339    1.0000 </r>
       <r>    4.4572    1.0000 </r>
       <r>    4.5125    1.0000 </r>
       <r>    5.3320    1.0000 </r>
       <r>    6.5233    1.0000 </r>
       <r>    8.1607    0.0000 </r>
       <r>    9.1877    0.0000 </r>
       <r>    9.5279    0.0000 </r>
       <r>    9.6235    0.0000 </r>
       <r>    9.7410    0.0000 </r>
       <r>    9.9490    0.0000 </r>
      </set>
      <set comment="kpoint 83">
       <r>  -32.1574    1.0000 </r>
       <r>  -14.8887    1.0000 </r>
       <r>  -14.8818    1.0000 </r>
       <r>  -14.8562    1.0000 </r>
       <r>  -14.8527    1.0000 </r>
       <r>  -14.8496    1.0000 </r>
       <r>  -10.2173    1.0000 </r>
       <r>  -10.1666    1.0000 </r>
       <r>  -10.1196    1.0000 </r>
       <r>   -3.3153    1.0000 </r>
       <r>    3.2217    1.0000 </r>
       <r>    3.2685    1.0000 </r>
       <r>    3.7547    1.0000 </r>
       <r>    4.2679    1.0000 </r>
       <r>    4.4809    1.0000 </r>
       <r>    4.5914    1.0000 </r>
       <r>    5.0511    1.0000 </r>
       <r>    6.5144    1.0000 </r>
       <r>    8.3277    0.0000 </r>
       <r>    9.0493    0.0000 </r>
       <r>    9.5772    0.0000 </r>
       <r>    9.6240    0.0000 </r>
       <r>    9.7767    0.0000 </r>
       <r>    9.9553    0.0000 </r>
      </set>
      <set comment="kpoint 84">
       <r>  -32.1574    1.0000 </r>
       <r>  -14.8897    1.0000 </r>
       <r>  -14.8818    1.0000 </r>
       <r>  -14.8554    1.0000 </r>
       <r>  -14.8536    1.0000 </r>
       <r>  -14.8495    1.0000 </r>
       <r>  -10.2113    1.0000 </r>
       <r>  -10.1705    1.0000 </r>
       <r>  -10.1205    1.0000 </r>
       <r>   -3.3005    1.0000 </r>
       <r>    3.1912    1.0000 </r>
       <r>    3.2406    1.0000 </r>
       <r>    3.7687    1.0000 </r>
       <r>    4.2966    1.0000 </r>
       <r>    4.5069    1.0000 </r>
       <r>    4.6579    1.0000 </r>
       <r>    4.8604    1.0000 </r>
       <r>    6.5357    1.0000 </r>
       <r>    8.5339    0.0000 </r>
       <r>    8.8612    0.0000 </r>
       <r>    9.5588    0.0000 </r>
       <r>    9.6222    0.0000 </r>
       <r>    9.8054    0.0000 </r>
       <r>    9.9382    0.0000 </r>
      </set>
     </set>
    </set>
   </array>
  </eigenvalues>
  <separator name="orbital magnetization" >
   <v name="MAGDIPOLOUT">      0.00000000      0.00000000      0.00000000</v>
  </separator>
  <dos>
   <i name="efermi">      8.02730514 </i>
   <total>
    <array>
     <dimension dim="1">gridpoints</dimension>
     <dimension dim="2">spin</dimension>
     <field>energy</field>
     <field>total</field>
     <field>integrated</field>
     <set>
      <set comment="spin 1">
       <r>   -34.2716     0.0000     0.0000 </r>
       <r>   -34.1170     0.0000     0.0000 </r>
       <r>   -33.9623     0.0000     0.0000 </r>
       <r>   -33.8077     0.0000     0.0000 </r>
       <r>   -33.6530     0.0000     0.0000 </r>
       <r>   -33.4984     0.0000     0.0000 </r>
       <r>   -33.3437     0.0000     0.0000 </r>
       <r>   -33.1891     0.0000     0.0000 </r>
       <r>   -33.0344     0.0000     0.0000 </r>
       <r>   -32.8798     0.0000     0.0000 </r>
       <r>   -32.7252     0.0000     0.0000 </r>
       <r>   -32.5705     0.0000     0.0000 </r>
       <r>   -32.4159     0.0000     0.0000 </r>
       <r>   -32.2612     0.0000     0.0000 </r>
       <r>   -32.1066    12.9330     2.0000 </r>
       <r>   -31.9519     0.0000     2.0000 </r>
       <r>   -31.7973     0.0000     2.0000 </r>
       <r>   -31.6427     0.0000     2.0000 </r>
       <r>   -31.4880     0.0000     2.0000 </r>
       <r>   -31.3334     0.0000     2.0000 </r>
       <r>   -31.1787     0.0000     2.0000 </r>
       <r>   -31.0241     0.0000     2.0000 </r>
       <r>   -30.8694     0.0000     2.0000 </r>
       <r>   -30.7148     0.0000     2.0000 </r>
       <r>   -30.5601     0.0000     2.0000 </r>
       <r>   -30.4055     0.0000     2.0000 </r>
       <r>   -30.2509     0.0000     2.0000 </r>
       <r>   -30.0962     0.0000     2.0000 </r>
       <r>   -29.9416     0.0000     2.0000 </r>
       <r>   -29.7869     0.0000     2.0000 </r>
       <r>   -29.6323     0.0000     2.0000 </r>
       <r>   -29.4776     0.0000     2.0000 </r>
       <r>   -29.3230     0.0000     2.0000 </r>
       <r>   -29.1684     0.0000     2.0000 </r>
       <r>   -29.0137     0.0000     2.0000 </r>
       <r>   -28.8591     0.0000     2.0000 </r>
       <r>   -28.7044     0.0000     2.0000 </r>
       <r>   -28.5498     0.0000     2.0000 </r>
       <r>   -28.3951     0.0000     2.0000 </r>
       <r>   -28.2405     0.0000     2.0000 </r>
       <r>   -28.0858     0.0000     2.0000 </r>
       <r>   -27.9312     0.0000     2.0000 </r>
       <r>   -27.7766     0.0000     2.0000 </r>
       <r>   -27.6219     0.0000     2.0000 </r>
       <r>   -27.4673     0.0000     2.0000 </r>
       <r>   -27.3126     0.0000     2.0000 </r>
       <r>   -27.1580     0.0000     2.0000 </r>
       <r>   -27.0033     0.0000     2.0000 </r>
       <r>   -26.8487     0.0000     2.0000 </r>
       <r>   -26.6941     0.0000     2.0000 </r>
       <r>   -26.5394     0.0000     2.0000 </r>
       <r>   -26.3848     0.0000     2.0000 </r>
       <r>   -26.2301     0.0000     2.0000 </r>
       <r>   -26.0755     0.0000     2.0000 </r>
       <r>   -25.9208     0.0000     2.0000 </r>
       <r>   -25.7662     0.0000     2.0000 </r>
       <r>   -25.6115     0.0000     2.0000 </r>
       <r>   -25.4569     0.0000     2.0000 </r>
       <r>   -25.3023     0.0000     2.0000 </r>
       <r>   -25.1476     0.0000     2.0000 </r>
       <r>   -24.9930     0.0000     2.0000 </r>
       <r>   -24.8383     0.0000     2.0000 </r>
       <r>   -24.6837     0.0000     2.0000 </r>
       <r>   -24.5290     0.0000     2.0000 </r>
       <r>   -24.3744     0.0000     2.0000 </r>
       <r>   -24.2198     0.0000     2.0000 </r>
       <r>   -24.0651     0.0000     2.0000 </r>
       <r>   -23.9105     0.0000     2.0000 </r>
       <r>   -23.7558     0.0000     2.0000 </r>
       <r>   -23.6012     0.0000     2.0000 </r>
       <r>   -23.4465     0.0000     2.0000 </r>
       <r>   -23.2919     0.0000     2.0000 </r>
       <r>   -23.1373     0.0000     2.0000 </r>
       <r>   -22.9826     0.0000     2.0000 </r>
       <r>   -22.8280     0.0000     2.0000 </r>
       <r>   -22.6733     0.0000     2.0000 </r>
       <r>   -22.5187     0.0000     2.0000 </r>
       <r>   -22.3640     0.0000     2.0000 </r>
       <r>   -22.2094     0.0000     2.0000 </r>
       <r>   -22.0547     0.0000     2.0000 </r>
       <r>   -21.9001     0.0000     2.0000 </r>
       <r>   -21.7455     0.0000     2.0000 </r>
       <r>   -21.5908     0.0000     2.0000 </r>
       <r>   -21.4362     0.0000     2.0000 </r>
       <r>   -21.2815     0.0000     2.0000 </r>
       <r>   -21.1269     0.0000     2.0000 </r>
       <r>   -20.9722     0.0000     2.0000 </r>
       <r>   -20.8176     0.0000     2.0000 </r>
       <r>   -20.6630     0.0000     2.0000 </r>
       <r>   -20.5083     0.0000     2.0000 </r>
       <r>   -20.3537     0.0000     2.0000 </r>
       <r>   -20.1990     0.0000     2.0000 </r>
       <r>   -20.0444     0.0000     2.0000 </r>
       <r>   -19.8897     0.0000     2.0000 </r>
       <r>   -19.7351     0.0000     2.0000 </r>
       <r>   -19.5804     0.0000     2.0000 </r>
       <r>   -19.4258     0.0000     2.0000 </r>
       <r>   -19.2712     0.0000     2.0000 </r>
       <r>   -19.1165     0.0000     2.0000 </r>
       <r>   -18.9619     0.0000     2.0000 </r>
       <r>   -18.8072     0.0000     2.0000 </r>
       <r>   -18.6526     0.0000     2.0000 </r>
       <r>   -18.4979     0.0000     2.0000 </r>
       <r>   -18.3433     0.0000     2.0000 </r>
       <r>   -18.1887     0.0000     2.0000 </r>
       <r>   -18.0340     0.0000     2.0000 </r>
       <r>   -17.8794     0.0000     2.0000 </r>
       <r>   -17.7247     0.0000     2.0000 </r>
       <r>   -17.5701     0.0000     2.0000 </r>
       <r>   -17.4154     0.0000     2.0000 </r>
       <r>   -17.2608     0.0000     2.0000 </r>
       <r>   -17.1061     0.0000     2.0000 </r>
       <r>   -16.9515     0.0000     2.0000 </r>
       <r>   -16.7969     0.0000     2.0000 </r>
       <r>   -16.6422     0.0000     2.0000 </r>
       <r>   -16.4876     0.0000     2.0000 </r>
       <r>   -16.3329     0.0000     2.0000 </r>
       <r>   -16.1783     0.0000     2.0000 </r>
       <r>   -16.0236     0.0000     2.0000 </r>
       <r>   -15.8690     0.0000     2.0000 </r>
       <r>   -15.7144     0.0000     2.0000 </r>
       <r>   -15.5597     0.0000     2.0000 </r>
       <r>   -15.4051     0.0000     2.0000 </r>
       <r>   -15.2504     0.0000     2.0000 </r>
       <r>   -15.0958     0.0000     2.0000 </r>
       <r>   -14.9411     0.0000     2.0000 </r>
       <r>   -14.7865    38.7989    12.0000 </r>
       <r>   -14.6318     0.0000    12.0000 </r>
       <r>   -14.4772     0.0000    12.0000 </r>
       <r>   -14.3226     0.0000    12.0000 </r>
       <r>   -14.1679     0.0000    12.0000 </r>
       <r>   -14.0133     0.0000    12.0000 </r>
       <r>   -13.8586     0.0000    12.0000 </r>
       <r>   -13.7040     0.0000    12.0000 </r>
       <r>   -13.5493     0.0000    12.0000 </r>
       <r>   -13.3947     0.0000    12.0000 </r>
       <r>   -13.2401     0.0000    12.0000 </r>
       <r>   -13.0854     0.0000    12.0000 </r>
       <r>   -12.9308     0.0000    12.0000 </r>
       <r>   -12.7761     0.0000    12.0000 </r>
       <r>   -12.6215     0.0000    12.0000 </r>
       <r>   -12.4668     0.0000    12.0000 </r>
       <r>   -12.3122     0.0000    12.0000 </r>
       <r>   -12.1576     0.0000    12.0000 </r>
       <r>   -12.0029     0.0000    12.0000 </r>
       <r>   -11.8483     0.0000    12.0000 </r>
       <r>   -11.6936     0.0000    12.0000 </r>
       <r>   -11.5390     0.0000    12.0000 </r>
       <r>   -11.3843     0.0000    12.0000 </r>
       <r>   -11.2297     0.0000    12.0000 </r>
       <r>   -11.0750     0.0000    12.0000 </r>
       <r>   -10.9204     0.0000    12.0000 </r>
       <r>   -10.7658     0.0000    12.0000 </r>
       <r>   -10.6111     0.0000    12.0000 </r>
       <r>   -10.4565     0.0000    12.0000 </r>
       <r>   -10.3018     0.0422    12.0065 </r>
       <r>   -10.1472     7.5202    14.4411 </r>
       <r>    -9.9925     1.2480    18.0000 </r>
       <r>    -9.8379     0.0000    18.0000 </r>
       <r>    -9.6833     0.0000    18.0000 </r>
       <r>    -9.5286     0.0000    18.0000 </r>
       <r>    -9.3740     0.0000    18.0000 </r>
       <r>    -9.2193     0.0000    18.0000 </r>
       <r>    -9.0647     0.0000    18.0000 </r>
       <r>    -8.9100     0.0000    18.0000 </r>
       <r>    -8.7554     0.0000    18.0000 </r>
       <r>    -8.6007     0.0000    18.0000 </r>
       <r>    -8.4461     0.0000    18.0000 </r>
       <r>    -8.2915     0.0000    18.0000 </r>
       <r>    -8.1368     0.0000    18.0000 </r>
       <r>    -7.9822     0.0000    18.0000 </r>
       <r>    -7.8275     0.0000    18.0000 </r>
       <r>    -7.6729     0.0000    18.0000 </r>
       <r>    -7.5182     0.0000    18.0000 </r>
       <r>    -7.3636     0.0000    18.0000 </r>
       <r>    -7.2090     0.0000    18.0000 </r>
       <r>    -7.0543     0.0000    18.0000 </r>
       <r>    -6.8997     0.0000    18.0000 </r>
       <r>    -6.7450     0.0000    18.0000 </r>
       <r>    -6.5904     0.0000    18.0000 </r>
       <r>    -6.4357     0.0000    18.0000 </r>
       <r>    -6.2811     0.0000    18.0000 </r>
       <r>    -6.1264     0.0000    18.0000 </r>
       <r>    -5.9718     0.0000    18.0000 </r>
       <r>    -5.8172     0.0000    18.0000 </r>
       <r>    -5.6625     0.0000    18.0000 </r>
       <r>    -5.5079     0.0000    18.0000 </r>
       <r>    -5.3532     0.0000    18.0000 </r>
       <r>    -5.1986     0.0000    18.0000 </r>
       <r>    -5.0439     0.0000    18.0000 </r>
       <r>    -4.8893     0.0000    18.0000 </r>
       <r>    -4.7347     0.0000    18.0000 </r>
       <r>    -4.5800     0.0000    18.0000 </r>
       <r>    -4.4254     0.0000    18.0000 </r>
       <r>    -4.2707     0.0000    18.0000 </r>
       <r>    -4.1161     0.0000    18.0000 </r>
       <r>    -3.9614     0.0295    18.0046 </r>
       <r>    -3.8068     0.2484    18.0521 </r>
       <r>    -3.6521     0.3263    18.1096 </r>
       <r>    -3.4975     0.6439    18.2534 </r>
       <r>    -3.3429     2.6285    18.7515 </r>
       <r>    -3.1882     3.3583    19.7729 </r>
       <r>    -3.0336     0.1884    20.0000 </r>
       <r>    -2.8789     0.0000    20.0000 </r>
       <r>    -2.7243     0.0000    20.0000 </r>
       <r>    -2.5696     0.0000    20.0000 </r>
       <r>    -2.4150     0.0000    20.0000 </r>
       <r>    -2.2604     0.0000    20.0000 </r>
       <r>    -2.1057     0.0000    20.0000 </r>
       <r>    -1.9511     0.0000    20.0000 </r>
       <r>    -1.7964     0.0000    20.0000 </r>
       <r>    -1.6418     0.0000    20.0000 </r>
       <r>    -1.4871     0.0000    20.0000 </r>
       <r>    -1.3325     0.0000    20.0000 </r>
       <r>    -1.1779     0.0000    20.0000 </r>
       <r>    -1.0232     0.0000    20.0000 </r>
       <r>    -0.8686     0.0000    20.0000 </r>
       <r>    -0.7139     0.0000    20.0000 </r>
       <r>    -0.5593     0.0000    20.0000 </r>
       <r>    -0.4046     0.0000    20.0000 </r>
       <r>    -0.2500     0.0000    20.0000 </r>
       <r>    -0.0953     0.0000    20.0000 </r>
       <r>     0.0593     0.0000    20.0000 </r>
       <r>     0.2139     0.0000    20.0000 </r>
       <r>     0.3686     0.0000    20.0000 </r>
       <r>     0.5232     0.0000    20.0000 </r>
       <r>     0.6779     0.0000    20.0000 </r>
       <r>     0.8325     0.0000    20.0000 </r>
       <r>     0.9872     0.0000    20.0000 </r>
       <r>     1.1418     0.0000    20.0000 </r>
       <r>     1.2964     0.0000    20.0000 </r>
       <r>     1.4511     0.0000    20.0000 </r>
       <r>     1.6057     0.0000    20.0000 </r>
       <r>     1.7604     0.0000    20.0000 </r>
       <r>     1.9150     0.0000    20.0000 </r>
       <r>     2.0697     0.0000    20.0000 </r>
       <r>     2.2243     0.1115    20.0172 </r>
       <r>     2.3790     0.4769    20.1247 </r>
       <r>     2.5336     2.3175    20.6351 </r>
       <r>     2.6882     1.1778    21.0706 </r>
       <r>     2.8429     1.4946    21.4218 </r>
       <r>     2.9975     0.8209    21.5744 </r>
       <r>     3.1522     0.4338    21.7894 </r>
       <r>     3.3068     3.3917    22.4490 </r>
       <r>     3.4615     2.9660    23.5957 </r>
       <r>     3.6161     3.5339    24.5083 </r>
       <r>     3.7707     3.0189    25.3062 </r>
       <r>     3.9254     1.6959    25.9919 </r>
       <r>     4.0800     0.2835    26.0712 </r>
       <r>     4.2347     5.0546    26.9036 </r>
       <r>     4.3893     4.1562    28.7256 </r>
       <r>     4.5440     3.2753    30.2534 </r>
       <r>     4.6986     1.8450    30.9171 </r>
       <r>     4.8533     1.4624    31.4769 </r>
       <r>     5.0079     0.5019    31.7271 </r>
       <r>     5.1625     0.5001    31.9581 </r>
       <r>     5.3172     0.2322    32.1024 </r>
       <r>     5.4718     0.7113    32.4404 </r>
       <r>     5.6265     0.7101    32.6642 </r>
       <r>     5.7811     1.3831    33.0414 </r>
       <r>     5.9358     0.3964    33.2074 </r>
       <r>     6.0904     1.2710    33.5511 </r>
       <r>     6.2450     0.6247    33.7134 </r>
       <r>     6.3997     6.0903    35.0501 </r>
       <r>     6.5543     1.6247    35.8015 </r>
       <r>     6.7090     0.2119    35.9254 </r>
       <r>     6.8636     0.0706    35.9727 </r>
       <r>     7.0183     0.0176    36.0009 </r>
       <r>     7.1729     0.0471    36.0082 </r>
       <r>     7.3276     0.0475    36.0155 </r>
       <r>     7.4822     0.1176    36.0464 </r>
       <r>     7.6368     0.4569    36.1171 </r>
       <r>     7.7915     0.5091    36.2854 </r>
       <r>     7.9461     2.1809    36.7424 </r>
       <r>     8.1008     1.7673    37.2355 </r>
       <r>     8.2554     1.7173    37.7084 </r>
       <r>     8.4101     0.8833    38.0519 </r>
       <r>     8.5647     0.5589    38.2366 </r>
       <r>     8.7193     0.0586    38.3377 </r>
       <r>     8.8740     0.9174    38.6034 </r>
       <r>     9.0286     2.0627    39.0791 </r>
       <r>     9.1833     2.3198    39.8389 </r>
       <r>     9.3379     1.4938    40.5432 </r>
       <r>     9.4926     2.1988    41.2076 </r>
       <r>     9.6472     5.7841    42.6250 </r>
       <r>     9.8018     9.9019    44.8258 </r>
       <r>     9.9565     5.2352    46.8733 </r>
       <r>    10.1111     0.0000    48.0000 </r>
       <r>    10.2658     0.0000    48.0000 </r>
       <r>    10.4204     0.0000    48.0000 </r>
       <r>    10.5751     0.0000    48.0000 </r>
       <r>    10.7297     0.0000    48.0000 </r>
       <r>    10.8844     0.0000    48.0000 </r>
       <r>    11.0390     0.0000    48.0000 </r>
       <r>    11.1936     0.0000    48.0000 </r>
       <r>    11.3483     0.0000    48.0000 </r>
       <r>    11.5029     0.0000    48.0000 </r>
       <r>    11.6576     0.0000    48.0000 </r>
       <r>    11.8122     0.0000    48.0000 </r>
       <r>    11.9669     0.0000    48.0000 </r>
       <r>    12.1215     0.0000    48.0000 </r>
      </set>
     </set>
    </array>
   </total>
  </dos>
 </calculation>
 <structure name="finalpos" >
  <crystal>
   <varray name="basis" >
    <v>       0.00000000       3.46992810       3.46992810 </v>
    <v>       3.46992810       0.00000000       3.46992810 </v>
    <v>       3.46992810       3.46992810       0.00000000 </v>
   </varray>
   <i name="volume">     83.55865185 </i>
   <varray name="rec_basis" >
    <v>      -0.14409520       0.14409520       0.14409520 </v>
    <v>       0.14409520      -0.14409520       0.14409520 </v>
    <v>       0.14409520       0.14409520      -0.14409520 </v>
   </varray>
  </crystal>
  <varray name="positions" >
   <v>       0.25000000       0.25000000       0.25000000 </v>
   <v>       0.75000000       0.75000000       0.75000000 </v>
   <v>       0.00000000       0.00000000       0.00000000 </v>
  </varray>
 </structure>
</modeling>
