   2   2   1   0
  0.1010962E+02  0.3057923E-09  0.3057923E-09  0.3057923E-09  0.0000000E+00
   1.0000000000000000E-004
  CAR 
 unknown system                          
     37.46547362    -16.26735460  301      4.77631207      1.00000000
    -16.267  0.0000E+00  0.0000E+00  0.0000E+00  0.0000E+00
    -16.088  0.0000E+00  0.0000E+00  0.0000E+00  0.0000E+00
    -15.909  0.0000E+00  0.0000E+00  0.0000E+00  0.0000E+00
    -15.730  0.0000E+00  0.0000E+00  0.0000E+00  0.0000E+00
    -15.551  0.0000E+00  0.0000E+00  0.0000E+00  0.0000E+00
    -15.372  0.0000E+00  0.0000E+00  0.0000E+00  0.0000E+00
    -15.193  0.0000E+00  0.0000E+00  0.0000E+00  0.0000E+00
    -15.014  0.0000E+00  0.0000E+00  0.0000E+00  0.0000E+00
    -14.834  0.0000E+00  0.0000E+00  0.0000E+00  0.0000E+00
    -14.655  0.0000E+00  0.0000E+00  0.0000E+00  0.0000E+00
    -14.476  0.0000E+00  0.0000E+00  0.0000E+00  0.0000E+00
    -14.297  0.0000E+00  0.0000E+00  0.0000E+00  0.0000E+00
    -14.118  0.0000E+00  0.0000E+00  0.0000E+00  0.0000E+00
    -13.939  0.0000E+00  0.0000E+00  0.0000E+00  0.0000E+00
    -13.760  0.7276E-01  0.7270E-01  0.2497E-02  0.2492E-02
    -13.581  0.2166E+00  0.2166E+00  0.2425E-01  0.2424E-01
    -13.402  0.2756E+00  0.2756E+00  0.6243E-01  0.6241E-01
    -13.222  0.3929E+00  0.3929E+00  0.1200E+00  0.1200E+00
    -13.043  0.6021E+00  0.6020E+00  0.2065E+00  0.2065E+00
    -12.864  0.1218E+01  0.1217E+01  0.3490E+00  0.3489E+00
    -12.685  0.4468E+01  0.4464E+01  0.7074E+00  0.7071E+00
    -12.506  0.1185E+01  0.1185E+01  0.1000E+01  0.1000E+01
    -12.327  0.0000E+00  0.0000E+00  0.1000E+01  0.1000E+01
    -12.148  0.0000E+00  0.0000E+00  0.1000E+01  0.1000E+01
    -11.969  0.0000E+00  0.0000E+00  0.1000E+01  0.1000E+01
    -11.790  0.0000E+00  0.0000E+00  0.1000E+01  0.1000E+01
    -11.611  0.0000E+00  0.0000E+00  0.1000E+01  0.1000E+01
    -11.431  0.0000E+00  0.0000E+00  0.1000E+01  0.1000E+01
    -11.252  0.0000E+00  0.0000E+00  0.1000E+01  0.1000E+01
    -11.073  0.0000E+00  0.0000E+00  0.1000E+01  0.1000E+01
    -10.894  0.0000E+00  0.0000E+00  0.1000E+01  0.1000E+01
    -10.715  0.0000E+00  0.0000E+00  0.1000E+01  0.1000E+01
    -10.536  0.0000E+00  0.0000E+00  0.1000E+01  0.1000E+01
    -10.357  0.0000E+00  0.0000E+00  0.1000E+01  0.1000E+01
    -10.178  0.0000E+00  0.0000E+00  0.1000E+01  0.1000E+01
     -9.999  0.0000E+00  0.0000E+00  0.1000E+01  0.1000E+01
     -9.819  0.0000E+00  0.0000E+00  0.1000E+01  0.1000E+01
     -9.640  0.0000E+00  0.0000E+00  0.1000E+01  0.1000E+01
     -9.461  0.0000E+00  0.0000E+00  0.1000E+01  0.1000E+01
     -9.282  0.0000E+00  0.0000E+00  0.1000E+01  0.1000E+01
     -9.103  0.0000E+00  0.0000E+00  0.1000E+01  0.1000E+01
     -8.924  0.0000E+00  0.0000E+00  0.1000E+01  0.1000E+01
     -8.745  0.0000E+00  0.0000E+00  0.1000E+01  0.1000E+01
     -8.566  0.0000E+00  0.0000E+00  0.1000E+01  0.1000E+01
     -8.387  0.0000E+00  0.0000E+00  0.1000E+01  0.1000E+01
     -8.207  0.0000E+00  0.0000E+00  0.1000E+01  0.1000E+01
     -8.028  0.0000E+00  0.0000E+00  0.1000E+01  0.1000E+01
     -7.849  0.0000E+00  0.0000E+00  0.1000E+01  0.1000E+01
     -7.670  0.0000E+00  0.0000E+00  0.1000E+01  0.1000E+01
     -7.491  0.0000E+00  0.0000E+00  0.1000E+01  0.1000E+01
     -7.312  0.0000E+00  0.0000E+00  0.1000E+01  0.1000E+01
     -7.133  0.0000E+00  0.0000E+00  0.1000E+01  0.1000E+01
     -6.954  0.0000E+00  0.0000E+00  0.1000E+01  0.1000E+01
     -6.775  0.0000E+00  0.0000E+00  0.1000E+01  0.1000E+01
     -6.595  0.0000E+00  0.0000E+00  0.1000E+01  0.1000E+01
     -6.416  0.0000E+00  0.0000E+00  0.1000E+01  0.1000E+01
     -6.237  0.0000E+00  0.0000E+00  0.1000E+01  0.1000E+01
     -6.058  0.0000E+00  0.0000E+00  0.1000E+01  0.1000E+01
     -5.879  0.0000E+00  0.0000E+00  0.1000E+01  0.1000E+01
     -5.700  0.0000E+00  0.0000E+00  0.1000E+01  0.1000E+01
     -5.521  0.0000E+00  0.0000E+00  0.1000E+01  0.1000E+01
     -5.342  0.0000E+00  0.0000E+00  0.1000E+01  0.1000E+01
     -5.163  0.0000E+00  0.0000E+00  0.1000E+01  0.1000E+01
     -4.983  0.0000E+00  0.0000E+00  0.1000E+01  0.1000E+01
     -4.804  0.0000E+00  0.0000E+00  0.1000E+01  0.1000E+01
     -4.625  0.0000E+00  0.0000E+00  0.1000E+01  0.1000E+01
     -4.446  0.0000E+00  0.0000E+00  0.1000E+01  0.1000E+01
     -4.267  0.0000E+00  0.0000E+00  0.1000E+01  0.1000E+01
     -4.088  0.0000E+00  0.0000E+00  0.1000E+01  0.1000E+01
     -3.909  0.0000E+00  0.0000E+00  0.1000E+01  0.1000E+01
     -3.730  0.0000E+00  0.0000E+00  0.1000E+01  0.1000E+01
     -3.551  0.0000E+00  0.0000E+00  0.1000E+01  0.1000E+01
     -3.371  0.0000E+00  0.0000E+00  0.1000E+01  0.1000E+01
     -3.192  0.0000E+00  0.0000E+00  0.1000E+01  0.1000E+01
     -3.013  0.0000E+00  0.0000E+00  0.1000E+01  0.1000E+01
     -2.834  0.0000E+00  0.0000E+00  0.1000E+01  0.1000E+01
     -2.655  0.0000E+00  0.0000E+00  0.1000E+01  0.1000E+01
     -2.476  0.0000E+00  0.0000E+00  0.1000E+01  0.1000E+01
     -2.297  0.0000E+00  0.0000E+00  0.1000E+01  0.1000E+01
     -2.118  0.0000E+00  0.0000E+00  0.1000E+01  0.1000E+01
     -1.939  0.0000E+00  0.0000E+00  0.1000E+01  0.1000E+01
     -1.759  0.6230E-01  0.6224E-01  0.1001E+01  0.1001E+01
     -1.580  0.2061E+00  0.2061E+00  0.1021E+01  0.1021E+01
     -1.401  0.2611E+00  0.2610E+00  0.1060E+01  0.1060E+01
     -1.222  0.3664E+00  0.3664E+00  0.1115E+01  0.1115E+01
     -1.043  0.5525E+00  0.5524E+00  0.1196E+01  0.1196E+01
     -0.864  0.9296E+00  0.9296E+00  0.1328E+01  0.1328E+01
     -0.685  0.1029E+01  0.1029E+01  0.1495E+01  0.1495E+01
     -0.506  0.1119E+01  0.1119E+01  0.1683E+01  0.1683E+01
     -0.327  0.7343E+00  0.7344E+00  0.1829E+01  0.1829E+01
     -0.148  0.2188E+00  0.2188E+00  0.1897E+01  0.1897E+01
      0.032  0.5890E+00  0.5886E+00  0.1950E+01  0.1950E+01
      0.211  0.2321E+01  0.2320E+01  0.2165E+01  0.2165E+01
      0.390  0.2805E+01  0.2804E+01  0.2509E+01  0.2509E+01
      0.569  0.2753E+01  0.2754E+01  0.2988E+01  0.2988E+01
      0.748  0.1362E+01  0.1363E+01  0.3273E+01  0.3273E+01
      0.927  0.1109E+01  0.1109E+01  0.3492E+01  0.3492E+01
      1.106  0.8513E+00  0.8515E+00  0.3665E+01  0.3665E+01
      1.285  0.7057E+00  0.7059E+00  0.3806E+01  0.3806E+01
      1.464  0.4840E+00  0.4841E+00  0.3907E+01  0.3907E+01
      1.644  0.2556E+00  0.2557E+00  0.3969E+01  0.3969E+01
      1.823  0.4456E+00  0.4454E+00  0.4022E+01  0.4022E+01
      2.002  0.1356E+01  0.1356E+01  0.4168E+01  0.4168E+01
      2.181  0.2251E+01  0.2251E+01  0.4428E+01  0.4428E+01
      2.360  0.4350E+01  0.4347E+01  0.4861E+01  0.4861E+01
      2.539  0.8517E+01  0.8519E+01  0.5749E+01  0.5749E+01
      2.718  0.2222E+01  0.2221E+01  0.6087E+01  0.6087E+01
      2.897  0.6225E+01  0.6135E+01  0.6574E+01  0.6573E+01
      3.076  0.1871E+01  0.1895E+01  0.6972E+01  0.6972E+01
      3.256  0.9030E+00  0.9023E+00  0.7139E+01  0.7139E+01
      3.435  0.1444E+01  0.1445E+01  0.7345E+01  0.7345E+01
      3.614  0.8875E+00  0.8877E+00  0.7540E+01  0.7540E+01
      3.793  0.8237E+00  0.8237E+00  0.7691E+01  0.7691E+01
      3.972  0.8032E+00  0.8032E+00  0.7836E+01  0.7836E+01
      4.151  0.9021E+00  0.9016E+00  0.7984E+01  0.7983E+01
      4.330  0.8553E+00  0.8553E+00  0.8139E+01  0.8138E+01
      4.509  0.8083E+00  0.8083E+00  0.8287E+01  0.8286E+01
      4.688  0.8009E+00  0.8009E+00  0.8430E+01  0.8430E+01
      4.868  0.7777E+00  0.7777E+00  0.8571E+01  0.8571E+01
      5.047  0.7903E+00  0.7902E+00  0.8711E+01  0.8710E+01
      5.226  0.7539E+00  0.7541E+00  0.8852E+01  0.8852E+01
      5.405  0.5002E+00  0.5021E+00  0.8988E+01  0.8988E+01
      5.584  0.4546E-02  0.4546E-02  0.9000E+01  0.9000E+01
      5.763  0.0000E+00  0.0000E+00  0.9000E+01  0.9000E+01
      5.942  0.0000E+00  0.0000E+00  0.9000E+01  0.9000E+01
      6.121  0.0000E+00  0.0000E+00  0.9000E+01  0.9000E+01
      6.300  0.0000E+00  0.0000E+00  0.9000E+01  0.9000E+01
      6.480  0.0000E+00  0.0000E+00  0.9000E+01  0.9000E+01
      6.659  0.1317E-02  0.1316E-02  0.9000E+01  0.9000E+01
      6.838  0.6518E-02  0.6518E-02  0.9001E+01  0.9001E+01
      7.017  0.8629E-02  0.8628E-02  0.9002E+01  0.9002E+01
      7.196  0.1166E-01  0.1165E-01  0.9004E+01  0.9004E+01
      7.375  0.1463E-01  0.1463E-01  0.9006E+01  0.9006E+01
      7.554  0.1753E-01  0.1753E-01  0.9009E+01  0.9009E+01
      7.733  0.2070E-01  0.2070E-01  0.9013E+01  0.9013E+01
      7.912  0.2408E-01  0.2408E-01  0.9017E+01  0.9017E+01
      8.092  0.2788E-01  0.2788E-01  0.9021E+01  0.9021E+01
      8.271  0.3188E-01  0.3188E-01  0.9027E+01  0.9027E+01
      8.450  0.3605E-01  0.3605E-01  0.9033E+01  0.9033E+01
      8.629  0.4054E-01  0.4054E-01  0.9040E+01  0.9040E+01
      8.808  0.4584E-01  0.4583E-01  0.9047E+01  0.9047E+01
      8.987  0.5143E-01  0.5143E-01  0.9056E+01  0.9056E+01
      9.166  0.5737E-01  0.5737E-01  0.9066E+01  0.9066E+01
      9.345  0.6377E-01  0.6377E-01  0.9077E+01  0.9077E+01
      9.524  0.7135E-01  0.7135E-01  0.9089E+01  0.9089E+01
      9.704  0.7970E-01  0.7970E-01  0.9102E+01  0.9102E+01
      9.883  0.8888E-01  0.8888E-01  0.9117E+01  0.9117E+01
     10.062  0.9896E-01  0.9896E-01  0.9134E+01  0.9134E+01
     10.241  0.1111E+00  0.1111E+00  0.9153E+01  0.9153E+01
     10.420  0.1255E+00  0.1255E+00  0.9174E+01  0.9174E+01
     10.599  0.1428E+00  0.1428E+00  0.9198E+01  0.9198E+01
     10.778  0.1643E+00  0.1643E+00  0.9225E+01  0.9225E+01
     10.957  0.2431E+00  0.2431E+00  0.9260E+01  0.9260E+01
     11.136  0.3589E+00  0.3589E+00  0.9314E+01  0.9314E+01
     11.315  0.3606E+00  0.3606E+00  0.9377E+01  0.9377E+01
     11.495  0.3403E+00  0.3403E+00  0.9439E+01  0.9439E+01
     11.674  0.3357E+00  0.3357E+00  0.9500E+01  0.9500E+01
     11.853  0.3236E+00  0.3236E+00  0.9559E+01  0.9559E+01
     12.032  0.3174E+00  0.3174E+00  0.9616E+01  0.9616E+01
     12.211  0.3088E+00  0.3088E+00  0.9672E+01  0.9672E+01
     12.390  0.2947E+00  0.2947E+00  0.9726E+01  0.9726E+01
     12.569  0.2888E+00  0.2888E+00  0.9778E+01  0.9778E+01
     12.748  0.2906E+00  0.2906E+00  0.9830E+01  0.9830E+01
     12.927  0.3182E+00  0.3182E+00  0.9885E+01  0.9885E+01
     13.107  0.2987E+00  0.2987E+00  0.9942E+01  0.9942E+01
     13.286  0.1677E+00  0.1677E+00  0.9983E+01  0.9983E+01
     13.465  0.7888E-02  0.7911E-02  0.1000E+02  0.1000E+02
     13.644  0.9245E-02  0.9233E-02  0.1000E+02  0.1000E+02
     13.823  0.1718E+00  0.1718E+00  0.1002E+02  0.1002E+02
     14.002  0.2749E+00  0.2749E+00  0.1006E+02  0.1006E+02
     14.181  0.3484E+00  0.3483E+00  0.1011E+02  0.1011E+02
     14.360  0.4185E+00  0.4186E+00  0.1018E+02  0.1018E+02
     14.539  0.3491E+00  0.3491E+00  0.1025E+02  0.1025E+02
     14.719  0.3361E+00  0.3361E+00  0.1031E+02  0.1031E+02
     14.898  0.3645E+00  0.3645E+00  0.1037E+02  0.1037E+02
     15.077  0.3675E+00  0.3675E+00  0.1044E+02  0.1044E+02
     15.256  0.4589E+00  0.4588E+00  0.1051E+02  0.1051E+02
     15.435  0.6910E+00  0.6905E+00  0.1060E+02  0.1060E+02
     15.614  0.6651E+00  0.6650E+00  0.1071E+02  0.1071E+02
     15.793  0.6095E+00  0.6095E+00  0.1082E+02  0.1082E+02
     15.972  0.5841E+00  0.5842E+00  0.1092E+02  0.1092E+02
     16.151  0.5655E+00  0.5655E+00  0.1102E+02  0.1102E+02
     16.331  0.5189E+00  0.5189E+00  0.1112E+02  0.1112E+02
     16.510  0.5026E+00  0.5026E+00  0.1121E+02  0.1121E+02
     16.689  0.4631E+00  0.4631E+00  0.1130E+02  0.1130E+02
     16.868  0.3965E+00  0.3965E+00  0.1138E+02  0.1138E+02
     17.047  0.3386E+00  0.3386E+00  0.1144E+02  0.1144E+02
     17.226  0.3023E+00  0.3024E+00  0.1150E+02  0.1150E+02
     17.405  0.2688E+00  0.2689E+00  0.1155E+02  0.1155E+02
     17.584  0.2470E+00  0.2470E+00  0.1160E+02  0.1160E+02
     17.763  0.2254E+00  0.2255E+00  0.1164E+02  0.1164E+02
     17.943  0.2023E+00  0.2023E+00  0.1168E+02  0.1168E+02
     18.122  0.1884E+00  0.1884E+00  0.1171E+02  0.1171E+02
     18.301  0.2024E+00  0.2024E+00  0.1175E+02  0.1175E+02
     18.480  0.2057E+00  0.2057E+00  0.1178E+02  0.1178E+02
     18.659  0.2165E+00  0.2165E+00  0.1182E+02  0.1182E+02
     18.838  0.2178E+00  0.2178E+00  0.1186E+02  0.1186E+02
     19.017  0.3309E+00  0.3309E+00  0.1191E+02  0.1191E+02
     19.196  0.4739E+00  0.4739E+00  0.1198E+02  0.1198E+02
     19.375  0.7820E+00  0.7820E+00  0.1209E+02  0.1209E+02
     19.555  0.7248E+00  0.7248E+00  0.1222E+02  0.1222E+02
     19.734  0.7118E+00  0.7118E+00  0.1235E+02  0.1235E+02
     19.913  0.5490E+00  0.5490E+00  0.1246E+02  0.1246E+02
     20.092  0.4686E+00  0.4686E+00  0.1255E+02  0.1255E+02
     20.271  0.4203E+00  0.4203E+00  0.1263E+02  0.1263E+02
     20.450  0.3841E+00  0.3841E+00  0.1270E+02  0.1270E+02
     20.629  0.3592E+00  0.3592E+00  0.1277E+02  0.1277E+02
     20.808  0.3157E+00  0.3157E+00  0.1283E+02  0.1283E+02
     20.987  0.2230E+00  0.2230E+00  0.1287E+02  0.1287E+02
     21.167  0.1939E+00  0.1939E+00  0.1291E+02  0.1291E+02
     21.346  0.1919E+00  0.1919E+00  0.1294E+02  0.1294E+02
     21.525  0.1950E+00  0.1950E+00  0.1298E+02  0.1298E+02
     21.704  0.1825E+00  0.1825E+00  0.1301E+02  0.1301E+02
     21.883  0.1713E+00  0.1713E+00  0.1304E+02  0.1304E+02
     22.062  0.1720E+00  0.1720E+00  0.1308E+02  0.1308E+02
     22.241  0.1779E+00  0.1779E+00  0.1311E+02  0.1311E+02
     22.420  0.1841E+00  0.1841E+00  0.1314E+02  0.1314E+02
     22.599  0.1830E+00  0.1830E+00  0.1317E+02  0.1317E+02
     22.779  0.1865E+00  0.1865E+00  0.1321E+02  0.1321E+02
     22.958  0.1869E+00  0.1869E+00  0.1324E+02  0.1324E+02
     23.137  0.1681E+00  0.1681E+00  0.1327E+02  0.1327E+02
     23.316  0.1739E+00  0.1739E+00  0.1330E+02  0.1330E+02
     23.495  0.1863E+00  0.1863E+00  0.1333E+02  0.1333E+02
     23.674  0.1950E+00  0.1950E+00  0.1337E+02  0.1337E+02
     23.853  0.2058E+00  0.2058E+00  0.1340E+02  0.1340E+02
     24.032  0.2190E+00  0.2190E+00  0.1344E+02  0.1344E+02
     24.211  0.2297E+00  0.2297E+00  0.1348E+02  0.1348E+02
     24.390  0.2407E+00  0.2407E+00  0.1352E+02  0.1352E+02
     24.570  0.2177E+00  0.2177E+00  0.1356E+02  0.1356E+02
     24.749  0.2347E+00  0.2347E+00  0.1361E+02  0.1361E+02
     24.928  0.2505E+00  0.2505E+00  0.1365E+02  0.1365E+02
     25.107  0.2807E+00  0.2807E+00  0.1370E+02  0.1370E+02
     25.286  0.3130E+00  0.3130E+00  0.1375E+02  0.1375E+02
     25.465  0.3419E+00  0.3419E+00  0.1381E+02  0.1381E+02
     25.644  0.3596E+00  0.3596E+00  0.1387E+02  0.1387E+02
     25.823  0.3029E+00  0.3029E+00  0.1393E+02  0.1393E+02
     26.002  0.2423E+00  0.2423E+00  0.1398E+02  0.1398E+02
     26.182  0.2216E+00  0.2216E+00  0.1402E+02  0.1402E+02
     26.361  0.2032E+00  0.2032E+00  0.1406E+02  0.1406E+02
     26.540  0.1462E+00  0.1462E+00  0.1409E+02  0.1409E+02
     26.719  0.1628E+00  0.1628E+00  0.1412E+02  0.1412E+02
     26.898  0.2911E+00  0.2911E+00  0.1416E+02  0.1416E+02
     27.077  0.3278E+00  0.3278E+00  0.1421E+02  0.1421E+02
     27.256  0.4089E+00  0.4089E+00  0.1428E+02  0.1428E+02
     27.435  0.3903E+00  0.3903E+00  0.1435E+02  0.1435E+02
     27.614  0.4172E+00  0.4172E+00  0.1442E+02  0.1442E+02
     27.794  0.4040E+00  0.4040E+00  0.1450E+02  0.1450E+02
     27.973  0.3621E+00  0.3621E+00  0.1456E+02  0.1456E+02
     28.152  0.3705E+00  0.3705E+00  0.1463E+02  0.1463E+02
     28.331  0.3589E+00  0.3589E+00  0.1469E+02  0.1469E+02
     28.510  0.3420E+00  0.3420E+00  0.1476E+02  0.1476E+02
     28.689  0.3281E+00  0.3281E+00  0.1482E+02  0.1482E+02
     28.868  0.3159E+00  0.3159E+00  0.1488E+02  0.1488E+02
     29.047  0.3523E+00  0.3522E+00  0.1493E+02  0.1493E+02
     29.226  0.3128E+00  0.3128E+00  0.1499E+02  0.1499E+02
     29.406  0.2895E+00  0.2895E+00  0.1505E+02  0.1505E+02
     29.585  0.2634E+00  0.2634E+00  0.1510E+02  0.1510E+02
     29.764  0.2436E+00  0.2436E+00  0.1514E+02  0.1514E+02
     29.943  0.2283E+00  0.2283E+00  0.1519E+02  0.1519E+02
     30.122  0.2177E+00  0.2177E+00  0.1523E+02  0.1523E+02
     30.301  0.2113E+00  0.2113E+00  0.1526E+02  0.1526E+02
     30.480  0.2049E+00  0.2049E+00  0.1530E+02  0.1530E+02
     30.659  0.1976E+00  0.1977E+00  0.1534E+02  0.1534E+02
     30.838  0.1897E+00  0.1897E+00  0.1537E+02  0.1537E+02
     31.018  0.1846E+00  0.1847E+00  0.1541E+02  0.1541E+02
     31.197  0.1788E+00  0.1789E+00  0.1544E+02  0.1544E+02
     31.376  0.1913E+00  0.1914E+00  0.1547E+02  0.1547E+02
     31.555  0.2334E+00  0.2335E+00  0.1551E+02  0.1551E+02
     31.734  0.2765E+00  0.2767E+00  0.1555E+02  0.1555E+02
     31.913  0.2130E+00  0.2133E+00  0.1560E+02  0.1560E+02
     32.092  0.1142E+00  0.1145E+00  0.1563E+02  0.1563E+02
     32.271  0.1206E+00  0.1208E+00  0.1565E+02  0.1565E+02
     32.450  0.2775E+00  0.2776E+00  0.1568E+02  0.1568E+02
     32.630  0.4597E+00  0.4624E+00  0.1575E+02  0.1575E+02
     32.809  0.3243E+00  0.3214E+00  0.1582E+02  0.1582E+02
     32.988  0.2317E+00  0.2317E+00  0.1587E+02  0.1587E+02
     33.167  0.2147E+00  0.2147E+00  0.1591E+02  0.1591E+02
     33.346  0.1925E+00  0.1925E+00  0.1594E+02  0.1594E+02
     33.525  0.1299E+00  0.1300E+00  0.1597E+02  0.1597E+02
     33.704  0.3952E-01  0.3959E-01  0.1599E+02  0.1599E+02
     33.883  0.1191E-01  0.1191E-01  0.1599E+02  0.1599E+02
     34.062  0.9469E-02  0.9470E-02  0.1599E+02  0.1599E+02
     34.242  0.7998E-02  0.7999E-02  0.1600E+02  0.1600E+02
     34.421  0.6555E-02  0.6556E-02  0.1600E+02  0.1600E+02
     34.600  0.5140E-02  0.5141E-02  0.1600E+02  0.1600E+02
     34.779  0.3753E-02  0.3754E-02  0.1600E+02  0.1600E+02
     34.958  0.6797E-02  0.6788E-02  0.1600E+02  0.1600E+02
     35.137  0.0000E+00  0.0000E+00  0.1600E+02  0.1600E+02
     35.316  0.0000E+00  0.0000E+00  0.1600E+02  0.1600E+02
     35.495  0.0000E+00  0.0000E+00  0.1600E+02  0.1600E+02
     35.674  0.0000E+00  0.0000E+00  0.1600E+02  0.1600E+02
     35.853  0.0000E+00  0.0000E+00  0.1600E+02  0.1600E+02
     36.033  0.0000E+00  0.0000E+00  0.1600E+02  0.1600E+02
     36.212  0.0000E+00  0.0000E+00  0.1600E+02  0.1600E+02
     36.391  0.0000E+00  0.0000E+00  0.1600E+02  0.1600E+02
     36.570  0.0000E+00  0.0000E+00  0.1600E+02  0.1600E+02
     36.749  0.0000E+00  0.0000E+00  0.1600E+02  0.1600E+02
     36.928  0.0000E+00  0.0000E+00  0.1600E+02  0.1600E+02
     37.107  0.0000E+00  0.0000E+00  0.1600E+02  0.1600E+02
     37.286  0.0000E+00  0.0000E+00  0.1600E+02  0.1600E+02
     37.465  0.0000E+00  0.0000E+00  0.1600E+02  0.1600E+02
     37.46547362    -16.26735460  301      4.77631207      1.00000000
    -16.267  0.0000E+00  0.0000E+00  0.0000E+00  0.0000E+00  0.0000E+00  0.0000E+00  0.0000E+00  0.0000E+00  0.0000E+00  0.0000E+00  0.0000E+00  0.0000E+00  0.0000E+00  0.0000E+00  0.0000E+00  0.0000E+00  0.0000E+00  0.0000E+00
    -16.088  0.0000E+00  0.0000E+00  0.0000E+00  0.0000E+00  0.0000E+00  0.0000E+00  0.0000E+00  0.0000E+00  0.0000E+00  0.0000E+00  0.0000E+00  0.0000E+00  0.0000E+00  0.0000E+00  0.0000E+00  0.0000E+00  0.0000E+00  0.0000E+00
    -15.909  0.0000E+00  0.0000E+00  0.0000E+00  0.0000E+00  0.0000E+00  0.0000E+00  0.0000E+00  0.0000E+00  0.0000E+00  0.0000E+00  0.0000E+00  0.0000E+00  0.0000E+00  0.0000E+00  0.0000E+00  0.0000E+00  0.0000E+00  0.0000E+00
    -15.730  0.0000E+00  0.0000E+00  0.0000E+00  0.0000E+00  0.0000E+00  0.0000E+00  0.0000E+00  0.0000E+00  0.0000E+00  0.0000E+00  0.0000E+00  0.0000E+00  0.0000E+00  0.0000E+00  0.0000E+00  0.0000E+00  0.0000E+00  0.0000E+00
    -15.551  0.0000E+00  0.0000E+00  0.0000E+00  0.0000E+00  0.0000E+00  0.0000E+00  0.0000E+00  0.0000E+00  0.0000E+00  0.0000E+00  0.0000E+00  0.0000E+00  0.0000E+00  0.0000E+00  0.0000E+00  0.0000E+00  0.0000E+00  0.0000E+00
    -15.372  0.0000E+00  0.0000E+00  0.0000E+00  0.0000E+00  0.0000E+00  0.0000E+00  0.0000E+00  0.0000E+00  0.0000E+00  0.0000E+00  0.0000E+00  0.0000E+00  0.0000E+00  0.0000E+00  0.0000E+00  0.0000E+00  0.0000E+00  0.0000E+00
    -15.193  0.0000E+00  0.0000E+00  0.0000E+00  0.0000E+00  0.0000E+00  0.0000E+00  0.0000E+00  0.0000E+00  0.0000E+00  0.0000E+00  0.0000E+00  0.0000E+00  0.0000E+00  0.0000E+00  0.0000E+00  0.0000E+00  0.0000E+00  0.0000E+00
    -15.014  0.0000E+00  0.0000E+00  0.0000E+00  0.0000E+00  0.0000E+00  0.0000E+00  0.0000E+00  0.0000E+00  0.0000E+00  0.0000E+00  0.0000E+00  0.0000E+00  0.0000E+00  0.0000E+00  0.0000E+00  0.0000E+00  0.0000E+00  0.0000E+00
    -14.834  0.0000E+00  0.0000E+00  0.0000E+00  0.0000E+00  0.0000E+00  0.0000E+00  0.0000E+00  0.0000E+00  0.0000E+00  0.0000E+00  0.0000E+00  0.0000E+00  0.0000E+00  0.0000E+00  0.0000E+00  0.0000E+00  0.0000E+00  0.0000E+00
    -14.655  0.0000E+00  0.0000E+00  0.0000E+00  0.0000E+00  0.0000E+00  0.0000E+00  0.0000E+00  0.0000E+00  0.0000E+00  0.0000E+00  0.0000E+00  0.0000E+00  0.0000E+00  0.0000E+00  0.0000E+00  0.0000E+00  0.0000E+00  0.0000E+00
    -14.476  0.0000E+00  0.0000E+00  0.0000E+00  0.0000E+00  0.0000E+00  0.0000E+00  0.0000E+00  0.0000E+00  0.0000E+00  0.0000E+00  0.0000E+00  0.0000E+00  0.0000E+00  0.0000E+00  0.0000E+00  0.0000E+00  0.0000E+00  0.0000E+00
    -14.297  0.0000E+00  0.0000E+00  0.0000E+00  0.0000E+00  0.0000E+00  0.0000E+00  0.0000E+00  0.0000E+00  0.0000E+00  0.0000E+00  0.0000E+00  0.0000E+00  0.0000E+00  0.0000E+00  0.0000E+00  0.0000E+00  0.0000E+00  0.0000E+00
    -14.118  0.0000E+00  0.0000E+00  0.0000E+00  0.0000E+00  0.0000E+00  0.0000E+00  0.0000E+00  0.0000E+00  0.0000E+00  0.0000E+00  0.0000E+00  0.0000E+00  0.0000E+00  0.0000E+00  0.0000E+00  0.0000E+00  0.0000E+00  0.0000E+00
    -13.939  0.0000E+00  0.0000E+00  0.0000E+00  0.0000E+00  0.0000E+00  0.0000E+00  0.0000E+00  0.0000E+00  0.0000E+00  0.0000E+00  0.0000E+00  0.0000E+00  0.0000E+00  0.0000E+00  0.0000E+00  0.0000E+00  0.0000E+00  0.0000E+00
    -13.760  0.4883E-02  0.4879E-02  0.4877E-04  0.4869E-04  0.4877E-04  0.4869E-04  0.4877E-04  0.4869E-04  0.1505E-07  0.1502E-07  0.1505E-07  0.1502E-07  0.1414E-05  0.1411E-05  0.1505E-07  0.1502E-07  0.1414E-05  0.1411E-05
    -13.581  0.1242E-01  0.1242E-01  0.4606E-03  0.4604E-03  0.4606E-03  0.4604E-03  0.4606E-03  0.4604E-03  0.3890E-06  0.3888E-06  0.3890E-06  0.3888E-06  0.4053E-04  0.4050E-04  0.3890E-06  0.3888E-06  0.4053E-04  0.4050E-04
    -13.402  0.1254E-01  0.1254E-01  0.1017E-02  0.1017E-02  0.1017E-02  0.1017E-02  0.1017E-02  0.1017E-02  0.1275E-05  0.1275E-05  0.1275E-05  0.1275E-05  0.1885E-03  0.1884E-03  0.1275E-05  0.1275E-05  0.1885E-03  0.1884E-03
    -13.222  0.1354E-01  0.1354E-01  0.1926E-02  0.1926E-02  0.1926E-02  0.1926E-02  0.1926E-02  0.1926E-02  0.2894E-05  0.2893E-05  0.2894E-05  0.2893E-05  0.5882E-03  0.5879E-03  0.2894E-05  0.2893E-05  0.5882E-03  0.5879E-03
    -13.043  0.1424E-01  0.1424E-01  0.3483E-02  0.3482E-02  0.3483E-02  0.3482E-02  0.3483E-02  0.3482E-02  0.5331E-05  0.5330E-05  0.5331E-05  0.5330E-05  0.1657E-02  0.1657E-02  0.5331E-05  0.5330E-05  0.1657E-02  0.1657E-02
    -12.864  0.1583E-01  0.1583E-01  0.7698E-02  0.7695E-02  0.7698E-02  0.7695E-02  0.7698E-02  0.7695E-02  0.1002E-04  0.1002E-04  0.1002E-04  0.1002E-04  0.5492E-02  0.5489E-02  0.1002E-04  0.1002E-04  0.5492E-02  0.5489E-02
    -12.685  0.1607E-01  0.1606E-01  0.2457E-01  0.2457E-01  0.2457E-01  0.2457E-01  0.2457E-01  0.2457E-01  0.1798E-04  0.1798E-04  0.1798E-04  0.1798E-04  0.3747E-01  0.3740E-01  0.1798E-04  0.1798E-04  0.3747E-01  0.3740E-01
    -12.506  0.1944E-02  0.1944E-02  0.4695E-02  0.4695E-02  0.4695E-02  0.4695E-02  0.4695E-02  0.4695E-02  0.2507E-05  0.2507E-05  0.2507E-05  0.2507E-05  0.1387E-01  0.1387E-01  0.2507E-05  0.2507E-05  0.1387E-01  0.1387E-01
    -12.327  0.0000E+00  0.0000E+00  0.0000E+00  0.0000E+00  0.0000E+00  0.0000E+00  0.0000E+00  0.0000E+00  0.0000E+00  0.0000E+00  0.0000E+00  0.0000E+00  0.0000E+00  0.0000E+00  0.0000E+00  0.0000E+00  0.0000E+00  0.0000E+00
    -12.148  0.0000E+00  0.0000E+00  0.0000E+00  0.0000E+00  0.0000E+00  0.0000E+00  0.0000E+00  0.0000E+00  0.0000E+00  0.0000E+00  0.0000E+00  0.0000E+00  0.0000E+00  0.0000E+00  0.0000E+00  0.0000E+00  0.0000E+00  0.0000E+00
    -11.969  0.0000E+00  0.0000E+00  0.0000E+00  0.0000E+00  0.0000E+00  0.0000E+00  0.0000E+00  0.0000E+00  0.0000E+00  0.0000E+00  0.0000E+00  0.0000E+00  0.0000E+00  0.0000E+00  0.0000E+00  0.0000E+00  0.0000E+00  0.0000E+00
    -11.790  0.0000E+00  0.0000E+00  0.0000E+00  0.0000E+00  0.0000E+00  0.0000E+00  0.0000E+00  0.0000E+00  0.0000E+00  0.0000E+00  0.0000E+00  0.0000E+00  0.0000E+00  0.0000E+00  0.0000E+00  0.0000E+00  0.0000E+00  0.0000E+00
    -11.611  0.0000E+00  0.0000E+00  0.0000E+00  0.0000E+00  0.0000E+00  0.0000E+00  0.0000E+00  0.0000E+00  0.0000E+00  0.0000E+00  0.0000E+00  0.0000E+00  0.0000E+00  0.0000E+00  0.0000E+00  0.0000E+00  0.0000E+00  0.0000E+00
    -11.431  0.0000E+00  0.0000E+00  0.0000E+00  0.0000E+00  0.0000E+00  0.0000E+00  0.0000E+00  0.0000E+00  0.0000E+00  0.0000E+00  0.0000E+00  0.0000E+00  0.0000E+00  0.0000E+00  0.0000E+00  0.0000E+00  0.0000E+00  0.0000E+00
    -11.252  0.0000E+00  0.0000E+00  0.0000E+00  0.0000E+00  0.0000E+00  0.0000E+00  0.0000E+00  0.0000E+00  0.0000E+00  0.0000E+00  0.0000E+00  0.0000E+00  0.0000E+00  0.0000E+00  0.0000E+00  0.0000E+00  0.0000E+00  0.0000E+00
    -11.073  0.0000E+00  0.0000E+00  0.0000E+00  0.0000E+00  0.0000E+00  0.0000E+00  0.0000E+00  0.0000E+00  0.0000E+00  0.0000E+00  0.0000E+00  0.0000E+00  0.0000E+00  0.0000E+00  0.0000E+00  0.0000E+00  0.0000E+00  0.0000E+00
    -10.894  0.0000E+00  0.0000E+00  0.0000E+00  0.0000E+00  0.0000E+00  0.0000E+00  0.0000E+00  0.0000E+00  0.0000E+00  0.0000E+00  0.0000E+00  0.0000E+00  0.0000E+00  0.0000E+00  0.0000E+00  0.0000E+00  0.0000E+00  0.0000E+00
    -10.715  0.0000E+00  0.0000E+00  0.0000E+00  0.0000E+00  0.0000E+00  0.0000E+00  0.0000E+00  0.0000E+00  0.0000E+00  0.0000E+00  0.0000E+00  0.0000E+00  0.0000E+00  0.0000E+00  0.0000E+00  0.0000E+00  0.0000E+00  0.0000E+00
    -10.536  0.0000E+00  0.0000E+00  0.0000E+00  0.0000E+00  0.0000E+00  0.0000E+00  0.0000E+00  0.0000E+00  0.0000E+00  0.0000E+00  0.0000E+00  0.0000E+00  0.0000E+00  0.0000E+00  0.0000E+00  0.0000E+00  0.0000E+00  0.0000E+00
    -10.357  0.0000E+00  0.0000E+00  0.0000E+00  0.0000E+00  0.0000E+00  0.0000E+00  0.0000E+00  0.0000E+00  0.0000E+00  0.0000E+00  0.0000E+00  0.0000E+00  0.0000E+00  0.0000E+00  0.0000E+00  0.0000E+00  0.0000E+00  0.0000E+00
    -10.178  0.0000E+00  0.0000E+00  0.0000E+00  0.0000E+00  0.0000E+00  0.0000E+00  0.0000E+00  0.0000E+00  0.0000E+00  0.0000E+00  0.0000E+00  0.0000E+00  0.0000E+00  0.0000E+00  0.0000E+00  0.0000E+00  0.0000E+00  0.0000E+00
     -9.999  0.0000E+00  0.0000E+00  0.0000E+00  0.0000E+00  0.0000E+00  0.0000E+00  0.0000E+00  0.0000E+00  0.0000E+00  0.0000E+00  0.0000E+00  0.0000E+00  0.0000E+00  0.0000E+00  0.0000E+00  0.0000E+00  0.0000E+00  0.0000E+00
     -9.819  0.0000E+00  0.0000E+00  0.0000E+00  0.0000E+00  0.0000E+00  0.0000E+00  0.0000E+00  0.0000E+00  0.0000E+00  0.0000E+00  0.0000E+00  0.0000E+00  0.0000E+00  0.0000E+00  0.0000E+00  0.0000E+00  0.0000E+00  0.0000E+00
     -9.640  0.0000E+00  0.0000E+00  0.0000E+00  0.0000E+00  0.0000E+00  0.0000E+00  0.0000E+00  0.0000E+00  0.0000E+00  0.0000E+00  0.0000E+00  0.0000E+00  0.0000E+00  0.0000E+00  0.0000E+00  0.0000E+00  0.0000E+00  0.0000E+00
     -9.461  0.0000E+00  0.0000E+00  0.0000E+00  0.0000E+00  0.0000E+00  0.0000E+00  0.0000E+00  0.0000E+00  0.0000E+00  0.0000E+00  0.0000E+00  0.0000E+00  0.0000E+00  0.0000E+00  0.0000E+00  0.0000E+00  0.0000E+00  0.0000E+00
     -9.282  0.0000E+00  0.0000E+00  0.0000E+00  0.0000E+00  0.0000E+00  0.0000E+00  0.0000E+00  0.0000E+00  0.0000E+00  0.0000E+00  0.0000E+00  0.0000E+00  0.0000E+00  0.0000E+00  0.0000E+00  0.0000E+00  0.0000E+00  0.0000E+00
     -9.103  0.0000E+00  0.0000E+00  0.0000E+00  0.0000E+00  0.0000E+00  0.0000E+00  0.0000E+00  0.0000E+00  0.0000E+00  0.0000E+00  0.0000E+00  0.0000E+00  0.0000E+00  0.0000E+00  0.0000E+00  0.0000E+00  0.0000E+00  0.0000E+00
     -8.924  0.0000E+00  0.0000E+00  0.0000E+00  0.0000E+00  0.0000E+00  0.0000E+00  0.0000E+00  0.0000E+00  0.0000E+00  0.0000E+00  0.0000E+00  0.0000E+00  0.0000E+00  0.0000E+00  0.0000E+00  0.0000E+00  0.0000E+00  0.0000E+00
     -8.745  0.0000E+00  0.0000E+00  0.0000E+00  0.0000E+00  0.0000E+00  0.0000E+00  0.0000E+00  0.0000E+00  0.0000E+00  0.0000E+00  0.0000E+00  0.0000E+00  0.0000E+00  0.0000E+00  0.0000E+00  0.0000E+00  0.0000E+00  0.0000E+00
     -8.566  0.0000E+00  0.0000E+00  0.0000E+00  0.0000E+00  0.0000E+00  0.0000E+00  0.0000E+00  0.0000E+00  0.0000E+00  0.0000E+00  0.0000E+00  0.0000E+00  0.0000E+00  0.0000E+00  0.0000E+00  0.0000E+00  0.0000E+00  0.0000E+00
     -8.387  0.0000E+00  0.0000E+00  0.0000E+00  0.0000E+00  0.0000E+00  0.0000E+00  0.0000E+00  0.0000E+00  0.0000E+00  0.0000E+00  0.0000E+00  0.0000E+00  0.0000E+00  0.0000E+00  0.0000E+00  0.0000E+00  0.0000E+00  0.0000E+00
     -8.207  0.0000E+00  0.0000E+00  0.0000E+00  0.0000E+00  0.0000E+00  0.0000E+00  0.0000E+00  0.0000E+00  0.0000E+00  0.0000E+00  0.0000E+00  0.0000E+00  0.0000E+00  0.0000E+00  0.0000E+00  0.0000E+00  0.0000E+00  0.0000E+00
     -8.028  0.0000E+00  0.0000E+00  0.0000E+00  0.0000E+00  0.0000E+00  0.0000E+00  0.0000E+00  0.0000E+00  0.0000E+00  0.0000E+00  0.0000E+00  0.0000E+00  0.0000E+00  0.0000E+00  0.0000E+00  0.0000E+00  0.0000E+00  0.0000E+00
     -7.849  0.0000E+00  0.0000E+00  0.0000E+00  0.0000E+00  0.0000E+00  0.0000E+00  0.0000E+00  0.0000E+00  0.0000E+00  0.0000E+00  0.0000E+00  0.0000E+00  0.0000E+00  0.0000E+00  0.0000E+00  0.0000E+00  0.0000E+00  0.0000E+00
     -7.670  0.0000E+00  0.0000E+00  0.0000E+00  0.0000E+00  0.0000E+00  0.0000E+00  0.0000E+00  0.0000E+00  0.0000E+00  0.0000E+00  0.0000E+00  0.0000E+00  0.0000E+00  0.0000E+00  0.0000E+00  0.0000E+00  0.0000E+00  0.0000E+00
     -7.491  0.0000E+00  0.0000E+00  0.0000E+00  0.0000E+00  0.0000E+00  0.0000E+00  0.0000E+00  0.0000E+00  0.0000E+00  0.0000E+00  0.0000E+00  0.0000E+00  0.0000E+00  0.0000E+00  0.0000E+00  0.0000E+00  0.0000E+00  0.0000E+00
     -7.312  0.0000E+00  0.0000E+00  0.0000E+00  0.0000E+00  0.0000E+00  0.0000E+00  0.0000E+00  0.0000E+00  0.0000E+00  0.0000E+00  0.0000E+00  0.0000E+00  0.0000E+00  0.0000E+00  0.0000E+00  0.0000E+00  0.0000E+00  0.0000E+00