   3   3   0   0
  0.2726559E+02  0.4872484E-09  0.4872484E-09  0.4872484E-09  0.5000000E-15
  1.000000000000000E-004
  CAR
 unknown system
     11.38454838    -37.84647842  301      8.60686152      1.00000000
    -37.846  0.0000E+00  0.0000E+00
    -37.682  0.0000E+00  0.0000E+00
    -37.518  0.0000E+00  0.0000E+00
    -37.354  0.0000E+00  0.0000E+00
    -37.190  0.0000E+00  0.0000E+00
    -37.026  0.0000E+00  0.0000E+00
    -36.862  0.0000E+00  0.0000E+00
    -36.698  0.0000E+00  0.0000E+00
    -36.534  0.0000E+00  0.0000E+00
    -36.370  0.0000E+00  0.0000E+00
    -36.205  0.0000E+00  0.0000E+00
    -36.041  0.0000E+00  0.0000E+00
    -35.877  0.0000E+00  0.0000E+00
    -35.713  0.0000E+00  0.0000E+00
    -35.549  0.1219E+02  0.2000E+01
    -35.385  0.0000E+00  0.2000E+01
    -35.221  0.0000E+00  0.2000E+01
    -35.057  0.0000E+00  0.2000E+01
    -34.893  0.0000E+00  0.2000E+01
    -34.729  0.0000E+00  0.2000E+01
    -34.564  0.0000E+00  0.2000E+01
    -34.400  0.0000E+00  0.2000E+01
    -34.236  0.0000E+00  0.2000E+01
    -34.072  0.0000E+00  0.2000E+01
    -33.908  0.0000E+00  0.2000E+01
    -33.744  0.0000E+00  0.2000E+01
    -33.580  0.0000E+00  0.2000E+01
    -33.416  0.0000E+00  0.2000E+01
    -33.252  0.0000E+00  0.2000E+01
    -33.087  0.0000E+00  0.2000E+01
    -32.923  0.0000E+00  0.2000E+01
    -32.759  0.0000E+00  0.2000E+01
    -32.595  0.0000E+00  0.2000E+01
    -32.431  0.0000E+00  0.2000E+01
    -32.267  0.0000E+00  0.2000E+01
    -32.103  0.0000E+00  0.2000E+01
    -31.939  0.0000E+00  0.2000E+01
    -31.775  0.0000E+00  0.2000E+01
    -31.611  0.0000E+00  0.2000E+01
    -31.446  0.0000E+00  0.2000E+01
    -31.282  0.0000E+00  0.2000E+01
    -31.118  0.0000E+00  0.2000E+01
    -30.954  0.0000E+00  0.2000E+01
    -30.790  0.0000E+00  0.2000E+01
    -30.626  0.0000E+00  0.2000E+01
    -30.462  0.0000E+00  0.2000E+01
    -30.298  0.0000E+00  0.2000E+01
    -30.134  0.0000E+00  0.2000E+01
    -29.970  0.0000E+00  0.2000E+01
    -29.805  0.0000E+00  0.2000E+01
    -29.641  0.0000E+00  0.2000E+01
    -29.477  0.0000E+00  0.2000E+01
    -29.313  0.0000E+00  0.2000E+01
    -29.149  0.0000E+00  0.2000E+01
    -28.985  0.0000E+00  0.2000E+01
    -28.821  0.0000E+00  0.2000E+01
    -28.657  0.0000E+00  0.2000E+01
    -28.493  0.0000E+00  0.2000E+01
    -28.328  0.0000E+00  0.2000E+01
    -28.164  0.0000E+00  0.2000E+01
    -28.000  0.0000E+00  0.2000E+01
    -27.836  0.0000E+00  0.2000E+01
    -27.672  0.0000E+00  0.2000E+01
    -27.508  0.0000E+00  0.2000E+01
    -27.344  0.0000E+00  0.2000E+01
    -27.180  0.0000E+00  0.2000E+01
    -27.016  0.0000E+00  0.2000E+01
    -26.852  0.0000E+00  0.2000E+01
    -26.687  0.0000E+00  0.2000E+01
    -26.523  0.0000E+00  0.2000E+01
    -26.359  0.0000E+00  0.2000E+01
    -26.195  0.0000E+00  0.2000E+01
    -26.031  0.0000E+00  0.2000E+01
    -25.867  0.0000E+00  0.2000E+01
    -25.703  0.0000E+00  0.2000E+01
    -25.539  0.0000E+00  0.2000E+01
    -25.375  0.0000E+00  0.2000E+01
    -25.211  0.0000E+00  0.2000E+01
    -25.046  0.0000E+00  0.2000E+01
    -24.882  0.0000E+00  0.2000E+01
    -24.718  0.0000E+00  0.2000E+01
    -24.554  0.0000E+00  0.2000E+01
    -24.390  0.0000E+00  0.2000E+01
    -24.226  0.0000E+00  0.2000E+01
    -24.062  0.0000E+00  0.2000E+01
    -23.898  0.0000E+00  0.2000E+01
    -23.734  0.0000E+00  0.2000E+01
    -23.569  0.0000E+00  0.2000E+01
    -23.405  0.0000E+00  0.2000E+01
    -23.241  0.0000E+00  0.2000E+01
    -23.077  0.0000E+00  0.2000E+01
    -22.913  0.0000E+00  0.2000E+01
    -22.749  0.0000E+00  0.2000E+01
    -22.585  0.0000E+00  0.2000E+01
    -22.421  0.0000E+00  0.2000E+01
    -22.257  0.0000E+00  0.2000E+01
    -22.093  0.0000E+00  0.2000E+01
    -21.928  0.0000E+00  0.2000E+01
    -21.764  0.0000E+00  0.2000E+01
    -21.600  0.0000E+00  0.2000E+01
    -21.436  0.0000E+00  0.2000E+01
    -21.272  0.0000E+00  0.2000E+01
    -21.108  0.0000E+00  0.2000E+01
    -20.944  0.0000E+00  0.2000E+01
    -20.780  0.0000E+00  0.2000E+01
    -20.616  0.0000E+00  0.2000E+01
    -20.452  0.0000E+00  0.2000E+01
    -20.287  0.0000E+00  0.2000E+01
    -20.123  0.0000E+00  0.2000E+01
    -19.959  0.0000E+00  0.2000E+01
    -19.795  0.0000E+00  0.2000E+01
    -19.631  0.0000E+00  0.2000E+01
    -19.467  0.0000E+00  0.2000E+01
    -19.303  0.0000E+00  0.2000E+01
    -19.139  0.0000E+00  0.2000E+01
    -18.975  0.0000E+00  0.2000E+01
    -18.810  0.0000E+00  0.2000E+01
    -18.646  0.0000E+00  0.2000E+01
    -18.482  0.0000E+00  0.2000E+01
    -18.318  0.0000E+00  0.2000E+01
    -18.154  0.0000E+00  0.2000E+01
    -17.990  0.0000E+00  0.2000E+01
    -17.826  0.0000E+00  0.2000E+01
    -17.662  0.0000E+00  0.2000E+01
    -17.498  0.0000E+00  0.2000E+01
    -17.334  0.0000E+00  0.2000E+01
    -17.169  0.0000E+00  0.2000E+01
    -17.005  0.0000E+00  0.2000E+01
    -16.841  0.0000E+00  0.2000E+01
    -16.677  0.0000E+00  0.2000E+01
    -16.513  0.0000E+00  0.2000E+01
    -16.349  0.0000E+00  0.2000E+01
    -16.185  0.0000E+00  0.2000E+01
    -16.021  0.0000E+00  0.2000E+01
    -15.857  0.0000E+00  0.2000E+01
    -15.693  0.0000E+00  0.2000E+01
    -15.528  0.0000E+00  0.2000E+01
    -15.364  0.0000E+00  0.2000E+01
    -15.200  0.0000E+00  0.2000E+01
    -15.036  0.0000E+00  0.2000E+01
    -14.872  0.0000E+00  0.2000E+01
    -14.708  0.0000E+00  0.2000E+01
    -14.544  0.0000E+00  0.2000E+01
    -14.380  0.0000E+00  0.2000E+01
    -14.216  0.0000E+00  0.2000E+01
    -14.051  0.3656E+02  0.1200E+02
    -13.887  0.0000E+00  0.1200E+02
    -13.723  0.0000E+00  0.1200E+02
    -13.559  0.0000E+00  0.1200E+02
    -13.395  0.0000E+00  0.1200E+02
    -13.231  0.0000E+00  0.1200E+02
    -13.067  0.0000E+00  0.1200E+02
    -12.903  0.0000E+00  0.1200E+02
    -12.739  0.0000E+00  0.1200E+02
    -12.575  0.0000E+00  0.1200E+02
    -12.410  0.0000E+00  0.1200E+02
    -12.246  0.0000E+00  0.1200E+02
    -12.082  0.0000E+00  0.1200E+02
    -11.918  0.0000E+00  0.1200E+02
    -11.754  0.0000E+00  0.1200E+02
    -11.590  0.0000E+00  0.1200E+02
    -11.426  0.0000E+00  0.1200E+02
    -11.262  0.0000E+00  0.1200E+02
    -11.098  0.0000E+00  0.1200E+02
    -10.934  0.9242E+00  0.1215E+02
    -10.769  0.2180E+02  0.1800E+02
    -10.605  0.0000E+00  0.1800E+02
    -10.441  0.0000E+00  0.1800E+02
    -10.277  0.0000E+00  0.1800E+02
    -10.113  0.0000E+00  0.1800E+02
     -9.949  0.0000E+00  0.1800E+02
     -9.785  0.0000E+00  0.1800E+02
     -9.621  0.0000E+00  0.1800E+02
     -9.457  0.0000E+00  0.1800E+02
     -9.292  0.0000E+00  0.1800E+02
     -9.128  0.0000E+00  0.1800E+02
     -8.964  0.0000E+00  0.1800E+02
     -8.800  0.0000E+00  0.1800E+02
     -8.636  0.0000E+00  0.1800E+02
     -8.472  0.0000E+00  0.1800E+02
     -8.308  0.0000E+00  0.1800E+02
     -8.144  0.0000E+00  0.1800E+02
     -7.980  0.0000E+00  0.1800E+02
     -7.816  0.0000E+00  0.1800E+02
     -7.651  0.0000E+00  0.1800E+02
     -7.487  0.0000E+00  0.1800E+02
     -7.323  0.0000E+00  0.1800E+02
     -7.159  0.0000E+00  0.1800E+02
     -6.995  0.0000E+00  0.1800E+02
     -6.831  0.0000E+00  0.1800E+02
     -6.667  0.0000E+00  0.1800E+02
     -6.503  0.0000E+00  0.1800E+02
     -6.339  0.0000E+00  0.1800E+02
     -6.175  0.0000E+00  0.1800E+02
     -6.010  0.0000E+00  0.1800E+02
     -5.846  0.0000E+00  0.1800E+02
     -5.682  0.0000E+00  0.1800E+02
     -5.518  0.0000E+00  0.1800E+02
     -5.354  0.0000E+00  0.1800E+02
     -5.190  0.0000E+00  0.1800E+02
     -5.026  0.0000E+00  0.1800E+02
     -4.862  0.0000E+00  0.1800E+02
     -4.698  0.0000E+00  0.1800E+02
     -4.533  0.0000E+00  0.1800E+02
     -4.369  0.0000E+00  0.1800E+02
     -4.205  0.0000E+00  0.1800E+02
     -4.041  0.0000E+00  0.1800E+02
     -3.877  0.0000E+00  0.1800E+02
     -3.713  0.0000E+00  0.1800E+02
     -3.549  0.0000E+00  0.1800E+02
     -3.385  0.0000E+00  0.1800E+02
     -3.221  0.7763E-01  0.1801E+02
     -3.057  0.2103E+00  0.1806E+02
     -2.892  0.3107E+00  0.1815E+02
     -2.728  0.4046E+00  0.1832E+02
     -2.564  0.2621E+01  0.1897E+02
     -2.400  0.1272E+01  0.1998E+02
     -2.236  0.0000E+00  0.2000E+02
     -2.072  0.0000E+00  0.2000E+02
     -1.908  0.0000E+00  0.2000E+02
     -1.744  0.0000E+00  0.2000E+02
     -1.580  0.0000E+00  0.2000E+02
     -1.416  0.0000E+00  0.2000E+02
     -1.251  0.0000E+00  0.2000E+02
     -1.087  0.0000E+00  0.2000E+02
     -0.923  0.0000E+00  0.2000E+02
     -0.759  0.0000E+00  0.2000E+02
     -0.595  0.0000E+00  0.2000E+02
     -0.431  0.0000E+00  0.2000E+02
     -0.267  0.0000E+00  0.2000E+02
     -0.103  0.0000E+00  0.2000E+02
      0.061  0.0000E+00  0.2000E+02
      0.226  0.0000E+00  0.2000E+02
      0.390  0.0000E+00  0.2000E+02
      0.554  0.0000E+00  0.2000E+02
      0.718  0.0000E+00  0.2000E+02
      0.882  0.0000E+00  0.2000E+02
      1.046  0.0000E+00  0.2000E+02
      1.210  0.0000E+00  0.2000E+02
      1.374  0.0000E+00  0.2000E+02
      1.538  0.0000E+00  0.2000E+02
      1.702  0.0000E+00  0.2000E+02
      1.867  0.0000E+00  0.2000E+02
      2.031  0.0000E+00  0.2000E+02
      2.195  0.0000E+00  0.2000E+02
      2.359  0.0000E+00  0.2000E+02
      2.523  0.0000E+00  0.2000E+02
      2.687  0.0000E+00  0.2000E+02
      2.851  0.5781E-04  0.2000E+02
      3.015  0.3680E+00  0.2009E+02
      3.179  0.1854E+01  0.2056E+02
      3.343  0.7101E+00  0.2107E+02
      3.508  0.6027E+00  0.2143E+02
      3.672  0.1147E+01  0.2168E+02
      3.836  0.7592E+00  0.2189E+02
      4.000  0.2610E+01  0.2240E+02
      4.164  0.2852E+01  0.2366E+02
      4.328  0.2867E+01  0.2462E+02
      4.492  0.3724E+01  0.2581E+02
      4.656  0.5026E-01  0.2601E+02
      4.820  0.6420E+00  0.2618E+02
      4.985  0.5340E+01  0.2846E+02
      5.149  0.4097E+01  0.3022E+02
      5.313  0.1758E+01  0.3090E+02
      5.477  0.1064E+01  0.3141E+02
      5.641  0.4687E+00  0.3166E+02
      5.805  0.4238E+00  0.3191E+02
      5.969  0.5899E-01  0.3205E+02
      6.133  0.9895E+00  0.3244E+02
      6.297  0.6294E+00  0.3262E+02
      6.461  0.1068E+01  0.3298E+02
      6.626  0.4238E+00  0.3317E+02
      6.790  0.1227E+01  0.3351E+02
      6.954  0.3328E+00  0.3365E+02
      7.118  0.6327E+01  0.3512E+02
      7.282  0.1389E+01  0.3580E+02
      7.446  0.1356E+00  0.3594E+02
      7.610  0.1586E+00  0.3600E+02
      7.774  0.4438E-01  0.3601E+02
      7.938  0.1655E+00  0.3605E+02
      8.102  0.5519E+00  0.3630E+02
      8.267  0.2324E+01  0.3706E+02
      8.431  0.2328E+01  0.3787E+02
      8.595  0.3261E+01  0.3852E+02
      8.759  0.6649E+01  0.4222E+02
      8.923  0.1219E+02  0.4625E+02
      9.087  0.1103E+01  0.4799E+02
      9.251  0.0000E+00  0.4800E+02
      9.415  0.0000E+00  0.4800E+02
      9.579  0.0000E+00  0.4800E+02
      9.744  0.0000E+00  0.4800E+02
      9.908  0.0000E+00  0.4800E+02
     10.072  0.0000E+00  0.4800E+02
     10.236  0.0000E+00  0.4800E+02
     10.400  0.0000E+00  0.4800E+02
     10.564  0.0000E+00  0.4800E+02
     10.728  0.0000E+00  0.4800E+02
     10.892  0.0000E+00  0.4800E+02
     11.056  0.0000E+00  0.4800E+02
     11.220  0.0000E+00  0.4800E+02
     11.385  0.0000E+00  0.4800E+02
