    3    3    1    1
  0.2726559E+02  0.4872484E-09  0.4872484E-09  0.4872484E-09  0.5000000E-15
  1.000000000000000E-004
  CAR
 unknown system
     39     84     24

  0.0000000E+00  0.0000000E+00  0.0000000E+00  0.4551661E-03
    1      -35.608704   1.000000
    2      -14.139125   1.000000
    3      -14.139125   1.000000
    4      -14.116541   1.000000
    5      -14.116541   1.000000
    6      -14.116541   1.000000
    7      -10.815837   1.000000
    8      -10.815837   1.000000
    9      -10.815837   1.000000
   10       -3.308603   1.000000
   11        4.469194   1.000000
   12        4.469194   1.000000
   13        4.469194   1.000000
   14        4.799320   1.000000
   15        4.799320   1.000000
   16        6.661211   1.000000
   17        7.616265   1.000000
   18        7.616265   1.000000
   19        7.616265   1.000000
   20        8.606313   0.530926
   21        8.670055   0.000000
   22        8.670099   0.000000
   23        8.670784   0.000000
   24        8.786620   0.000000

  0.7692308E-01 -0.1801859E-18 -0.6217027E-18  0.3641329E-02
    1      -35.608573   1.000000
    2      -14.139992   1.000000
    3      -14.139992   1.000000
    4      -14.116677   1.000000
    5      -14.116404   1.000000
    6      -14.116404   1.000000
    7      -10.824338   1.000000
    8      -10.814080   1.000000
    9      -10.814080   1.000000
   10       -3.258414   1.000000
   11        4.338166   1.000000
   12        4.395401   1.000000
   13        4.395401   1.000000
   14        4.868686   1.000000
   15        4.868686   1.000000
   16        6.485796   1.000000
   17        7.564880   1.000000
   18        7.564880   1.000000
   19        7.728564   1.000000
   20        8.533972   1.000000
   21        8.624696   0.005831
   22        8.624696   0.005831
   23        8.768644   0.000000
   24        8.791451   0.000000

  0.1538462E+00  0.2159208E-17 -0.3762985E-17  0.3641329E-02
    1      -35.608216   1.000000
    2      -14.142445   1.000000
    3      -14.142445   1.000000
    4      -14.117108   1.000000
    5      -14.116032   1.000000
    6      -14.116032   1.000000
    7      -10.847376   1.000000
    8      -10.809236   1.000000
    9      -10.809236   1.000000
   10       -3.117877   1.000000
   11        4.016770   1.000000
   12        4.273076   1.000000
   13        4.273076   1.000000
   14        4.970321   1.000000
   15        4.970321   1.000000
   16        6.108292   1.000000
   17        7.448002   1.000000
   18        7.448002   1.000000
   19        7.815786   1.000000
   20        8.590053   0.991274
   21        8.590053   0.991274
   22        8.687521   0.000000
   23        8.789735   0.000000
   24        8.865378   0.000000

  0.2307692E+00  0.1979022E-17 -0.4384687E-17  0.3641329E-02
    1      -35.607711   1.000000
    2      -14.145923   1.000000
    3      -14.145923   1.000000
    4      -14.117801   1.000000
    5      -14.115476   1.000000
    6      -14.115476   1.000000
    7      -10.878584   1.000000
    8      -10.802428   1.000000
    9      -10.802428   1.000000
   10       -2.915743   1.000000
   11        3.632146   1.000000
   12        4.175230   1.000000
   13        4.175230   1.000000
   14        5.016982   1.000000
   15        5.016982   1.000000
   16        5.694324   1.000000
   17        7.334222   1.000000
   18        7.334222   1.000000
   19        7.831760   1.000000
   20        8.584083   0.999362
   21        8.584083   0.999362
   22        8.792873   0.000000
   23        8.829748   0.000000
   24        9.036322   0.000000

  0.3076923E+00  0.4318415E-17 -0.7525969E-17  0.3641329E-02
    1      -35.607175   1.000000
    2      -14.149625   1.000000
    3      -14.149625   1.000000
    4      -14.118641   1.000000
    5      -14.114848   1.000000
    6      -14.114847   1.000000
    7      -10.910162   1.000000
    8      -10.795237   1.000000
    9      -10.795237   1.000000
   10       -2.695404   1.000000
   11        3.278331   1.000000
   12        4.119990   1.000000
   13        4.119990   1.000000
   14        4.989957   1.000000
   15        4.989957   1.000000
   16        5.341246   1.000000
   17        7.265210   1.000000
   18        7.265210   1.000000
   19        7.872733   1.000000
   20        8.598176   0.890336
   21        8.598176   0.890335
   22        8.879995   0.000000
   23        8.994132   0.000000
   24        8.994430   0.000000

  0.3846154E+00 -0.1166383E-16  0.7654388E-17  0.3641329E-02
    1      -35.606731   1.000000
    2      -14.152699   1.000000
    3      -14.152699   1.000000
    4      -14.119425   1.000000
    5      -14.114315   1.000000
    6      -14.114315   1.000000
    7      -10.935178   1.000000
    8      -10.789306   1.000000
    9      -10.789306   1.000000
   10       -2.507681   1.000000
   11        3.013441   1.000000
   12        4.104111   1.000000
   13        4.104111   1.000000
   14        4.918188   1.000000
   15        4.918188   1.000000
   16        5.095817   1.000000
   17        7.240120   1.000000
   18        7.240120   1.000000
   19        7.938718   1.000000
   20        8.625671   0.003907
   21        8.625671   0.003907
   22        8.921714   0.000000
   23        8.922651   0.000000
   24        8.922702   0.000000

  0.4615385E+00 -0.9324437E-17  0.4513106E-17  0.3641329E-02
    1      -35.606480   1.000000
    2      -14.154431   1.000000
    3      -14.154431   1.000000
    4      -14.119903   1.000000
    5      -14.114008   1.000000
    6      -14.114008   1.000000
    7      -10.948856   1.000000
    8      -10.785966   1.000000
    9      -10.785966   1.000000
   10       -2.399436   1.000000
   11        2.872460   1.000000
   12        4.108054   1.000000
   13        4.108054   1.000000
   14        4.858248   1.000000
   15        4.858248   1.000000
   16        4.972407   1.000000
   17        7.236298   1.000000
   18        7.236298   1.000000
   19        7.991766   1.000000
   20        8.653417   0.000000
   21        8.653417   0.000000
   22        8.805441   0.000000
   23        8.867160   0.000000
   24        8.867609   0.000000

  0.7692308E-01  0.7692308E-01 -0.1326543E-17  0.2730997E-02
    1      -35.608531   1.000000
    2      -14.141530   1.000000
    3      -14.138888   1.000000
    4      -14.116816   1.000000
    5      -14.116315   1.000000
    6      -14.116315   1.000000
    7      -10.820369   1.000000
    8      -10.816994   1.000000
    9      -10.816994   1.000000
   10       -3.242804   1.000000
   11        4.148851   1.000000
   12        4.483521   1.000000
   13        4.483521   1.000000
   14        4.812693   1.000000
   15        4.897530   1.000000
   16        6.473183   1.000000
   17        7.483260   1.000000
   18        7.483260   1.000000
   19        7.881098   1.000000
   20        8.478825   1.000000
   21        8.625099   0.004952
   22        8.625099   0.004952
   23        8.785987   0.000000
   24        8.795458   0.000000

  0.1538462E+00  0.7692308E-01 -0.4745059E-17  0.1092399E-01
    1      -35.608250   1.000000
    2      -14.144250   1.000000
    3      -14.139588   1.000000
    4      -14.117171   1.000000
    5      -14.116049   1.000000
    6      -14.115977   1.000000
    7      -10.837948   1.000000
    8      -10.816284   1.000000
    9      -10.811187   1.000000
   10       -3.135814   1.000000
   11        3.882836   1.000000
   12        4.393114   1.000000
   13        4.433424   1.000000
   14        4.876607   1.000000
   15        4.971827   1.000000
   16        6.230629   1.000000
   17        7.344838   1.000000
   18        7.356203   1.000000
   19        8.008964   1.000000
   20        8.542805   1.000000
   21        8.602671   0.723292
   22        8.631079   0.000308
   23        8.800149   0.000000
   24        8.851422   0.000000

  0.2307692E+00  0.7692308E-01 -0.7291034E-17  0.1092399E-01
    1      -35.607796   1.000000
    2      -14.147550   1.000000
    3      -14.141958   1.000000
    4      -14.117698   1.000000
    5      -14.115662   1.000000
    6      -14.115425   1.000000
    7      -10.866630   1.000000
    8      -10.812138   1.000000
    9      -10.803496   1.000000
   10       -2.959893   1.000000
   11        3.595338   1.000000
   12        4.222648   1.000000
   13        4.344374   1.000000
   14        4.938721   1.000000
   15        5.046340   1.000000
   16        5.861785   1.000000
   17        7.197776   1.000000
   18        7.249101   1.000000
   19        8.006408   1.000000
   20        8.576272   0.999992
   21        8.591338   0.985930
   22        8.798553   0.000000
   23        8.802235   0.000000
   24        8.973768   0.000000

  0.3076923E+00  0.7692308E-01 -0.1043232E-16  0.1092399E-01
    1      -35.607273   1.000000
    2      -14.150683   1.000000
    3      -14.145447   1.000000
    4      -14.118374   1.000000
    5      -14.115177   1.000000
    6      -14.114778   1.000000
    7      -10.898041   1.000000
    8      -10.805526   1.000000
    9      -10.796661   1.000000
   10       -2.753198   1.000000
   11        3.315541   1.000000
   12        4.098111   1.000000
   13        4.272339   1.000000
   14        4.934969   1.000000
   15        5.059411   1.000000
   16        5.489743   1.000000
   17        7.106521   1.000000
   18        7.195601   1.000000
   19        7.997190   1.000000
   20        8.595908   0.939324
   21        8.596055   0.936777
   22        8.803863   0.000000
   23        8.853672   0.000000
   24        8.983445   0.000000

  0.3846154E+00  0.7692308E-01 -0.9129747E-17  0.1092399E-01
    1      -35.606799   1.000000
    2      -14.152947   1.000000
    3      -14.149223   1.000000
    4      -14.119071   1.000000
    5      -14.114687   1.000000
    6      -14.114218   1.000000
    7      -10.925021   1.000000
    8      -10.797969   1.000000
    9      -10.792183   1.000000
   10       -2.562698   1.000000
   11        3.087638   1.000000
   12        4.048269   1.000000
   13        4.218703   1.000000
   14        4.887955   1.000000
   15        5.008038   1.000000
   16        5.198174   1.000000
   17        7.070492   1.000000
   18        7.186866   1.000000
   19        8.020662   1.000000
   20        8.616394   0.088821
   21        8.625698   0.003862
   22        8.804083   0.000000
   23        8.877507   0.000000
   24        8.944067   0.000000

  0.4615385E+00  0.7692308E-01 -0.1227103E-16  0.1092399E-01
    1      -35.606485   1.000000
    2      -14.153830   1.000000
    3      -14.152405   1.000000
    4      -14.119581   1.000000
    5      -14.114314   1.000000
    6      -14.113893   1.000000
    7      -10.942211   1.000000
    8      -10.791187   1.000000
    9      -10.791022   1.000000
   10       -2.433802   1.000000
   11        2.946304   1.000000
   12        4.063522   1.000000
   13        4.163816   1.000000
   14        4.858776   1.000000
   15        4.928775   1.000000
   16        5.022564   1.000000
   17        7.062587   1.000000
   18        7.195225   1.000000
   19        8.060016   1.000000
   20        8.647859   0.000000
   21        8.653268   0.000000
   22        8.800646   0.000000
   23        8.859690   0.000000
   24        8.932246   0.000000

 -0.4615385E+00  0.7692308E-01  0.1030688E-16  0.1092399E-01
    1      -35.606401   1.000000
    2      -14.154266   1.000000
    3      -14.153122   1.000000
    4      -14.119707   1.000000
    5      -14.114152   1.000000
    6      -14.113879   1.000000
    7      -10.946607   1.000000
    8      -10.793378   1.000000
    9      -10.786709   1.000000
   10       -2.398421   1.000000
   11        2.909341   1.000000
   12        4.096181   1.000000
   13        4.119776   1.000000
   14        4.866166   1.000000
   15        4.890184   1.000000
   16        4.978147   1.000000
   17        7.053126   1.000000
   18        7.204016   1.000000
   19        8.076168   1.000000
   20        8.653539   0.000000
   21        8.671425   0.000000
   22        8.798480   0.000000
   23        8.864517   0.000000
   24        8.894504   0.000000

 -0.3846154E+00  0.7692308E-01  0.7165598E-17  0.1092399E-01
    1      -35.606568   1.000000
    2      -14.154406   1.000000
    3      -14.150976   1.000000
    4      -14.119398   1.000000
    5      -14.114267   1.000000
    6      -14.114178   1.000000
    7      -10.937526   1.000000
    8      -10.798655   1.000000
    9      -10.785547   1.000000
   10       -2.465587   1.000000
   11        2.982825   1.000000
   12        4.034511   1.000000
   13        4.189492   1.000000
   14        4.853176   1.000000
   15        4.970984   1.000000
   16        5.067936   1.000000
   17        7.025942   1.000000
   18        7.217486   1.000000
   19        8.052169   1.000000
   20        8.627475   0.001778
   21        8.656784   0.000000
   22        8.798773   0.000000
   23        8.889330   0.000000
   24        8.901169   0.000000

 -0.3076923E+00  0.7692308E-01 -0.5409621E-17  0.1092399E-01
    1      -35.606946   1.000000
    2      -14.152804   1.000000
    3      -14.147860   1.000000
    4      -14.118765   1.000000
    5      -14.114696   1.000000
    6      -14.114624   1.000000
    7      -10.916576   1.000000
    8      -10.805602   1.000000
    9      -10.787978   1.000000
   10       -2.618587   1.000000
   11        3.163629   1.000000
   12        4.007392   1.000000
   13        4.261277   1.000000
   14        4.887763   1.000000
   15        5.056152   1.000000
   16        5.282861   1.000000
   17        6.989643   1.000000
   18        7.255211   1.000000
   19        8.013791   1.000000
   20        8.601664   0.768856
   21        8.622942   0.011478
   22        8.801584   0.000000
   23        8.884305   0.000000
   24        8.943548   0.000000

 -0.2307692E+00  0.7692308E-01  0.1535613E-16  0.1092399E-01
    1      -35.607450   1.000000
    2      -14.149832   1.000000
    3      -14.144485   1.000000
    4      -14.118032   1.000000
    5      -14.115309   1.000000
    6      -14.115142   1.000000
    7      -10.887725   1.000000
    8      -10.812533   1.000000
    9      -10.793465   1.000000
   10       -2.819854   1.000000
   11        3.435522   1.000000
   12        4.032826   1.000000
   13        4.345354   1.000000
   14        4.917718   1.000000
   15        5.098184   1.000000
   16        5.605247   1.000000
   17        6.984048   1.000000
   18        7.335812   1.000000
   19        7.993915   1.000000
   20        8.587705   0.996628
   21        8.594756   0.956545
   22        8.800386   0.000000
   23        8.845586   0.000000
   24        9.015555   0.000000

 -0.1538462E+00  0.7692308E-01  0.2780910E-17  0.1092399E-01
    1      -35.607963   1.000000
    2      -14.146158   1.000000
    3      -14.141644   1.000000
    4      -14.117389   1.000000
    5      -14.115863   1.000000
    6      -14.115686   1.000000
    7      -10.857325   1.000000
    8      -10.817577   1.000000
    9      -10.800772   1.000000
   10       -3.021846   1.000000
   11        3.763035   1.000000
   12        4.115292   1.000000
   13        4.444203   1.000000
   14        4.893822   1.000000
   15        5.070941   1.000000
   16        5.979014   1.000000
   17        7.074269   1.000000
   18        7.450684   1.000000
   19        7.992333   1.000000
   20        8.582074   0.999772
   21        8.586022   0.998396
   22        8.771607   0.000000
   23        8.797125   0.000000
   24        8.933838   0.000000

 -0.7692308E-01  0.7692308E-01 -0.3603718E-18  0.5461994E-02
    1      -35.608368   1.000000
    2      -14.142616   1.000000
    3      -14.140023   1.000000
    4      -14.116928   1.000000
    5      -14.116250   1.000000
    6      -14.116132   1.000000
    7      -10.833910   1.000000
    8      -10.818329   1.000000
    9      -10.808220   1.000000
   10       -3.179287   1.000000
   11        4.090031   1.000000
   12        4.245772   1.000000
   13        4.495818   1.000000
   14        4.848054   1.000000
   15        4.982009   1.000000
   16        6.298418   1.000000
   17        7.307717   1.000000
   18        7.548909   1.000000
   19        7.917390   1.000000
   20        8.555712   1.000000
   21        8.593570   0.969924
   22        8.624883   0.005407
   23        8.792459   0.000000
   24        8.825361   0.000000

  0.1538462E+00  0.1538462E+00 -0.2653087E-17  0.2730997E-02
    1      -35.608059   1.000000
    2      -14.146598   1.000000
    3      -14.138266   1.000000
    4      -14.117621   1.000000
    5      -14.115684   1.000000
    6      -14.115684   1.000000
    7      -10.834019   1.000000
    8      -10.820291   1.000000
    9      -10.820291   1.000000
   10       -3.072145   1.000000
   11        3.621692   1.000000
   12        4.515768   1.000000
   13        4.515768   1.000000
   14        4.850225   1.000000
   15        4.920278   1.000000
   16        6.212409   1.000000
   17        7.230182   1.000000
   18        7.230182   1.000000
   19        8.106393   1.000000
   20        8.550121   1.000000
   21        8.603164   0.699487
   22        8.603164   0.699486
   23        8.821752   0.000000
   24        8.883553   0.000000

  0.2307692E+00  0.1538462E+00 -0.5753529E-17  0.1092399E-01
    1      -35.607686   1.000000
    2      -14.148942   1.000000
    3      -14.138850   1.000000
    4      -14.118126   1.000000
    5      -14.115283   1.000000
    6      -14.115159   1.000000
    7      -10.855430   1.000000
    8      -10.820347   1.000000
    9      -10.814895   1.000000
   10       -2.942212   1.000000
   11        3.393044   1.000000
   12        4.421392   1.000000
   13        4.486608   1.000000
   14        4.893277   1.000000
   15        4.960420   1.000000
   16        6.010824   1.000000
   17        7.054866   1.000000
   18        7.131620   1.000000
   19        8.126202   1.000000
   20        8.575648   0.999995
   21        8.600228   0.825903
   22        8.740138   0.000000
   23        8.832227   0.000000
   24        8.968194   0.000000

  0.3076923E+00  0.1538462E+00 -0.8894811E-17  0.1092399E-01
    1      -35.607215   1.000000
    2      -14.150757   1.000000
    3      -14.141220   1.000000
    4      -14.118583   1.000000
    5      -14.114975   1.000000
    6      -14.114508   1.000000
    7      -10.884338   1.000000
    8      -10.816456   1.000000
    9      -10.808380   1.000000
   10       -2.776517   1.000000
   11        3.225925   1.000000
   12        4.244661   1.000000
   13        4.422234   1.000000
   14        4.909942   1.000000
   15        5.023494   1.000000
   16        5.702165   1.000000
   17        6.870777   1.000000
   18        7.090930   1.000000
   19        8.141827   1.000000
   20        8.589525   0.992891
   21        8.604107   0.651559
   22        8.806049   0.000000
   23        8.833370   0.000000
   24        8.989989   0.000000

  0.3846154E+00  0.1538462E+00 -0.7592242E-17  0.1092399E-01
    1      -35.606758   1.000000
    2      -14.151645   1.000000
    3      -14.144772   1.000000
    4      -14.118948   1.000000
    5      -14.114773   1.000000
    6      -14.113922   1.000000
    7      -10.910762   1.000000
    8      -10.809536   1.000000
    9      -10.805345   1.000000
   10       -2.613526   1.000000
   11        3.127165   1.000000
   12        4.110072   1.000000
   13        4.346724   1.000000
   14        4.892250   1.000000
   15        5.032408   1.000000
   16        5.388371   1.000000
   17        6.765340   1.000000
   18        7.094521   1.000000
   19        8.150862   1.000000
   20        8.620214   0.029490
   21        8.620699   0.025178
   22        8.825385   0.000000
   23        8.829201   0.000000
   24        8.967199   0.000000

  0.4615385E+00  0.1538462E+00 -0.1073352E-16  0.1092399E-01
    1      -35.606415   1.000000
    2      -14.151430   1.000000
    3      -14.148647   1.000000
    4      -14.119159   1.000000
    5      -14.114668   1.000000
    6      -14.113571   1.000000
    7      -10.929084   1.000000
    8      -10.806497   1.000000
    9      -10.801166   1.000000
   10       -2.489822   1.000000
   11        3.082360   1.000000
   12        4.057418   1.000000
   13        4.247994   1.000000
   14        4.893469   1.000000
   15        4.981168   1.000000
   16        5.162444   1.000000
   17        6.718607   1.000000
   18        7.109559   1.000000
   19        8.172241   1.000000
   20        8.647801   0.000000
   21        8.650137   0.000000
   22        8.817962   0.000000
   23        8.835933   0.000000
   24        8.950594   0.000000

 -0.4615385E+00  0.1538462E+00  0.1184438E-16  0.1092399E-01
    1      -35.606267   1.000000
    2      -14.151968   1.000000
    3      -14.150175   1.000000
    4      -14.119134   1.000000
    5      -14.114649   1.000000
    6      -14.113541   1.000000
    7      -10.936117   1.000000
    8      -10.811339   1.000000
    9      -10.793244   1.000000
   10       -2.431706   1.000000
   11        3.065733   1.000000
   12        4.090638   1.000000
   13        4.130278   1.000000
   14        4.905449   1.000000
   15        4.945169   1.000000
   16        5.073046   1.000000
   17        6.687056   1.000000
   18        7.119206   1.000000
   19        8.193347   1.000000
   20        8.648058   0.000000
   21        8.688141   0.000000
   22        8.794368   0.000000
   23        8.857828   0.000000
   24        8.937936   0.000000

 -0.3846154E+00  0.1538462E+00  0.8703103E-17  0.1092399E-01
    1      -35.606347   1.000000
    2      -14.153992   1.000000
    3      -14.148151   1.000000
    4      -14.118859   1.000000
    5      -14.114715   1.000000
    6      -14.113827   1.000000
    7      -10.931051   1.000000
    8      -10.818383   1.000000
    9      -10.787560   1.000000
   10       -2.451559   1.000000
   11        3.069975   1.000000
   12        4.022915   1.000000
   13        4.189209   1.000000
   14        4.856843   1.000000
   15        5.031966   1.000000
   16        5.124197   1.000000
   17        6.636544   1.000000
   18        7.132277   1.000000
   19        8.192235   1.000000
   20        8.624943   0.005277
   21        8.702399   0.000000
   22        8.781113   0.000000
   23        8.883967   0.000000
   24        8.896546   0.000000

 -0.3076923E+00  0.1538462E+00 -0.7720660E-17  0.1092399E-01
    1      -35.606637   1.000000
    2      -14.154288   1.000000
    3      -14.145776   1.000000
    4      -14.118440   1.000000
    5      -14.114859   1.000000
    6      -14.114334   1.000000
    7      -10.915417   1.000000
    8      -10.825410   1.000000
    9      -10.785416   1.000000
   10       -2.546686   1.000000
   11        3.121320   1.000000
   12        3.955213   1.000000
   13        4.319706   1.000000
   14        4.841325   1.000000
   15        5.116022   1.000000
   16        5.311619   1.000000
   17        6.565383   1.000000
   18        7.172124   1.000000
   19        8.170991   1.000000
   20        8.602169   0.746515
   21        8.667762   0.000000
   22        8.802702   0.000000
   23        8.876682   0.000000
   24        8.906472   0.000000

 -0.2307692E+00  0.1538462E+00 -0.1086194E-16  0.1092399E-01
    1      -35.607072   1.000000
    2      -14.152810   1.000000
    3      -14.143572   1.000000
    4      -14.118034   1.000000
    5      -14.115067   1.000000
    6      -14.114932   1.000000
    7      -10.893302   1.000000
    8      -10.829572   1.000000
    9      -10.787321   1.000000
   10       -2.697637   1.000000
   11        3.253872   1.000000
   12        3.945348   1.000000
   13        4.446915   1.000000
   14        4.841631   1.000000
   15        5.159233   1.000000
   16        5.587499   1.000000
   17        6.531535   1.000000
   18        7.255518   1.000000
   19        8.145161   1.000000
   20        8.589910   0.991741
   21        8.627462   0.001788
   22        8.811059   0.000000
   23        8.853596   0.000000
   24        8.959017   0.000000

 -0.1538462E+00  0.1538462E+00  0.4318415E-17  0.5461994E-02
    1      -35.607549   1.000000
    2      -14.149885   1.000000
    3      -14.142060   1.000000
    4      -14.117698   1.000000
    5      -14.115478   1.000000
    6      -14.115339   1.000000
    7      -10.871775   1.000000
    8      -10.827289   1.000000
    9      -10.792858   1.000000
   10       -2.869754   1.000000
   11        3.477031   1.000000
   12        4.000134   1.000000
   13        4.521325   1.000000
   14        4.840974   1.000000
   15        5.141998   1.000000
   16        5.834649   1.000000
   17        6.679856   1.000000
   18        7.366899   1.000000
   19        8.107757   1.000000
   20        8.585966   0.998437
   21        8.596033   0.937156
   22        8.806866   0.000000
   23        8.824306   0.000000
   24        8.990266   0.000000

  0.2307692E+00  0.2307692E+00 -0.3979630E-17  0.2730997E-02
    1      -35.607406   1.000000
    2      -14.149749   1.000000
    3      -14.137388   1.000000
    4      -14.118775   1.000000
    5      -14.114683   1.000000
    6      -14.114683   1.000000
    7      -10.856069   1.000000
    8      -10.825167   1.000000
    9      -10.825167   1.000000
   10       -2.869697   1.000000
   11        3.223235   1.000000
   12        4.539577   1.000000
   13        4.539577   1.000000
   14        4.837254   1.000000
   15        4.904405   1.000000
   16        5.982231   1.000000
   17        7.041507   1.000000
   18        7.041507   1.000000
   19        8.103167   1.000000
   20        8.605571   0.572435
   21        8.605571   0.572434
   22        8.707240   0.000000
   23        8.864216   0.000000
   24        9.080671   0.000000

  0.3076923E+00  0.2307692E+00 -0.8914750E-17  0.1092399E-01
    1      -35.607019   1.000000
    2      -14.149788   1.000000
    3      -14.137948   1.000000
    4      -14.119301   1.000000
    5      -14.114231   1.000000
    6      -14.114067   1.000000
    7      -10.876358   1.000000
    8      -10.825516   1.000000
    9      -10.823413   1.000000
   10       -2.762980   1.000000
   11        3.140622   1.000000
   12        4.422588   1.000000
   13        4.514713   1.000000
   14        4.873612   1.000000
   15        4.928306   1.000000
   16        5.809061   1.000000
   17        6.874794   1.000000
   18        7.009630   1.000000
   19        8.170533   1.000000
   20        8.595274   0.949371
   21        8.612565   0.209931
   22        8.745821   0.000000
   23        8.879130   0.000000
   24        9.036323   0.000000

  0.3846154E+00  0.2307692E+00 -0.4725771E-17  0.1092399E-01
    1      -35.606614   1.000000
    2      -14.149043   1.000000
    3      -14.140370   1.000000
    4      -14.119547   1.000000
    5      -14.114094   1.000000
    6      -14.113468   1.000000
    7      -10.899109   1.000000
    8      -10.822247   1.000000
    9      -10.821331   1.000000
   10       -2.648845   1.000000
   11        3.154242   1.000000
   12        4.243782   1.000000
   13        4.446673   1.000000
   14        4.933023   1.000000
   15        4.950392   1.000000
   16        5.566160   1.000000
   17        6.633746   1.000000
   18        7.020257   1.000000
   19        8.239593   1.000000
   20        8.607572   0.459981
   21        8.627219   0.001995
   22        8.770774   0.000000
   23        8.877481   0.000000
   24        9.002064   0.000000

  0.4615385E+00  0.2307692E+00 -0.5942781E-17  0.1092399E-01
    1      -35.606286   1.000000
    2      -14.147733   1.000000
    3      -14.144031   1.000000
    4      -14.119428   1.000000
    5      -14.114304   1.000000
    6      -14.113096   1.000000
    7      -10.915282   1.000000
    8      -10.825965   1.000000
    9      -10.813586   1.000000
   10       -2.551717   1.000000
   11        3.234344   1.000000
   12        4.117804   1.000000
   13        4.337573   1.000000
   14        4.951219   1.000000
   15        4.969252   1.000000
   16        5.335880   1.000000
   17        6.450454   1.000000
   18        7.034943   1.000000
   19        8.269375   1.000000
   20        8.632391   0.000153
   21        8.653155   0.000000
   22        8.799829   0.000000
   23        8.862444   0.000000
   24        8.968079   0.000000

 -0.4615385E+00  0.2307692E+00 -0.1648538E-16  0.1092399E-01
    1      -35.606106   1.000000
    2      -14.148058   1.000000
    3      -14.146198   1.000000
    4      -14.118934   1.000000
    5      -14.114776   1.000000
    6      -14.113053   1.000000
    7      -10.921467   1.000000
    8      -10.833969   1.000000
    9      -10.804046   1.000000
   10       -2.488539   1.000000
   11        3.304172   1.000000
   12        4.075033   1.000000
   13        4.200598   1.000000
   14        4.912347   1.000000
   15        5.005817   1.000000
   16        5.226657   1.000000
   17        6.332963   1.000000
   18        7.035702   1.000000
   19        8.288101   1.000000
   20        8.635165   0.000031
   21        8.689737   0.000000
   22        8.830022   0.000000
   23        8.844260   0.000000
   24        8.943305   0.000000

 -0.3846154E+00  0.2307692E+00 -0.1962667E-16  0.1092399E-01
    1      -35.606120   1.000000
    2      -14.151561   1.000000
    3      -14.144799   1.000000
    4      -14.118212   1.000000
    5      -14.115322   1.000000
    6      -14.113320   1.000000
    7      -10.917618   1.000000
    8      -10.843473   1.000000
    9      -10.794868   1.000000
   10       -2.469693   1.000000
   11        3.284764   1.000000
   12        4.067520   1.000000
   13        4.127063   1.000000
   14        4.860559   1.000000
   15        5.082931   1.000000
   16        5.258448   1.000000
   17        6.247524   1.000000
   18        7.037092   1.000000
   19        8.293605   1.000000
   20        8.615744   0.104529
   21        8.730388   0.000000
   22        8.782903   0.000000