 vasp.6.0.8 29Jun18 (build Jun 13 2019 12:54:44) complex

 executed on      IFC18_CrayMPICH date 2021.12.05  14:21:49
 running   64 mpi-ranks, with    1 threads/rank
 distrk:  each k-point on   16 cores,    4 groups
 distr:  one band on NCORES_PER_BAND=   4 cores,    4 groups


--------------------------------------------------------------------------------------------------------


 INCAR:
 POTCAR:    PAW_PBE U 06Sep2000
 POTCAR:    PAW_PBE Bi_d 06Sep2000
 POTCAR:    PAW_PBE Pt 04Feb2005
 POTCAR:    PAW_PBE U 06Sep2000
   VRHFIN =U:  [Xe,5d,4f]
   LEXCH  = PE
   EATOM  =  1405.3058 eV,  103.2871 Ry

   TITEL  = PAW_PBE U 06Sep2000
   LULTRA =        F    use ultrasoft PP ?
   IUNSCR =        1    unscreen: 0-lin 1-nonlin 2-no
   RPACOR =    2.200    partial core radius
   POMASS =  238.029; ZVAL   =   14.000    mass and valenz
   RCORE  =    2.800    outmost cutoff radius
   RWIGS  =    3.000; RWIGS  =    1.588    wigner-seitz radius (au A)
   ENMAX  =  252.502; ENMIN  =  189.376 eV
   RCLOC  =    1.811    cutoff for local pot
   LCOR   =        T    correct aug charges
   LPAW   =        T    paw PP
   EAUG   =  526.410
   DEXC   =    0.000
   RMAX   =    2.863    core radius for proj-oper
   RAUG   =    1.300    factor for augmentation sphere
   RDEP   =    2.950    radius for radial grids
   RDEPT  =    2.270    core radius for aug-charge

   Atomic configuration
   18 entries
     n  l   j            E        occ.
     1  0  0.50   -116038.1941   2.0000
     2  0  0.50    -21694.8835   2.0000
     2  1  1.50    -18009.1553   6.0000
     3  0  0.50     -5481.2929   2.0000
     3  1  1.50     -4458.9283   6.0000
     3  2  2.50     -3575.9978  10.0000
     4  0  0.50     -1400.5351   2.0000
     4  1  1.50     -1066.7807   6.0000
     4  2  2.50      -732.1336  10.0000
     4  3  3.50      -377.4393  14.0000
     5  0  0.50      -314.7366   2.0000
     5  1  1.50      -211.6057   6.0000
     5  2  2.50      -103.2045  10.0000
     6  0  0.50       -50.6026   2.0000
     7  0  0.50        -4.5896   2.0000
     6  1  1.50       -25.2884   6.0000
     6  2  1.50        -3.1039   2.0000
     5  3  2.50        -6.3670   2.0000
   Description
     l       E           TYP  RCUT    TYP  RCUT
     0    -50.6026097     23  2.600
     0     -4.5896371     23  2.600
     1    -25.2883770     23  2.500
     1     27.2116520     23  2.500
     2     -3.1038686     23  2.500
     2      0.8290654     23  2.500
     3     -6.3670133     23  2.800
     3     -7.7275959     23  2.800
  local pseudopotential read in
  partial core-charges read in
  partial kinetic energy density read in
  atomic valenz-charges read in
  non local Contribution for L=           0  read in
    real space projection operators read in
  non local Contribution for L=           0  read in
    real space projection operators read in
  non local Contribution for L=           1  read in
    real space projection operators read in
  non local Contribution for L=           1  read in
    real space projection operators read in
  non local Contribution for L=           2  read in
    real space projection operators read in
  non local Contribution for L=           2  read in
    real space projection operators read in
  non local Contribution for L=           3  read in
    real space projection operators read in
  non local Contribution for L=           3  read in
    real space projection operators read in
    PAW grid and wavefunctions read in

   number of l-projection  operators is LMAX  =           8
   number of lm-projection operators is LMMAX =          32

 POTCAR:    PAW_PBE Bi_d 06Sep2000
   VRHFIN =Bi:
   LEXCH  = PE
   EATOM  =  1959.2045 eV,  143.9975 Ry

   TITEL  = PAW_PBE Bi_d 06Sep2000
   LULTRA =        F    use ultrasoft PP ?
   IUNSCR =        1    unscreen: 0-lin 1-nonlin 2-no
   RPACOR =    2.200    partial core radius
   POMASS =  208.980; ZVAL   =   15.000    mass and valenz
   RCORE  =    2.500    outmost cutoff radius
   RWIGS  =    3.090; RWIGS  =    1.635    wigner-seitz radius (au A)
   ENMAX  =  242.839; ENMIN  =  182.129 eV
   ICORE  =        3    local potential
   LCOR   =        T    correct aug charges
   LPAW   =        T    paw PP
   EAUG   =  442.899
   DEXC   =    0.000
   RMAX   =    2.551    core radius for proj-oper
   RAUG   =    1.300    factor for augmentation sphere
   RDEP   =    2.650    radius for radial grids
   RDEPT  =    2.039    core radius for aug-charge

   Atomic configuration
   16 entries
     n  l   j            E        occ.
     1  0  0.50    -90639.6581   2.0000
     2  0  0.50    -16282.4666   2.0000
     2  1  1.50    -13922.8286   6.0000
     3  0  0.50     -3930.4763   2.0000
     3  1  1.50     -3256.7013   6.0000
     3  2  2.50     -2581.6168  10.0000
     4  0  0.50      -902.2614   2.0000
     4  1  1.50      -681.5915   6.0000
     4  2  2.50      -429.8249  10.0000
     4  3  3.50      -152.6004  14.0000
     5  0  0.50      -157.7156   2.0000
     5  1  1.50       -95.8054   6.0000
     5  2  2.50       -27.0806  10.0000
     6  0  0.50       -14.4732   2.0000
     6  1  1.50        -4.5702   3.0000
     5  3  2.50        -2.7212   0.0000
   Description
     l       E           TYP  RCUT    TYP  RCUT
     2    -27.0805982     23  2.500
     2     -1.3605826     23  2.500
     0    -14.4732271     23  2.500
     0      6.8029130     23  2.500
     1     -4.5701651     23  2.500
     1     13.6058260     23  2.500
     3     -1.3605826      7  2.500
  local pseudopotential read in
  partial core-charges read in
  partial kinetic energy density read in
  atomic valenz-charges read in
  non local Contribution for L=           2  read in
    real space projection operators read in
  non local Contribution for L=           2  read in
    real space projection operators read in
  non local Contribution for L=           0  read in
    real space projection operators read in
  non local Contribution for L=           0  read in
    real space projection operators read in
  non local Contribution for L=           1  read in
    real space projection operators read in
  non local Contribution for L=           1  read in
    real space projection operators read in
    PAW grid and wavefunctions read in

   number of l-projection  operators is LMAX  =           6
   number of lm-projection operators is LMMAX =          18

 POTCAR:    PAW_PBE Pt 04Feb2005
   VRHFIN =Pt: s1d9
   LEXCH  = PE
   EATOM  =   729.1176 eV,   53.5886 Ry

   TITEL  = PAW_PBE Pt 04Feb2005
   LULTRA =        F    use ultrasoft PP ?
   IUNSCR =        1    unscreen: 0-lin 1-nonlin 2-no
   RPACOR =    2.330    partial core radius
   POMASS =  195.080; ZVAL   =   10.000    mass and valenz
   RCORE  =    2.600    outmost cutoff radius
   RWIGS  =    2.750; RWIGS  =    1.455    wigner-seitz radius (au A)
   ENMAX  =  230.283; ENMIN  =  172.712 eV
   ICORE  =        3    local potential
   LCOR   =        T    correct aug charges
   LPAW   =        T    paw PP
   EAUG   =  358.966
   DEXC   =    0.000
   RMAX   =    2.658    core radius for proj-oper
   RAUG   =    1.300    factor for augmentation sphere
   RDEP   =    2.761    radius for radial grids
   RDEPT  =    2.203    core radius for aug-charge

   Atomic configuration
   16 entries
     n  l   j            E        occ.
     1  0  0.50    -78401.1885   2.0000
     2  0  0.50    -13770.7750   2.0000
     2  1  1.50    -11931.0468   6.0000
     3  0  0.50     -3234.7234   2.0000
     3  1  1.50     -2699.2216   6.0000
     3  2  2.50     -2119.5714  10.0000
     4  0  0.50      -695.1528   2.0000
     4  1  1.50      -519.6034   6.0000
     4  2  2.50      -306.6786  10.0000
     4  3  3.50       -70.1041  14.0000
     5  0  0.50      -101.7747   2.0000
     5  1  1.50       -55.9873   6.0000
     5  2  2.50        -6.1423   9.0000
     6  0  0.50        -5.6573   1.0000
     6  1  1.50        -6.8029   0.0000
     5  3  2.50        -1.3606   0.0000
   Description
     l       E           TYP  RCUT    TYP  RCUT
     2     -6.1423404     23  2.500
     2     -7.5029230     23  2.500
     0     -5.6573207     23  2.500
     0      0.7416693     23  2.500
     1     -2.7211652     23  2.600
     1     20.4087390     23  2.600
     3     -1.3605826     23  2.500
  local pseudopotential read in
  partial core-charges read in
  partial kinetic energy density read in
  atomic valenz-charges read in
  non local Contribution for L=           2  read in
    real space projection operators read in
  non local Contribution for L=           2  read in
    real space projection operators read in
  non local Contribution for L=           0  read in
    real space projection operators read in
  non local Contribution for L=           0  read in
    real space projection operators read in
  non local Contribution for L=           1  read in
    real space projection operators read in
  non local Contribution for L=           1  read in
    real space projection operators read in
    PAW grid and wavefunctions read in

   number of l-projection  operators is LMAX  =           6
   number of lm-projection operators is LMMAX =          18

 WARNING: PSMAXN for non-local potential too small
          PSMAXN should be >   13.5545592237991       NTYP=           1

 -----------------------------------------------------------------------------
|                                                                             |
|  ADVICE TO THIS USER RUNNING 'VASP/VAMP'   (HEAR YOUR MASTER'S VOICE ...):  |
|                                                                             |
|      You enforced a specific xc-type in the INCAR file,                     |
|      a different type was found on the POTCAR file                          |
|          I HOPE YOU KNOW, WHAT YOU ARE  DOING                               |
|                                                                             |
 -----------------------------------------------------------------------------

  PAW_PBE U 06Sep2000                   :
 energy of atom  1       EATOM=-1405.3058
 kinetic energy error for atom=    0.0006 (will be added to EATOM!!)
  PAW_PBE Bi_d 06Sep2000                :
 energy of atom  2       EATOM=-1959.2045
 kinetic energy error for atom=    0.0012 (will be added to EATOM!!)
  PAW_PBE Pt 04Feb2005                  :
 energy of atom  3       EATOM= -729.1176
 kinetic energy error for atom=    0.0010 (will be added to EATOM!!)


 POSCAR: U1 Bi1 Pt1
  positions in direct lattice
  No initial velocities read in
 exchange correlation table for  LEXCH =       14
   RHO(1)=    0.500       N(1)  =     2000
   RHO(2)=  100.500       N(2)  =     4000



--------------------------------------------------------------------------------------------------------


 ion  position               nearest neighbor table
   1  0.250  0.250  0.250-   3 2.98   3 2.98   3 2.98   3 2.98   2 3.45   2 3.45   2 3.45   2 3.45
                             2 3.45   2 3.45
   2  0.750  0.750  0.750-   3 2.98   3 2.98   3 2.98   3 2.98   1 3.45   1 3.45   1 3.45   1 3.45
                             1 3.45   1 3.45
   3  0.000  0.000  0.000-   2 2.98   2 2.98   2 2.98   1 2.98   2 2.98   1 2.98   1 2.98   1 2.98


  LATTYP: Found a face centered cubic cell.
 ALAT       =     6.8907325298

  Lattice vectors:

 A1 = (   0.0000000000,   3.4453662649,   3.4453662649)
 A2 = (   3.4453662649,   0.0000000000,   3.4453662649)
 A3 = (   3.4453662649,   3.4453662649,   0.0000000000)


Analysis of symmetry for initial positions (statically):
=====================================================================
 Subroutine PRICEL returns:
 Original cell was already a primitive cell.


 Routine SETGRP: Setting up the symmetry group for a
 face centered cubic supercell.


 Subroutine GETGRP returns: Found 24 space group operations
 (whereof 24 operations were pure point group operations)
 out of a pool of 48 trial point group operations.


The static configuration has the point symmetry T_d .


Analysis of symmetry for dynamics (positions and initial velocities):
=====================================================================
 Subroutine PRICEL returns:
 Original cell was already a primitive cell.


 Routine SETGRP: Setting up the symmetry group for a
 face centered cubic supercell.


 Subroutine GETGRP returns: Found 24 space group operations
 (whereof 24 operations were pure point group operations)
 out of a pool of 48 trial point group operations.


The dynamic configuration has the point symmetry T_d .


 Subroutine INISYM returns: Found 24 space group operations
 (whereof 24 operations are pure point group operations),
 and found     1 'primitive' translations


----------------------------------------------------------------------------------------

                                     Primitive cell

  volume of cell :      81.7968

  direct lattice vectors                    reciprocal lattice vectors
     0.000000000  3.445366265  3.445366265    -0.145122452  0.145122452  0.145122452
     3.445366265  0.000000000  3.445366265     0.145122452 -0.145122452  0.145122452
     3.445366265  3.445366265  0.000000000     0.145122452  0.145122452 -0.145122452

  length of vectors
     4.872483699  4.872483699  4.872483699     0.251359460  0.251359460  0.251359460

  position of ions in fractional coordinates (direct lattice)
     0.250000000  0.250000000  0.250000000
     0.750000000  0.750000000  0.750000000
     0.000000000  0.000000000  0.000000000

  ion indices of the primitive-cell ions
   primitive index   ion index
                 1           1
                 2           2
                 3           3

----------------------------------------------------------------------------------------



 KPOINTS: KPOINTS

Automatic generation of k-mesh.
Space group operators:
 irot       det(A)        alpha          n_x          n_y          n_z        tau_x        tau_y        tau_z
    1     1.000000     0.000000     1.000000     0.000000     0.000000     0.000000     0.000000     0.000000
    2     1.000000   120.000000    -0.577350    -0.577350    -0.577350     0.000000     0.000000     0.000000
    3     1.000000   120.000000     0.577350     0.577350     0.577350     0.000000     0.000000     0.000000
    4    -1.000000    90.000000    -0.000000    -0.000000    -1.000000     0.000000     0.000000     0.000000
    5    -1.000000   180.000000    -0.000000     0.707107     0.707107     0.000000     0.000000     0.000000
    6    -1.000000    90.000000    -0.000000     1.000000    -0.000000     0.000000     0.000000     0.000000
    7     1.000000   180.000000     0.000000     0.000000    -1.000000     0.000000     0.000000     0.000000
    8     1.000000   120.000000    -0.577350     0.577350     0.577350     0.000000     0.000000     0.000000
    9     1.000000   120.000000    -0.577350     0.577350    -0.577350     0.000000     0.000000     0.000000
   10    -1.000000    90.000000     0.000000     0.000000     1.000000     0.000000     0.000000     0.000000
   11    -1.000000    90.000000    -1.000000     0.000000     0.000000     0.000000     0.000000     0.000000
   12    -1.000000   180.000000     0.707107     0.000000     0.707107     0.000000     0.000000     0.000000
   13     1.000000   120.000000     0.577350    -0.577350     0.577350     0.000000     0.000000     0.000000
   14     1.000000   120.000000    -0.577350    -0.577350     0.577350     0.000000     0.000000     0.000000
   15     1.000000   180.000000     1.000000     0.000000     0.000000     0.000000     0.000000     0.000000
   16    -1.000000    90.000000     0.000000    -1.000000     0.000000     0.000000     0.000000     0.000000
   17    -1.000000   180.000000     0.707107     0.707107    -0.000000     0.000000     0.000000     0.000000
   18    -1.000000    90.000000     1.000000     0.000000     0.000000     0.000000     0.000000     0.000000
   19     1.000000   120.000000     0.577350    -0.577350    -0.577350     0.000000     0.000000     0.000000
   20     1.000000   180.000000    -0.000000    -1.000000    -0.000000     0.000000     0.000000     0.000000
   21     1.000000   120.000000     0.577350     0.577350    -0.577350     0.000000     0.000000     0.000000
   22    -1.000000   180.000000    -0.000000    -0.707107     0.707107     0.000000     0.000000     0.000000
   23    -1.000000   180.000000     0.707107    -0.707107     0.000000     0.000000     0.000000     0.000000
   24    -1.000000   180.000000     0.707107     0.000000    -0.707107     0.000000     0.000000     0.000000

 Subroutine IBZKPT returns following result:
 ===========================================

 Found     84 irreducible k-points:

 Following reciprocal coordinates:
            Coordinates               Weight
  0.000000  0.000000  0.000000      1.000000
  0.076923 -0.000000 -0.000000      8.000000
  0.153846  0.000000 -0.000000      8.000000
  0.230769  0.000000 -0.000000      8.000000
  0.307692  0.000000 -0.000000      8.000000
  0.384615 -0.000000  0.000000      8.000000
  0.461538 -0.000000  0.000000      8.000000
  0.076923  0.076923 -0.000000      6.000000
  0.153846  0.076923 -0.000000     24.000000
  0.230769  0.076923 -0.000000     24.000000
  0.307692  0.076923 -0.000000     24.000000
  0.384615  0.076923 -0.000000     24.000000
  0.461538  0.076923 -0.000000     24.000000
 -0.461538  0.076923  0.000000     24.000000
 -0.384615  0.076923  0.000000     24.000000
 -0.307692  0.076923 -0.000000     24.000000
 -0.230769  0.076923  0.000000     24.000000
 -0.153846  0.076923  0.000000     24.000000
 -0.076923  0.076923 -0.000000     12.000000
  0.153846  0.153846 -0.000000      6.000000
  0.230769  0.153846 -0.000000     24.000000
  0.307692  0.153846 -0.000000     24.000000
  0.384615  0.153846 -0.000000     24.000000
  0.461538  0.153846 -0.000000     24.000000
 -0.461538  0.153846  0.000000     24.000000
 -0.384615  0.153846  0.000000     24.000000
 -0.307692  0.153846 -0.000000     24.000000
 -0.230769  0.153846 -0.000000     24.000000
 -0.153846  0.153846  0.000000     12.000000
  0.230769  0.230769 -0.000000      6.000000
  0.307692  0.230769 -0.000000     24.000000
  0.384615  0.230769 -0.000000     24.000000
  0.461538  0.230769 -0.000000     24.000000
 -0.461538  0.230769 -0.000000     24.000000
 -0.384615  0.230769 -0.000000     24.000000
 -0.307692  0.230769  0.000000     24.000000
 -0.230769  0.230769  0.000000     12.000000
  0.307692  0.307692 -0.000000      6.000000
  0.384615  0.307692 -0.000000     24.000000
  0.461538  0.307692 -0.000000     24.000000
 -0.461538  0.307692 -0.000000     24.000000
 -0.384615  0.307692 -0.000000     24.000000
 -0.307692  0.307692  0.000000     12.000000
  0.384615  0.384615 -0.000000      6.000000
  0.461538  0.384615 -0.000000     24.000000
 -0.461538  0.384615 -0.000000     24.000000
 -0.384615  0.384615 -0.000000     12.000000
  0.461538  0.461538 -0.000000      6.000000
 -0.461538  0.461538 -0.000000     12.000000
  0.230769  0.153846  0.076923     24.000000
  0.307692  0.153846  0.076923     48.000000
  0.384615  0.153846  0.076923     48.000000
  0.461538  0.153846  0.076923     48.000000
 -0.461538  0.153846  0.076923     48.000000
  0.307692  0.230769  0.076923     24.000000
  0.384615  0.230769  0.076923     48.000000
  0.461538  0.230769  0.076923     48.000000
 -0.461538  0.230769  0.076923     48.000000
 -0.384615  0.230769  0.076923     48.000000
 -0.307692  0.230769  0.076923     48.000000
 -0.230769  0.230769  0.076923     48.000000
 -0.153846  0.230769  0.076923     24.000000
  0.384615  0.307692  0.076923     24.000000
  0.461538  0.307692  0.076923     48.000000
 -0.461538  0.307692  0.076923     48.000000
 -0.384615  0.307692  0.076923     48.000000
 -0.307692  0.307692  0.076923     48.000000
 -0.230769  0.307692  0.076923     24.000000
  0.461538  0.384615  0.076923     24.000000
 -0.461538  0.384615  0.076923     48.000000
 -0.384615  0.384615  0.076923     48.000000
 -0.307692  0.384615  0.076923     24.000000
 -0.461538  0.461538  0.076923     24.000000
 -0.384615  0.461538  0.076923     24.000000
  0.461538  0.307692  0.153846     24.000000
 -0.461538  0.307692  0.153846     48.000000
 -0.384615  0.307692  0.153846     48.000000
 -0.461538  0.384615  0.153846     24.000000
 -0.384615  0.384615  0.153846     48.000000
 -0.307692  0.384615  0.153846     48.000000
 -0.230769  0.384615  0.153846     24.000000
 -0.384615  0.461538  0.153846     24.000000
 -0.307692  0.461538  0.153846     24.000000
 -0.307692  0.461538  0.230769     24.000000

 Following cartesian coordinates:
            Coordinates               Weight
  0.000000  0.000000  0.000000      1.000000
 -0.011593  0.011593  0.011593      8.000000
 -0.023186  0.023186  0.023186      8.000000
 -0.034779  0.034779  0.034779      8.000000
 -0.046372  0.046372  0.046372      8.000000
 -0.057965  0.057965  0.057965      8.000000
 -0.069558  0.069558  0.069558      8.000000
 -0.000000  0.000000  0.023186      6.000000
 -0.011593  0.011593  0.034779     24.000000
 -0.023186  0.023186  0.046372     24.000000
 -0.034779  0.034779  0.057965     24.000000
 -0.046372  0.046372  0.069558     24.000000
 -0.057965  0.057965  0.081151     24.000000
  0.081151 -0.081151 -0.057965     24.000000
  0.069558 -0.069558 -0.046372     24.000000
  0.057965 -0.057965 -0.034779     24.000000
  0.046372 -0.046372 -0.023186     24.000000
  0.034779 -0.034779 -0.011593     24.000000
  0.023186 -0.023186 -0.000000     12.000000
 -0.000000  0.000000  0.046372      6.000000
 -0.011593  0.011593  0.057965     24.000000
 -0.023186  0.023186  0.069558     24.000000
 -0.034779  0.034779  0.081151     24.000000
 -0.046372  0.046372  0.092744     24.000000
  0.092744 -0.092744 -0.046372     24.000000
  0.081151 -0.081151 -0.034779     24.000000
  0.069558 -0.069558 -0.023186     24.000000
  0.057965 -0.057965 -0.011593     24.000000
  0.046372 -0.046372 -0.000000     12.000000
 -0.000000  0.000000  0.069558      6.000000
 -0.011593  0.011593  0.081151     24.000000
 -0.023186  0.023186  0.092744     24.000000
 -0.034779  0.034779  0.104337     24.000000
  0.104337 -0.104337 -0.034779     24.000000
  0.092744 -0.092744 -0.023186     24.000000
  0.081151 -0.081151 -0.011593     24.000000
  0.069558 -0.069558 -0.000000     12.000000
 -0.000000  0.000000  0.092744      6.000000
 -0.011593  0.011593  0.104337     24.000000
 -0.023186  0.023186  0.115930     24.000000
  0.115930 -0.115930 -0.023186     24.000000
  0.104337 -0.104337 -0.011593     24.000000
  0.092744 -0.092744 -0.000000     12.000000
 -0.000000  0.000000  0.115930      6.000000
 -0.011593  0.011593  0.127523     24.000000
  0.127523 -0.127523 -0.011593     24.000000
  0.115930 -0.115930  0.000000     12.000000
 -0.000000  0.000000  0.139116      6.000000
  0.139116 -0.139116 -0.000000     12.000000
 -0.000000  0.023186  0.046372     24.000000
 -0.011593  0.034779  0.057965     48.000000
 -0.023186  0.046372  0.069558     48.000000
 -0.034779  0.057965  0.081151     48.000000
  0.104337 -0.081151 -0.057965     48.000000
  0.000000  0.023186  0.069558     24.000000
 -0.011593  0.034779  0.081151     48.000000
 -0.023186  0.046372  0.092744     48.000000
  0.115930 -0.092744 -0.046372     48.000000
  0.104337 -0.081151 -0.034779     48.000000
  0.092744 -0.069558 -0.023186     48.000000
  0.081151 -0.057965 -0.011593     48.000000
  0.069558 -0.046372 -0.000000     24.000000
  0.000000  0.023186  0.092744     24.000000
 -0.011593  0.034779  0.104337     48.000000
  0.127523 -0.104337 -0.034779     48.000000
  0.115930 -0.092744 -0.023186     48.000000
  0.104337 -0.081151 -0.011593     48.000000
  0.092744 -0.069558 -0.000000     24.000000
  0.000000  0.023186  0.115930     24.000000
  0.139116 -0.115930 -0.023186     48.000000
  0.127523 -0.104337 -0.011593     48.000000
  0.115930 -0.092744  0.000000     24.000000
  0.150709 -0.127523 -0.011593     24.000000
  0.139116 -0.115930 -0.000000     24.000000
 -0.000000  0.046372  0.092744     24.000000
  0.139116 -0.092744 -0.046372     48.000000
  0.127523 -0.081151 -0.034779     48.000000
  0.150709 -0.104337 -0.034779     24.000000
  0.139116 -0.092744 -0.023186     48.000000
  0.127523 -0.081151 -0.011593     48.000000
  0.115930 -0.069558  0.000000     24.000000
  0.150709 -0.104337 -0.011593     24.000000
  0.139116 -0.092744 -0.000000     24.000000
  0.150709 -0.081151 -0.011593     24.000000



--------------------------------------------------------------------------------------------------------




 Dimension of arrays:
   k-points           NKPTS =     84   k-points in BZ     NKDIM =     84   number of bands    NBANDS=     24
   number of dos      NEDOS =    301   number of ions     NIONS =      3
   non local maximal  LDIM  =      8   non local SUM 2l+1 LMDIM =     32
   total plane-waves  NPLWV =  74088
   max r-space proj   IRMAX =      1   max aug-charges    IRDMAX= 442098
   dimension x,y,z NGX =    42 NGY =   42 NGZ =   42
   dimension x,y,z NGXF=    84 NGYF=   84 NGZF=   84
   support grid    NGXF=   168 NGYF=  168 NGZF=  168
   ions per type =               1   1   1
   NGX,Y,Z   is equivalent  to a cutoff of  14.33, 14.33, 14.33 a.u.
   NGXF,Y,Z  is equivalent  to a cutoff of  28.66, 28.66, 28.66 a.u.

 SYSTEM =  unknown system
 POSCAR =  U1 Bi1 Pt1

 Startparameter for this run:
   NWRITE =      2    write-flag & timer
   PREC   = acc       normal or accurate (medium, high low for compatibility)
   ISTART =      0    job   : 0-new  1-cont  2-samecut
   ICHARG =      2    charge: 1-file 2-atom 10-const
   ISPIN  =      1    spin polarized calculation?
   LNONCOLLINEAR =      F non collinear calculations
   LSORBIT =      F    spin-orbit coupling
   INIWAV =      1    electr: 0-lowe 1-rand  2-diag
   LASPH  =      F    aspherical Exc in radial PAW
   METAGGA=      F    non-selfconsistent MetaGGA calc.

 Electronic Relaxation 1
   ENCUT  =  700.0 eV  51.45 Ry    7.17 a.u.  10.51 10.51 10.51*2*pi/ulx,y,z
   ENINI  =  700.0     initial cutoff
   ENAUG  =  526.4 eV  augmentation charge cutoff
   NELM   =     60;   NELMIN=  5; NELMDL= -5     # of ELM steps
   EDIFF  = 0.1E-06   stopping-criterion for ELM
   LREAL  =      F    real-space projection
   NLSPLINE    = F    spline interpolate recip. space projectors
   LCOMPAT=      F    compatible to vasp.4.4
   GGA_COMPAT  = T    GGA compatible to vasp.4.4-vasp.4.6
   LMAXPAW     = -100 max onsite density
   LMAXMIX     =    2 max onsite mixed and CHGCAR
   VOSKOWN=      0    Vosko Wilk Nusair interpolation
   ROPT   =    0.00000   0.00000   0.00000
 Ionic relaxation
   EDIFFG = 0.1E-05   stopping-criterion for IOM
   NSW    =      0    number of steps for IOM
   NBLOCK =      1;   KBLOCK =      1    inner block; outer block
   IBRION =     -1    ionic relax: 0-MD 1-quasi-New 2-CG
   NFREE  =      0    steps in history (QN), initial steepest desc. (CG)
   ISIF   =      3    stress and relaxation
   IWAVPR =     10    prediction:  0-non 1-charg 2-wave 3-comb
   ISYM   =      2    0-nonsym 1-usesym 2-fastsym
   LCORR  =      T    Harris-Foulkes like correction to forces

   POTIM  = 0.5000    time-step for ionic-motion
   TEIN   =    0.0    initial temperature
   TEBEG  =    0.0;   TEEND  =   0.0 temperature during run
   SMASS  =  -3.00    Nose mass-parameter (am)
   estimated Nose-frequenzy (Omega)   =  0.10E-29 period in steps = 0.13E+47 mass=  -0.543E-27a.u.
   SCALEE = 1.0000    scale energy and forces
   NPACO  =    256;   APACO  = 16.0  distance and # of slots for P.C.
   PSTRESS=    0.0 pullay stress

  Mass of Ions in am
   POMASS = 238.03208.98195.08
  Ionic Valenz
   ZVAL   =  14.00 15.00 10.00
  Atomic Wigner-Seitz radii
   RWIGS  =  -1.00 -1.00 -1.00
  virtual crystal weights
   VCA    =   1.00  1.00  1.00
   NELECT =      39.0000    total number of electrons
   NUPDOWN=      -1.0000    fix difference up-down

 DOS related values:
   EMIN   =  10.00;   EMAX   =-10.00  energy-range for DOS
   EFERMI =   0.00
   ISMEAR =     0;   SIGMA  =   0.01  broadening in eV -4-tet -1-fermi 0-gaus

 Electronic relaxation 2 (details)
   IALGO  =     38    algorithm
   LDIAG  =      T    sub-space diagonalisation (order eigenvalues)
   LSUBROT=      F    optimize rotation matrix (better conditioning)
   TURBO    =      0    0=normal 1=particle mesh
   IRESTART =      0    0=no restart 2=restart with 2 vectors
   NREBOOT  =      0    no. of reboots
   NMIN     =      0    reboot dimension
   EREF     =   0.00    reference energy to select bands
   IMIX   =      4    mixing-type and parameters
     AMIX     =   0.40;   BMIX     =  1.00
     AMIX_MAG =   1.60;   BMIX_MAG =  1.00
     AMIN     =   0.10
     WC   =   100.;   INIMIX=   1;  MIXPRE=   1;  MAXMIX= -45

 Intra band minimization:
   WEIMIN = 0.0000     energy-eigenvalue tresh-hold
   EBREAK =  0.10E-08  absolut break condition
   DEPER  =   0.30     relativ break condition

   TIME   =   0.40     timestep for ELM

  volume/ion in A,a.u.               =      27.27       184.00
  Fermi-wavevector in a.u.,A,eV,Ry     =   1.278942  2.416851 22.254962  1.635694
  Thomas-Fermi vector in A             =   2.411456

 Write flags
   LWAVE        =      F    write WAVECAR
   LDOWNSAMPLE  =      F    k-point downsampling of WAVECAR
   LCHARG       =      F    write CHGCAR
   LVTOT        =      F    write LOCPOT, total local potential
   LVHAR        =      F    write LOCPOT, Hartree potential only
   LELF         =      F    write electronic localiz. function (ELF)
   LORBIT       =      0    0 simple, 1 ext, 2 COOP (PROOUT), +10 PAW based schemes


 Dipole corrections
   LMONO  =      F    monopole corrections only (constant potential shift)
   LDIPOL =      F    correct potential (dipole corrections)
   IDIPOL =      0    1-x, 2-y, 3-z, 4-all directions
   EPSILON=  1.0000000 bulk dielectric constant

 Exchange correlation treatment:
   GGA     =    PS    GGA type
   LEXCH   =    14    internal setting for exchange type
   VOSKOWN=      0    Vosko Wilk Nusair interpolation
   LHFCALC =     F    Hartree Fock is set to
   LHFONE  =     F    Hartree Fock one center treatment
   AEXX    =    0.0000 exact exchange contribution

 Linear response parameters
   LEPSILON=     F    determine dielectric tensor
   LRPA    =     F    only Hartree local field effects (RPA)
   LNABLA  =     F    use nabla operator in PAW spheres
   LVEL    =     F    velocity operator in full k-point grid
   LINTERFAST=   F  fast interpolation
   KINTER  =     0    interpolate to denser k-point grid
   CSHIFT  =0.1000    complex shift for real part using Kramers Kronig
   OMEGAMAX=  -1.0    maximum frequency
   DEG_THRESHOLD= 0.2000000E-02 threshold for treating states as degnerate
   RTIME   =   -0.100 relaxation time in fs
  (WPLASMAI=    0.000 imaginary part of plasma frequency in eV, 0.658/RTIME)
   DFIELD  = 0.0000000 0.0000000 0.0000000 field for delta impulse in time

 Orbital magnetization related:
   ORBITALMAG=     F  switch on orbital magnetization
   LCHIMAG   =     F  perturbation theory with respect to B field
   DQ        =  0.001000  dq finite difference perturbation B field
   LLRAUG    =     F  two centre corrections for induced B field



--------------------------------------------------------------------------------------------------------


 Static calculation
 charge density and potential will be updated during run
 non-spin polarized calculation
 Variant of blocked Davidson
 Davidson routine will perform the subspace rotation
 perform sub-space diagonalisation
    after iterative eigenvector-optimisation
 modified Broyden-mixing scheme, WC =      100.0
 initial mixing is a Kerker type mixing with AMIX =  0.4000 and BMIX =      1.0000
 Hartree-type preconditioning will be used
 using additional bands            4
 reciprocal scheme for non local part
 use partial core corrections
 calculate Harris-corrections to forces
   (improved forces if not selfconsistent)
 use gradient corrections
 use of overlap-Matrix (Vanderbilt PP)
 Gauss-broadening in eV      SIGMA  =   0.01


--------------------------------------------------------------------------------------------------------


  energy-cutoff  :      700.00
  volume of cell :       81.80
      direct lattice vectors                 reciprocal lattice vectors
     0.000000000  3.445366265  3.445366265    -0.145122452  0.145122452  0.145122452
     3.445366265  0.000000000  3.445366265     0.145122452 -0.145122452  0.145122452
     3.445366265  3.445366265  0.000000000     0.145122452  0.145122452 -0.145122452

  length of vectors
     4.872483699  4.872483699  4.872483699     0.251359460  0.251359460  0.251359460



 k-points in units of 2pi/SCALE and weight: KPOINTS
   0.00000000  0.00000000  0.00000000       0.000
  -0.01159304  0.01159304  0.01159304       0.004
  -0.02318608  0.02318608  0.02318608       0.004
  -0.03477911  0.03477911  0.03477911       0.004
  -0.04637215  0.04637215  0.04637215       0.004
  -0.05796519  0.05796519  0.05796519       0.004
  -0.06955823  0.06955823  0.06955823       0.004
  -0.00000000  0.00000000  0.02318608       0.003
  -0.01159304  0.01159304  0.03477911       0.011
  -0.02318608  0.02318608  0.04637215       0.011
  -0.03477911  0.03477911  0.05796519       0.011
  -0.04637215  0.04637215  0.06955823       0.011
  -0.05796519  0.05796519  0.08115127       0.011
   0.08115127 -0.08115127 -0.05796519       0.011
   0.06955823 -0.06955823 -0.04637215       0.011
   0.05796519 -0.05796519 -0.03477911       0.011
   0.04637215 -0.04637215 -0.02318608       0.011
   0.03477911 -0.03477911 -0.01159304       0.011
   0.02318608 -0.02318608 -0.00000000       0.005
  -0.00000000  0.00000000  0.04637215       0.003
  -0.01159304  0.01159304  0.05796519       0.011
  -0.02318608  0.02318608  0.06955823       0.011
  -0.03477911  0.03477911  0.08115127       0.011
  -0.04637215  0.04637215  0.09274430       0.011
   0.09274430 -0.09274430 -0.04637215       0.011
   0.08115127 -0.08115127 -0.03477911       0.011
   0.06955823 -0.06955823 -0.02318608       0.011
   0.05796519 -0.05796519 -0.01159304       0.011
   0.04637215 -0.04637215 -0.00000000       0.005
  -0.00000000  0.00000000  0.06955823       0.003
  -0.01159304  0.01159304  0.08115127       0.011
  -0.02318608  0.02318608  0.09274430       0.011
  -0.03477911  0.03477911  0.10433734       0.011
   0.10433734 -0.10433734 -0.03477911       0.011
   0.09274430 -0.09274430 -0.02318608       0.011
   0.08115127 -0.08115127 -0.01159304       0.011
   0.06955823 -0.06955823 -0.00000000       0.005
  -0.00000000  0.00000000  0.09274430       0.003
  -0.01159304  0.01159304  0.10433734       0.011
  -0.02318608  0.02318608  0.11593038       0.011
   0.11593038 -0.11593038 -0.02318608       0.011
   0.10433734 -0.10433734 -0.01159304       0.011
   0.09274430 -0.09274430 -0.00000000       0.005
  -0.00000000  0.00000000  0.11593038       0.003
  -0.01159304  0.01159304  0.12752342       0.011
   0.12752342 -0.12752342 -0.01159304       0.011
   0.11593038 -0.11593038  0.00000000       0.005
  -0.00000000  0.00000000  0.13911646       0.003
   0.13911646 -0.13911646 -0.00000000       0.005
  -0.00000000  0.02318608  0.04637215       0.011
  -0.01159304  0.03477911  0.05796519       0.022
  -0.02318608  0.04637215  0.06955823       0.022
  -0.03477911  0.05796519  0.08115127       0.022
   0.10433734 -0.08115127 -0.05796519       0.022
   0.00000000  0.02318608  0.06955823       0.011
  -0.01159304  0.03477911  0.08115127       0.022
  -0.02318608  0.04637215  0.09274430       0.022
   0.11593038 -0.09274430 -0.04637215       0.022
   0.10433734 -0.08115127 -0.03477911       0.022
   0.09274430 -0.06955823 -0.02318608       0.022
   0.08115127 -0.05796519 -0.01159304       0.022
   0.06955823 -0.04637215 -0.00000000       0.011
   0.00000000  0.02318608  0.09274430       0.011
  -0.01159304  0.03477911  0.10433734       0.022
   0.12752342 -0.10433734 -0.03477911       0.022
   0.11593038 -0.09274430 -0.02318608       0.022
   0.10433734 -0.08115127 -0.01159304       0.022
   0.09274430 -0.06955823 -0.00000000       0.011
   0.00000000  0.02318608  0.11593038       0.011
   0.13911646 -0.11593038 -0.02318608       0.022
   0.12752342 -0.10433734 -0.01159304       0.022
   0.11593038 -0.09274430  0.00000000       0.011
   0.15070950 -0.12752342 -0.01159304       0.011
   0.13911646 -0.11593038 -0.00000000       0.011
  -0.00000000  0.04637215  0.09274430       0.011
   0.13911646 -0.09274430 -0.04637215       0.022
   0.12752342 -0.08115127 -0.03477911       0.022
   0.15070950 -0.10433734 -0.03477911       0.011
   0.13911646 -0.09274430 -0.02318608       0.022
   0.12752342 -0.08115127 -0.01159304       0.022
   0.11593038 -0.06955823  0.00000000       0.011
   0.15070950 -0.10433734 -0.01159304       0.011
   0.13911646 -0.09274430 -0.00000000       0.011
   0.15070950 -0.08115127 -0.01159304       0.011

 k-points in reciprocal lattice and weights: KPOINTS
   0.00000000  0.00000000  0.00000000       0.000
   0.07692308 -0.00000000 -0.00000000       0.004
   0.15384615  0.00000000 -0.00000000       0.004
   0.23076923  0.00000000 -0.00000000       0.004
   0.30769231  0.00000000 -0.00000000       0.004
   0.38461538 -0.00000000  0.00000000       0.004
   0.46153846 -0.00000000  0.00000000       0.004
   0.07692308  0.07692308 -0.00000000       0.003
   0.15384615  0.07692308 -0.00000000       0.011
   0.23076923  0.07692308 -0.00000000       0.011
   0.30769231  0.07692308 -0.00000000       0.011
   0.38461538  0.07692308 -0.00000000       0.011
   0.46153846  0.07692308 -0.00000000       0.011
  -0.46153846  0.07692308  0.00000000       0.011
  -0.38461538  0.07692308  0.00000000       0.011
  -0.30769231  0.07692308 -0.00000000       0.011
  -0.23076923  0.07692308  0.00000000       0.011
  -0.15384615  0.07692308  0.00000000       0.011
  -0.07692308  0.07692308 -0.00000000       0.005
   0.15384615  0.15384615 -0.00000000       0.003
   0.23076923  0.15384615 -0.00000000       0.011
   0.30769231  0.15384615 -0.00000000       0.011
   0.38461538  0.15384615 -0.00000000       0.011
   0.46153846  0.15384615 -0.00000000       0.011
  -0.46153846  0.15384615  0.00000000       0.011
  -0.38461538  0.15384615  0.00000000       0.011
  -0.30769231  0.15384615 -0.00000000       0.011
  -0.23076923  0.15384615 -0.00000000       0.011
  -0.15384615  0.15384615  0.00000000       0.005
   0.23076923  0.23076923 -0.00000000       0.003
   0.30769231  0.23076923 -0.00000000       0.011
   0.38461538  0.23076923 -0.00000000       0.011
   0.46153846  0.23076923 -0.00000000       0.011
  -0.46153846  0.23076923 -0.00000000       0.011
  -0.38461538  0.23076923 -0.00000000       0.011
  -0.30769231  0.23076923  0.00000000       0.011
  -0.23076923  0.23076923  0.00000000       0.005
   0.30769231  0.30769231 -0.00000000       0.003
   0.38461538  0.30769231 -0.00000000       0.011
   0.46153846  0.30769231 -0.00000000       0.011
  -0.46153846  0.30769231 -0.00000000       0.011
  -0.38461538  0.30769231 -0.00000000       0.011
  -0.30769231  0.30769231  0.00000000       0.005
   0.38461538  0.38461538 -0.00000000       0.003
   0.46153846  0.38461538 -0.00000000       0.011
  -0.46153846  0.38461538 -0.00000000       0.011
  -0.38461538  0.38461538 -0.00000000       0.005
   0.46153846  0.46153846 -0.00000000       0.003
  -0.46153846  0.46153846 -0.00000000       0.005
   0.23076923  0.15384615  0.07692308       0.011
   0.30769231  0.15384615  0.07692308       0.022
   0.38461538  0.15384615  0.07692308       0.022
   0.46153846  0.15384615  0.07692308       0.022
  -0.46153846  0.15384615  0.07692308       0.022
   0.30769231  0.23076923  0.07692308       0.011
   0.38461538  0.23076923  0.07692308       0.022
   0.46153846  0.23076923  0.07692308       0.022
  -0.46153846  0.23076923  0.07692308       0.022
  -0.38461538  0.23076923  0.07692308       0.022
  -0.30769231  0.23076923  0.07692308       0.022
  -0.23076923  0.23076923  0.07692308       0.022
  -0.15384615  0.23076923  0.07692308       0.011
   0.38461538  0.30769231  0.07692308       0.011
   0.46153846  0.30769231  0.07692308       0.022
  -0.46153846  0.30769231  0.07692308       0.022
  -0.38461538  0.30769231  0.07692308       0.022
  -0.30769231  0.30769231  0.07692308       0.022
  -0.23076923  0.30769231  0.07692308       0.011
   0.46153846  0.38461538  0.07692308       0.011
  -0.46153846  0.38461538  0.07692308       0.022
  -0.38461538  0.38461538  0.07692308       0.022
  -0.30769231  0.38461538  0.07692308       0.011
  -0.46153846  0.46153846  0.07692308       0.011
  -0.38461538  0.46153846  0.07692308       0.011
   0.46153846  0.30769231  0.15384615       0.011
  -0.46153846  0.30769231  0.15384615       0.022
  -0.38461538  0.30769231  0.15384615       0.022
  -0.46153846  0.38461538  0.15384615       0.011
  -0.38461538  0.38461538  0.15384615       0.022
  -0.30769231  0.38461538  0.15384615       0.022
  -0.23076923  0.38461538  0.15384615       0.011
  -0.38461538  0.46153846  0.15384615       0.011
  -0.30769231  0.46153846  0.15384615       0.011
  -0.30769231  0.46153846  0.23076923       0.011

 position of ions in fractional coordinates (direct lattice)
   0.25000000  0.25000000  0.25000000
   0.75000000  0.75000000  0.75000000
   0.00000000  0.00000000  0.00000000

 position of ions in cartesian coordinates  (Angst):
   1.72268313  1.72268313  1.72268313
   5.16804940  5.16804940  5.16804940
   0.00000000  0.00000000  0.00000000



--------------------------------------------------------------------------------------------------------


 k-point  1 :   0.0000 0.0000 0.0000  plane waves:    3479
 k-point  2 :   0.0769-0.0000-0.0000  plane waves:    3461
 k-point  3 :   0.1538 0.0000-0.0000  plane waves:    3449
 k-point  4 :   0.2308 0.0000-0.0000  plane waves:    3446
 k-point  5 :   0.3077 0.0000-0.0000  plane waves:    3434
 k-point  6 :   0.3846-0.0000 0.0000  plane waves:    3449
 k-point  7 :   0.4615-0.0000 0.0000  plane waves:    3435
 k-point  8 :   0.0769 0.0769-0.0000  plane waves:    3455
 k-point  9 :   0.1538 0.0769-0.0000  plane waves:    3454
 k-point 10 :   0.2308 0.0769-0.0000  plane waves:    3452
 k-point 11 :   0.3077 0.0769-0.0000  plane waves:    3441
 k-point 12 :   0.3846 0.0769-0.0000  plane waves:    3450
 k-point 13 :   0.4615 0.0769-0.0000  plane waves:    3445
 k-point 14 :  -0.4615 0.0769 0.0000  plane waves:    3438
 k-point 15 :  -0.3846 0.0769 0.0000  plane waves:    3443
 k-point 16 :  -0.3077 0.0769-0.0000  plane waves:    3437
 k-point 17 :  -0.2308 0.0769 0.0000  plane waves:    3445
 k-point 18 :  -0.1538 0.0769 0.0000  plane waves:    3457
 k-point 19 :  -0.0769 0.0769-0.0000  plane waves:    3457
 k-point 20 :   0.1538 0.1538-0.0000  plane waves:    3459
 k-point 21 :   0.2308 0.1538-0.0000  plane waves:    3459
 k-point 22 :   0.3077 0.1538-0.0000  plane waves:    3448
 k-point 23 :   0.3846 0.1538-0.0000  plane waves:    3453
 k-point 24 :   0.4615 0.1538-0.0000  plane waves:    3445
 k-point 25 :  -0.4615 0.1538 0.0000  plane waves:    3447
 k-point 26 :  -0.3846 0.1538 0.0000  plane waves:    3445
 k-point 27 :  -0.3077 0.1538-0.0000  plane waves:    3438
 k-point 28 :  -0.2308 0.1538-0.0000  plane waves:    3437
 k-point 29 :  -0.1538 0.1538 0.0000  plane waves:    3447
 k-point 30 :   0.2308 0.2308-0.0000  plane waves:    3471
 k-point 31 :   0.3077 0.2308-0.0000  plane waves:    3451
 k-point 32 :   0.3846 0.2308-0.0000  plane waves:    3445
 k-point 33 :   0.4615 0.2308-0.0000  plane waves:    3446
 k-point 34 :  -0.4615 0.2308-0.0000  plane waves:    3432
 k-point 35 :  -0.3846 0.2308-0.0000  plane waves:    3435
 k-point 36 :  -0.3077 0.2308 0.0000  plane waves:    3441
 k-point 37 :  -0.2308 0.2308 0.0000  plane waves:    3439
 k-point 38 :   0.3077 0.3077-0.0000  plane waves:    3443
 k-point 39 :   0.3846 0.3077-0.0000  plane waves:    3439
 k-point 40 :   0.4615 0.3077-0.0000  plane waves:    3428
 k-point 41 :  -0.4615 0.3077-0.0000  plane waves:    3440
 k-point 42 :  -0.3846 0.3077-0.0000  plane waves:    3436
 k-point 43 :  -0.3077 0.3077 0.0000  plane waves:    3448
 k-point 44 :   0.3846 0.3846-0.0000  plane waves:    3431
 k-point 45 :   0.4615 0.3846-0.0000  plane waves:    3429
 k-point 46 :  -0.4615 0.3846-0.0000  plane waves:    3431
 k-point 47 :  -0.3846 0.3846-0.0000  plane waves:    3432
 k-point 48 :   0.4615 0.4615-0.0000  plane waves:    3426
 k-point 49 :  -0.4615 0.4615-0.0000  plane waves:    3416
 k-point 50 :   0.2308 0.1538 0.0769  plane waves:    3460
 k-point 51 :   0.3077 0.1538 0.0769  plane waves:    3452
 k-point 52 :   0.3846 0.1538 0.0769  plane waves:    3445
 k-point 53 :   0.4615 0.1538 0.0769  plane waves:    3443
 k-point 54 :  -0.4615 0.1538 0.0769  plane waves:    3438
 k-point 55 :   0.3077 0.2308 0.0769  plane waves:    3455
 k-point 56 :   0.3846 0.2308 0.0769  plane waves:    3454
 k-point 57 :   0.4615 0.2308 0.0769  plane waves:    3445
 k-point 58 :  -0.4615 0.2308 0.0769  plane waves:    3433
 k-point 59 :  -0.3846 0.2308 0.0769  plane waves:    3432
 k-point 60 :  -0.3077 0.2308 0.0769  plane waves:    3445
 k-point 61 :  -0.2308 0.2308 0.0769  plane waves:    3447
 k-point 62 :  -0.1538 0.2308 0.0769  plane waves:    3454
 k-point 63 :   0.3846 0.3077 0.0769  plane waves:    3445
 k-point 64 :   0.4615 0.3077 0.0769  plane waves:    3444
 k-point 65 :  -0.4615 0.3077 0.0769  plane waves:    3438
 k-point 66 :  -0.3846 0.3077 0.0769  plane waves:    3427
 k-point 67 :  -0.3077 0.3077 0.0769  plane waves:    3442
 k-point 68 :  -0.2308 0.3077 0.0769  plane waves:    3443
 k-point 69 :   0.4615 0.3846 0.0769  plane waves:    3434
 k-point 70 :  -0.4615 0.3846 0.0769  plane waves:    3430
 k-point 71 :  -0.3846 0.3846 0.0769  plane waves:    3432
 k-point 72 :  -0.3077 0.3846 0.0769  plane waves:    3441
 k-point 73 :  -0.4615 0.4615 0.0769  plane waves:    3423
 k-point 74 :  -0.3846 0.4615 0.0769  plane waves:    3425
 k-point 75 :   0.4615 0.3077 0.1538  plane waves:    3439
 k-point 76 :  -0.4615 0.3077 0.1538  plane waves:    3440
 k-point 77 :  -0.3846 0.3077 0.1538  plane waves:    3436
 k-point 78 :  -0.4615 0.3846 0.1538  plane waves:    3428
 k-point 79 :  -0.3846 0.3846 0.1538  plane waves:    3422
 k-point 80 :  -0.3077 0.3846 0.1538  plane waves:    3429
 k-point 81 :  -0.2308 0.3846 0.1538  plane waves:    3441
 k-point 82 :  -0.3846 0.4615 0.1538  plane waves:    3418
 k-point 83 :  -0.3077 0.4615 0.1538  plane waves:    3428
 k-point 84 :  -0.3077 0.4615 0.2308  plane waves:    3418

 maximum and minimum number of plane-waves per node :       887      836

 maximum number of plane-waves:      3479
 maximum index in each direction:
   IXMAX=   10   IYMAX=   10   IZMAX=   10
   IXMIN=  -10   IYMIN=  -10   IZMIN=  -10


 parallel 3D FFT for wavefunctions:
    minimum data exchange during FFTs selected (reduces bandwidth)
 parallel 3D FFT for charge:
    minimum data exchange during FFTs selected (reduces bandwidth)


 total amount of memory used by VASP MPI-rank0   103167. kBytes
=======================================================================

   base      :      30000. kBytes
   nonl-proj :      56038. kBytes
   fftplans  :       6282. kBytes
   grid      :       3541. kBytes
   one-center:         49. kBytes
   wavefun   :       7257. kBytes

     INWAV:  cpu time    0.0002: real time    0.0042
 Broyden mixing: mesh for mixing (old mesh)
   NGX = 21   NGY = 21   NGZ = 21
  (NGX  = 84   NGY  = 84   NGZ  = 84)
  gives a total of   9261 points

 initial charge density was supplied:
 charge density of overlapping atoms calculated
 number of electron      39.0000000 magnetization
 keeping initial charge density in first step


--------------------------------------------------------------------------------------------------------


 Maximum index for augmentation-charges        29775 (set IRDMAX)


--------------------------------------------------------------------------------------------------------


 First call to EWALD:  gamma=   0.408
 Maximum number of real-space cells 3x 3x 3
 Maximum number of reciprocal cells 3x 3x 3

    FEWALD:  cpu time    0.0063: real time    0.0066


--------------------------------------- Iteration      1(   1)  ---------------------------------------


    POTLOK:  cpu time    0.0543: real time    0.1304
    SETDIJ:  cpu time    0.1006: real time    0.1010
     EDDAV:  cpu time    1.5438: real time    1.5480
       DOS:  cpu time    0.0039: real time    0.0046
    --------------------------------------------
      LOOP:  cpu time    1.7029: real time    1.7845

 eigenvalue-minimisations  :  4032
 total energy-change (2. order) : 0.4271292E+03  (-0.2225856E+04)
 number of electron      39.0000000 magnetization
 augmentation part       39.0000000 magnetization

 Free energy of the ion-electron system (eV)
  ---------------------------------------------------
  alpha Z        PSCENC =       192.24210817
  Ewald energy   TEWEN  =     -3460.09939820
  -Hartree energ DENC   =      -842.15555316
  -exchange      EXHF   =         0.00000000
  -V(xc)+E(xc)   XCENC  =        89.05414550
  PAW double counting   =      3513.29252893    -3436.88002192
  entropy T*S    EENTRO =        -0.00012296
  eigenvalues    EBANDS =       276.32344089
  atomic energy  EATOM  =      4095.35208632
  Solvation  Ediel_sol  =         0.00000000
  ---------------------------------------------------
  free energy    TOTEN  =       427.12921357 eV

  energy without entropy =      427.12933653  energy(sigma->0) =      427.12927505


--------------------------------------------------------------------------------------------------------




--------------------------------------- Iteration      1(   2)  ---------------------------------------


     EDDAV:  cpu time    1.6786: real time    1.7175
       DOS:  cpu time    0.0031: real time    0.0033
    --------------------------------------------
      LOOP:  cpu time    1.6817: real time    1.7225

 eigenvalue-minimisations  :  4656
 total energy-change (2. order) :-0.3995047E+03  (-0.3923434E+03)
 number of electron      39.0000000 magnetization
 augmentation part       39.0000000 magnetization

 Free energy of the ion-electron system (eV)
  ---------------------------------------------------
  alpha Z        PSCENC =       192.24210817
  Ewald energy   TEWEN  =     -3460.09939820
  -Hartree energ DENC   =      -842.15555316
  -exchange      EXHF   =         0.00000000
  -V(xc)+E(xc)   XCENC  =        89.05414550
  PAW double counting   =      3513.29252893    -3436.88002192
  entropy T*S    EENTRO =        -0.00057664
  eigenvalues    EBANDS =      -123.18082595
  atomic energy  EATOM  =      4095.35208632
  Solvation  Ediel_sol  =         0.00000000
  ---------------------------------------------------
  free energy    TOTEN  =        27.62449305 eV

  energy without entropy =       27.62506969  energy(sigma->0) =       27.62478137


--------------------------------------------------------------------------------------------------------




--------------------------------------- Iteration      1(   3)  ---------------------------------------


     EDDAV:  cpu time    1.7783: real time    1.7993
       DOS:  cpu time    0.0032: real time    0.0035
    --------------------------------------------
      LOOP:  cpu time    1.7815: real time    1.8016

 eigenvalue-minimisations  :  5008
 total energy-change (2. order) :-0.4806301E+02  (-0.4699794E+02)
 number of electron      39.0000000 magnetization
 augmentation part       39.0000000 magnetization

 Free energy of the ion-electron system (eV)
  ---------------------------------------------------
  alpha Z        PSCENC =       192.24210817
  Ewald energy   TEWEN  =     -3460.09939820
  -Hartree energ DENC   =      -842.15555316
  -exchange      EXHF   =         0.00000000
  -V(xc)+E(xc)   XCENC  =        89.05414550
  PAW double counting   =      3513.29252893    -3436.88002192
  entropy T*S    EENTRO =        -0.00102898
  eigenvalues    EBANDS =      -171.24338534
  atomic energy  EATOM  =      4095.35208632
  Solvation  Ediel_sol  =         0.00000000
  ---------------------------------------------------
  free energy    TOTEN  =       -20.43851869 eV

  energy without entropy =      -20.43748970  energy(sigma->0) =      -20.43800420


--------------------------------------------------------------------------------------------------------




--------------------------------------- Iteration      1(   4)  ---------------------------------------


     EDDAV:  cpu time    2.5084: real time    2.5399
       DOS:  cpu time    0.0033: real time    0.0035
    --------------------------------------------
      LOOP:  cpu time    2.5116: real time    2.5447

 eigenvalue-minimisations  :  7680
 total energy-change (2. order) :-0.5053062E+01  (-0.5030729E+01)
 number of electron      39.0000000 magnetization
 augmentation part       39.0000000 magnetization

 Free energy of the ion-electron system (eV)
  ---------------------------------------------------
  alpha Z        PSCENC =       192.24210817
  Ewald energy   TEWEN  =     -3460.09939820
  -Hartree energ DENC   =      -842.15555316
  -exchange      EXHF   =         0.00000000
  -V(xc)+E(xc)   XCENC  =        89.05414550
  PAW double counting   =      3513.29252893    -3436.88002192
  entropy T*S    EENTRO =        -0.00144527
  eigenvalues    EBANDS =      -176.29603124
  atomic energy  EATOM  =      4095.35208632
  Solvation  Ediel_sol  =         0.00000000
  ---------------------------------------------------
  free energy    TOTEN  =       -25.49158087 eV

  energy without entropy =      -25.49013560  energy(sigma->0) =      -25.49085824


--------------------------------------------------------------------------------------------------------




--------------------------------------- Iteration      1(   5)  ---------------------------------------


     EDDAV:  cpu time    1.9059: real time    1.9289
       DOS:  cpu time    0.0033: real time    0.0036
    CHARGE:  cpu time    0.3548: real time    0.3556
    MIXING:  cpu time    0.0051: real time    0.0053
    --------------------------------------------
      LOOP:  cpu time    2.2692: real time    2.2918

 eigenvalue-minimisations  :  5496
 total energy-change (2. order) :-0.1809914E+00  (-0.1806208E+00)
 number of electron      39.0000000 magnetization
 augmentation part        9.0899183 magnetization

 Broyden mixing:
  rms(total) = 0.14780E+01    rms(broyden)= 0.14780E+01
  rms(prec ) = 0.45340E+01
  weight for this iteration     100.00

 Free energy of the ion-electron system (eV)
  ---------------------------------------------------
  alpha Z        PSCENC =       192.24210817
  Ewald energy   TEWEN  =     -3460.09939820
  -Hartree energ DENC   =      -842.15555316
  -exchange      EXHF   =         0.00000000
  -V(xc)+E(xc)   XCENC  =        89.05414550
  PAW double counting   =      3513.29252893    -3436.88002192
  entropy T*S    EENTRO =        -0.00130709
  eigenvalues    EBANDS =      -176.47716088
  atomic energy  EATOM  =      4095.35208632
  Solvation  Ediel_sol  =         0.00000000
  ---------------------------------------------------
  free energy    TOTEN  =       -25.67257232 eV

  energy without entropy =      -25.67126524  energy(sigma->0) =      -25.67191878


--------------------------------------------------------------------------------------------------------




--------------------------------------- Iteration      1(   6)  ---------------------------------------


    POTLOK:  cpu time    0.0488: real time    0.0720
    SETDIJ:  cpu time    0.0881: real time    0.0888
     EDDAV:  cpu time    2.0558: real time    2.0560
       DOS:  cpu time    0.0030: real time    0.0034
    CHARGE:  cpu time    0.3087: real time    0.3089
    MIXING:  cpu time    0.0053: real time    0.0055
    --------------------------------------------
      LOOP:  cpu time    2.5095: real time    2.5356

 eigenvalue-minimisations  :  6040
 total energy-change (2. order) :-0.1009972E+02  (-0.2443038E+02)
 number of electron      39.0000000 magnetization
 augmentation part        7.0280812 magnetization

 Broyden mixing:
  rms(total) = 0.22107E+01    rms(broyden)= 0.22107E+01
  rms(prec ) = 0.62916E+01
  weight for this iteration     100.00

 eigenvalues of (default mixing * dielectric matrix)
  average eigenvalue GAMMA=   0.3714
  0.3714

 Free energy of the ion-electron system (eV)
  ---------------------------------------------------
  alpha Z        PSCENC =       192.24210817
  Ewald energy   TEWEN  =     -3460.09939820
  -Hartree energ DENC   =      -855.51576839
  -exchange      EXHF   =         0.00000000
  -V(xc)+E(xc)   XCENC  =        89.78888494
  PAW double counting   =      3737.69886222    -3660.43257338
  entropy T*S    EENTRO =        -0.00026228
  eigenvalues    EBANDS =      -174.80623587
  atomic energy  EATOM  =      4095.35208632
  Solvation  Ediel_sol  =         0.00000000
  ---------------------------------------------------
  free energy    TOTEN  =       -35.77229648 eV

  energy without entropy =      -35.77203420  energy(sigma->0) =      -35.77216534


--------------------------------------------------------------------------------------------------------




--------------------------------------- Iteration      1(   7)  ---------------------------------------


    POTLOK:  cpu time    0.0371: real time    0.0690
    SETDIJ:  cpu time    0.0906: real time    0.0907
     EDDAV:  cpu time    2.0521: real time    2.0524
       DOS:  cpu time    0.0031: real time    0.0034
    CHARGE:  cpu time    0.2887: real time    0.2888
    MIXING:  cpu time    0.0052: real time    0.0054
    --------------------------------------------
      LOOP:  cpu time    2.4767: real time    2.5111

 eigenvalue-minimisations  :  5792
 total energy-change (2. order) : 0.1079109E+02  (-0.2737257E+01)
 number of electron      39.0000000 magnetization
 augmentation part        7.3871969 magnetization

 Broyden mixing:
  rms(total) = 0.11941E+01    rms(broyden)= 0.11941E+01
  rms(prec ) = 0.35855E+01
  weight for this iteration     100.00

 eigenvalues of (default mixing * dielectric matrix)
  average eigenvalue GAMMA=   0.7211
  0.7211  0.7211

 Free energy of the ion-electron system (eV)
  ---------------------------------------------------
  alpha Z        PSCENC =       192.24210817
  Ewald energy   TEWEN  =     -3460.09939820
  -Hartree energ DENC   =      -840.59139414
  -exchange      EXHF   =         0.00000000
  -V(xc)+E(xc)   XCENC  =        89.09146158
  PAW double counting   =      3809.16169089    -3736.33276846
  entropy T*S    EENTRO =        -0.00055644
  eigenvalues    EBANDS =      -173.80443509
  atomic energy  EATOM  =      4095.35208632
  Solvation  Ediel_sol  =         0.00000000
  ---------------------------------------------------
  free energy    TOTEN  =       -24.98120538 eV

  energy without entropy =      -24.98064894  energy(sigma->0) =      -24.98092716


--------------------------------------------------------------------------------------------------------




--------------------------------------- Iteration      1(   8)  ---------------------------------------


    POTLOK:  cpu time    0.0418: real time    0.0690
    SETDIJ:  cpu time    0.0875: real time    0.0876
     EDDAV:  cpu time    2.0239: real time    2.0243
       DOS:  cpu time    0.0032: real time    0.0047
    CHARGE:  cpu time    0.2936: real time    0.2938
    MIXING:  cpu time    0.0059: real time    0.0060
    --------------------------------------------
      LOOP:  cpu time    2.4559: real time    2.4839

 eigenvalue-minimisations  :  6000
 total energy-change (2. order) : 0.5060135E+00  (-0.4517837E+01)
 number of electron      39.0000000 magnetization
 augmentation part        9.2334473 magnetization

 Broyden mixing:
  rms(total) = 0.99169E+00    rms(broyden)= 0.99169E+00
  rms(prec ) = 0.31514E+01
  weight for this iteration     100.00

 eigenvalues of (default mixing * dielectric matrix)
  average eigenvalue GAMMA=   0.8466
  1.5104  0.5147  0.5147

 Free energy of the ion-electron system (eV)
  ---------------------------------------------------
  alpha Z        PSCENC =       192.24210817
  Ewald energy   TEWEN  =     -3460.09939820
  -Hartree energ DENC   =      -827.99529851
  -exchange      EXHF   =         0.00000000
  -V(xc)+E(xc)   XCENC  =        88.55150913
  PAW double counting   =      3827.77681981    -3757.86245130
  entropy T*S    EENTRO =        -0.00153551
  eigenvalues    EBANDS =      -182.43903180
  atomic energy  EATOM  =      4095.35208632
  Solvation  Ediel_sol  =         0.00000000
  ---------------------------------------------------
  free energy    TOTEN  =       -24.47519190 eV

  energy without entropy =      -24.47365639  energy(sigma->0) =      -24.47442414


--------------------------------------------------------------------------------------------------------




--------------------------------------- Iteration      1(   9)  ---------------------------------------


    POTLOK:  cpu time    0.0446: real time    0.0651
    SETDIJ:  cpu time    0.0891: real time    0.0892
     EDDAV:  cpu time    2.0908: real time    2.0913
       DOS:  cpu time    0.0030: real time    0.0032
    CHARGE:  cpu time    0.2961: real time    0.2963
    MIXING:  cpu time    0.0055: real time    0.0055
    --------------------------------------------
      LOOP:  cpu time    2.5290: real time    2.5553

 eigenvalue-minimisations  :  6296
 total energy-change (2. order) : 0.1035104E+01  (-0.1045311E+01)
 number of electron      39.0000000 magnetization
 augmentation part        8.2495672 magnetization

 Broyden mixing:
  rms(total) = 0.19727E+00    rms(broyden)= 0.19727E+00
  rms(prec ) = 0.42174E+00
  weight for this iteration     100.00

 eigenvalues of (default mixing * dielectric matrix)
  average eigenvalue GAMMA=   0.8513
  1.8247  0.5688  0.5688  0.4428

 Free energy of the ion-electron system (eV)
  ---------------------------------------------------
  alpha Z        PSCENC =       192.24210817
  Ewald energy   TEWEN  =     -3460.09939820
  -Hartree energ DENC   =      -833.29416462
  -exchange      EXHF   =         0.00000000
  -V(xc)+E(xc)   XCENC  =        88.80437553
  PAW double counting   =      3912.44211102    -3842.94989471
  entropy T*S    EENTRO =        -0.00161539
  eigenvalues    EBANDS =      -175.93569586
  atomic energy  EATOM  =      4095.35208632
  Solvation  Ediel_sol  =         0.00000000
  ---------------------------------------------------
  free energy    TOTEN  =       -23.44008775 eV

  energy without entropy =      -23.43847236  energy(sigma->0) =      -23.43928005


--------------------------------------------------------------------------------------------------------




--------------------------------------- Iteration      1(  10)  ---------------------------------------


    POTLOK:  cpu time    0.0493: real time    0.0737
    SETDIJ:  cpu time    0.0871: real time    0.0888
     EDDAV:  cpu time    2.0750: real time    2.0753
       DOS:  cpu time    0.0032: real time    0.0034
    CHARGE:  cpu time    0.2907: real time    0.2910
    MIXING:  cpu time    0.0074: real time    0.0075
    --------------------------------------------
      LOOP:  cpu time    2.5130: real time    2.5359

 eigenvalue-minimisations  :  6192
 total energy-change (2. order) :-0.1171433E+00  (-0.1891935E+00)
 number of electron      39.0000000 magnetization
 augmentation part        7.9042602 magnetization

 Broyden mixing:
  rms(total) = 0.28505E+00    rms(broyden)= 0.28505E+00
  rms(prec ) = 0.91158E+00
  weight for this iteration     100.00

 eigenvalues of (default mixing * dielectric matrix)
  average eigenvalue GAMMA=   0.9396
  1.9428  1.0527  0.5103  0.5103  0.6819

 Free energy of the ion-electron system (eV)
  ---------------------------------------------------
  alpha Z        PSCENC =       192.24210817
  Ewald energy   TEWEN  =     -3460.09939820
  -Hartree energ DENC   =      -833.64543685
  -exchange      EXHF   =         0.00000000
  -V(xc)+E(xc)   XCENC  =        88.83872140
  PAW double counting   =      3981.06370635    -3912.30929137
  entropy T*S    EENTRO =        -0.00133572
  eigenvalues    EBANDS =      -174.99839113
  atomic energy  EATOM  =      4095.35208632
  Solvation  Ediel_sol  =         0.00000000
  ---------------------------------------------------
  free energy    TOTEN  =       -23.55723104 eV

  energy without entropy =      -23.55589532  energy(sigma->0) =      -23.55656318


--------------------------------------------------------------------------------------------------------




--------------------------------------- Iteration      1(  11)  ---------------------------------------


    POTLOK:  cpu time    0.0367: real time    0.0638
    SETDIJ:  cpu time    0.0849: real time    0.0850
     EDDAV:  cpu time    2.0286: real time    2.0288
       DOS:  cpu time    0.0032: real time    0.0036
    CHARGE:  cpu time    0.2944: real time    0.2945
    MIXING:  cpu time    0.0058: real time    0.0059
    --------------------------------------------
      LOOP:  cpu time    2.4534: real time    2.4821

 eigenvalue-minimisations  :  5944
 total energy-change (2. order) : 0.1007601E+00  (-0.6368862E-01)
 number of electron      39.0000000 magnetization
 augmentation part        8.1304609 magnetization

 Broyden mixing:
  rms(total) = 0.63942E-01    rms(broyden)= 0.63941E-01
  rms(prec ) = 0.19447E+00
  weight for this iteration     100.00

 eigenvalues of (default mixing * dielectric matrix)
  average eigenvalue GAMMA=   1.0203
  1.8465  1.8465  0.5181  0.5181  0.6964  0.6964

 Free energy of the ion-electron system (eV)
  ---------------------------------------------------
  alpha Z        PSCENC =       192.24210817
  Ewald energy   TEWEN  =     -3460.09939820
  -Hartree energ DENC   =      -831.84672353
  -exchange      EXHF   =         0.00000000
  -V(xc)+E(xc)   XCENC  =        88.76339531
  PAW double counting   =      3975.32573138    -3906.89062896
  entropy T*S    EENTRO =        -0.00186728
  eigenvalues    EBANDS =      -176.30117410
  atomic energy  EATOM  =      4095.35208632
  Solvation  Ediel_sol  =         0.00000000
  ---------------------------------------------------
  free energy    TOTEN  =       -23.45647090 eV

  energy without entropy =      -23.45460362  energy(sigma->0) =      -23.45553726


--------------------------------------------------------------------------------------------------------




--------------------------------------- Iteration      1(  12)  ---------------------------------------


    POTLOK:  cpu time    0.0459: real time    0.0665
    SETDIJ:  cpu time    0.0856: real time    0.0857
     EDDAV:  cpu time    2.4477: real time    2.4482
       DOS:  cpu time    0.0034: real time    0.0036
    CHARGE:  cpu time    0.2973: real time    0.2974
    MIXING:  cpu time    0.0047: real time    0.0048
    --------------------------------------------
      LOOP:  cpu time    2.8846: real time    2.9059

 eigenvalue-minimisations  :  7384
 total energy-change (2. order) : 0.7227764E-04  (-0.1116475E-01)
 number of electron      39.0000000 magnetization
 augmentation part        8.2131609 magnetization

 Broyden mixing:
  rms(total) = 0.45309E-01    rms(broyden)= 0.45309E-01
  rms(prec ) = 0.11812E+00
  weight for this iteration     100.00

 eigenvalues of (default mixing * dielectric matrix)
  average eigenvalue GAMMA=   1.2170
  2.5204  2.5204  0.5181  0.5181  0.8963  0.8963  0.6497

 Free energy of the ion-electron system (eV)
  ---------------------------------------------------
  alpha Z        PSCENC =       192.24210817
  Ewald energy   TEWEN  =     -3460.09939820
  -Hartree energ DENC   =      -831.41092412
  -exchange      EXHF   =         0.00000000
  -V(xc)+E(xc)   XCENC  =        88.74262514
  PAW double counting   =      3974.07989986    -3905.70353703
  entropy T*S    EENTRO =        -0.00207347
  eigenvalues    EBANDS =      -176.65718529
  atomic energy  EATOM  =      4095.35208632
  Solvation  Ediel_sol  =         0.00000000
  ---------------------------------------------------
  free energy    TOTEN  =       -23.45639862 eV

  energy without entropy =      -23.45432515  energy(sigma->0) =      -23.45536189


--------------------------------------------------------------------------------------------------------




--------------------------------------- Iteration      1(  13)  ---------------------------------------


    POTLOK:  cpu time    0.0492: real time    0.0794
    SETDIJ:  cpu time    0.0874: real time    0.0875
     EDDAV:  cpu time    2.2003: real time    2.2006
       DOS:  cpu time    0.0033: real time    0.0035
    CHARGE:  cpu time    0.2982: real time    0.2984
    MIXING:  cpu time    0.0052: real time    0.0053
    --------------------------------------------
      LOOP:  cpu time    2.6435: real time    2.6756

 eigenvalue-minimisations  :  6528
 total energy-change (2. order) :-0.2644550E-02  (-0.9006345E-03)
 number of electron      39.0000000 magnetization
 augmentation part        8.2298772 magnetization

 Broyden mixing:
  rms(total) = 0.58888E-01    rms(broyden)= 0.58888E-01
  rms(prec ) = 0.18179E+00
  weight for this iteration     100.00

 eigenvalues of (default mixing * dielectric matrix)
  average eigenvalue GAMMA=   1.2111
  2.7780  2.0414  1.4128  0.5188  0.5188  0.8887  0.8887  0.6415

 Free energy of the ion-electron system (eV)
  ---------------------------------------------------
  alpha Z        PSCENC =       192.24210817
  Ewald energy   TEWEN  =     -3460.09939820
  -Hartree energ DENC   =      -831.67231583
  -exchange      EXHF   =         0.00000000
  -V(xc)+E(xc)   XCENC  =        88.74622055
  PAW double counting   =      3971.33407468    -3902.83296442
  entropy T*S    EENTRO =        -0.00214461
  eigenvalues    EBANDS =      -176.52670982
  atomic energy  EATOM  =      4095.35208632
  Solvation  Ediel_sol  =         0.00000000
  ---------------------------------------------------
  free energy    TOTEN  =       -23.45904317 eV

  energy without entropy =      -23.45689857  energy(sigma->0) =      -23.45797087


--------------------------------------------------------------------------------------------------------




--------------------------------------- Iteration      1(  14)  ---------------------------------------


    POTLOK:  cpu time    0.0374: real time    0.0718
    SETDIJ:  cpu time    0.0898: real time    0.0899
     EDDAV:  cpu time    2.0730: real time    2.0733
       DOS:  cpu time    0.0033: real time    0.0035
    CHARGE:  cpu time    0.2961: real time    0.2962
    MIXING:  cpu time    0.0059: real time    0.0061
    --------------------------------------------
      LOOP:  cpu time    2.5054: real time    2.5393

 eigenvalue-minimisations  :  6056
 total energy-change (2. order) : 0.3778068E-02  (-0.4230447E-02)
 number of electron      39.0000000 magnetization
 augmentation part        8.1694252 magnetization

 Broyden mixing:
  rms(total) = 0.94866E-02    rms(broyden)= 0.94865E-02
  rms(prec ) = 0.28169E-01
  weight for this iteration     100.00

 eigenvalues of (default mixing * dielectric matrix)
  average eigenvalue GAMMA=   1.1925
  2.6506  2.1602  1.2688  1.2688  0.5187  0.5187  0.8538  0.8538  0.6394

 Free energy of the ion-electron system (eV)
  ---------------------------------------------------
  alpha Z        PSCENC =       192.24210817
  Ewald energy   TEWEN  =     -3460.09939820
  -Hartree energ DENC   =      -832.15046588
  -exchange      EXHF   =         0.00000000
  -V(xc)+E(xc)   XCENC  =        88.76482964
  PAW double counting   =      3977.37553866    -3908.78746081
  entropy T*S    EENTRO =        -0.00201124
  eigenvalues    EBANDS =      -176.15049176
  atomic energy  EATOM  =      4095.35208632
  Solvation  Ediel_sol  =         0.00000000
  ---------------------------------------------------
  free energy    TOTEN  =       -23.45526511 eV

  energy without entropy =      -23.45325386  energy(sigma->0) =      -23.45425948


--------------------------------------------------------------------------------------------------------




--------------------------------------- Iteration      1(  15)  ---------------------------------------


    POTLOK:  cpu time    0.0366: real time    0.0689
    SETDIJ:  cpu time    0.0869: real time    0.0870
     EDDAV:  cpu time    2.2882: real time    2.2886
       DOS:  cpu time    0.0033: real time    0.0039
    CHARGE:  cpu time    0.2956: real time    0.2957
    MIXING:  cpu time    0.0056: real time    0.0057
    --------------------------------------------
      LOOP:  cpu time    2.7162: real time    2.7495

 eigenvalue-minimisations  :  7000
 total energy-change (2. order) : 0.2437993E-04  (-0.1944586E-03)
 number of electron      39.0000000 magnetization
 augmentation part        8.1794643 magnetization

 Broyden mixing:
  rms(total) = 0.21129E-02    rms(broyden)= 0.21129E-02
  rms(prec ) = 0.33206E-02
  weight for this iteration     100.00

 eigenvalues of (default mixing * dielectric matrix)
  average eigenvalue GAMMA=   1.1878
  2.8540  2.0917  1.3559  1.3559  0.5187  0.5187  0.9560  0.9560  0.6577  0.6133

 Free energy of the ion-electron system (eV)
  ---------------------------------------------------
  alpha Z        PSCENC =       192.24210817
  Ewald energy   TEWEN  =     -3460.09939820
  -Hartree energ DENC   =      -832.06961881
  -exchange      EXHF   =         0.00000000
  -V(xc)+E(xc)   XCENC  =        88.76171280
  PAW double counting   =      3977.09247581    -3908.50106263
  entropy T*S    EENTRO =        -0.00204519
  eigenvalues    EBANDS =      -176.23149899
  atomic energy  EATOM  =      4095.35208632
  Solvation  Ediel_sol  =         0.00000000
  ---------------------------------------------------
  free energy    TOTEN  =       -23.45524073 eV

  energy without entropy =      -23.45319554  energy(sigma->0) =      -23.45421813


--------------------------------------------------------------------------------------------------------




--------------------------------------- Iteration      1(  16)  ---------------------------------------


    POTLOK:  cpu time    0.0369: real time    0.0695
    SETDIJ:  cpu time    0.0890: real time    0.0892
     EDDAV:  cpu time    2.0784: real time    2.0788
       DOS:  cpu time    0.0031: real time    0.0034
    CHARGE:  cpu time    0.2958: real time    0.2961
    MIXING:  cpu time    0.0063: real time    0.0107
    --------------------------------------------
      LOOP:  cpu time    2.5094: real time    2.5489

 eigenvalue-minimisations  :  6144
 total energy-change (2. order) :-0.9719249E-05  (-0.8278529E-05)
 number of electron      39.0000000 magnetization
 augmentation part        8.1810120 magnetization

 Broyden mixing:
  rms(total) = 0.19973E-02    rms(broyden)= 0.19973E-02
  rms(prec ) = 0.62715E-02
  weight for this iteration     100.00

 eigenvalues of (default mixing * dielectric matrix)
  average eigenvalue GAMMA=   1.2497
  2.7765  2.1429  1.7207  1.7207  0.5187  0.5187  1.0353  1.0353  0.6389  0.8195
  0.8195

 Free energy of the ion-electron system (eV)
  ---------------------------------------------------
  alpha Z        PSCENC =       192.24210817
  Ewald energy   TEWEN  =     -3460.09939820
  -Hartree energ DENC   =      -832.06049206
  -exchange      EXHF   =         0.00000000
  -V(xc)+E(xc)   XCENC  =        88.76159717
  PAW double counting   =      3977.21589071    -3908.62835188
  entropy T*S    EENTRO =        -0.00204587
  eigenvalues    EBANDS =      -176.23664480
  atomic energy  EATOM  =      4095.35208632
  Solvation  Ediel_sol  =         0.00000000
  ---------------------------------------------------
  free energy    TOTEN  =       -23.45525044 eV

  energy without entropy =      -23.45320458  energy(sigma->0) =      -23.45422751


--------------------------------------------------------------------------------------------------------




--------------------------------------- Iteration      1(  17)  ---------------------------------------


    POTLOK:  cpu time    0.0364: real time    0.0672
    SETDIJ:  cpu time    0.0885: real time    0.0886
     EDDAV:  cpu time    2.1691: real time    2.1694
       DOS:  cpu time    0.0032: real time    0.0035
    CHARGE:  cpu time    0.2923: real time    0.2924
    MIXING:  cpu time    0.0089: real time    0.0090
    --------------------------------------------
      LOOP:  cpu time    2.5983: real time    2.6309

 eigenvalue-minimisations  :  6568
 total energy-change (2. order) : 0.6869577E-05  (-0.5785014E-05)
 number of electron      39.0000000 magnetization
 augmentation part        8.1791280 magnetization

 Broyden mixing:
  rms(total) = 0.30751E-03    rms(broyden)= 0.30741E-03
  rms(prec ) = 0.61103E-03
  weight for this iteration     100.00

 eigenvalues of (default mixing * dielectric matrix)
  average eigenvalue GAMMA=   1.2375
  2.7854  2.1548  1.9197  0.5187  0.5187  1.3502  1.2306  1.2306  0.8896  0.8896
  0.6371  0.7246

 Free energy of the ion-electron system (eV)
  ---------------------------------------------------
  alpha Z        PSCENC =       192.24210817
  Ewald energy   TEWEN  =     -3460.09939820
  -Hartree energ DENC   =      -832.04632621
  -exchange      EXHF   =         0.00000000
  -V(xc)+E(xc)   XCENC  =        88.76187663
  PAW double counting   =      3977.59129209    -3909.01610815
  entropy T*S    EENTRO =        -0.00204168
  eigenvalues    EBANDS =      -176.23873254
  atomic energy  EATOM  =      4095.35208632
  Solvation  Ediel_sol  =         0.00000000
  ---------------------------------------------------
  free energy    TOTEN  =       -23.45524358 eV

  energy without entropy =      -23.45320190  energy(sigma->0) =      -23.45422274


--------------------------------------------------------------------------------------------------------




--------------------------------------- Iteration      1(  18)  ---------------------------------------


    POTLOK:  cpu time    0.0428: real time    0.0646
    SETDIJ:  cpu time    0.0885: real time    0.0886
     EDDAV:  cpu time    2.0316: real time    2.0319
       DOS:  cpu time    0.0032: real time    0.0035
    CHARGE:  cpu time    0.2973: real time    0.2975
    MIXING:  cpu time    0.0058: real time    0.0059
    --------------------------------------------
      LOOP:  cpu time    2.4692: real time    2.4904

 eigenvalue-minimisations  :  6000
 total energy-change (2. order) :-0.1073922E-06  (-0.2898563E-06)
 number of electron      39.0000000 magnetization
 augmentation part        8.1794142 magnetization

 Broyden mixing:
  rms(total) = 0.23851E-03    rms(broyden)= 0.23839E-03
  rms(prec ) = 0.60348E-03
  weight for this iteration     100.00

 eigenvalues of (default mixing * dielectric matrix)
  average eigenvalue GAMMA=   1.3272
  2.8336  2.7086  2.0323  1.6216  1.6216  0.5187  0.5187  1.0889  1.0889  0.6387
  0.8356  0.8356  0.9107

 Free energy of the ion-electron system (eV)
  ---------------------------------------------------
  alpha Z        PSCENC =       192.24210817
  Ewald energy   TEWEN  =     -3460.09939820
  -Hartree energ DENC   =      -832.04345834
  -exchange      EXHF   =         0.00000000
  -V(xc)+E(xc)   XCENC  =        88.76178414
  PAW double counting   =      3977.72229810    -3909.14683701
  entropy T*S    EENTRO =        -0.00204313
  eigenvalues    EBANDS =      -176.24178372
  atomic energy  EATOM  =      4095.35208632
  Solvation  Ediel_sol  =         0.00000000
  ---------------------------------------------------
  free energy    TOTEN  =       -23.45524368 eV

  energy without entropy =      -23.45320056  energy(sigma->0) =      -23.45422212


--------------------------------------------------------------------------------------------------------




[...]
  212              fftbas_plan_mpi                       0.079836                     12   6
  213                dfftw_execute                         0.034356                   36   7
  214                map_backward                          0.004864                   12   7
  215                  map_gather                            0.001237                  6   8
  216                  m_alltoallv_z                         0.002183                  6   8
  217                  map_scatter                           0.001151                  6   8
  218                map_forward                           0.037319                   12   7
  219                  map_gather                            0.019357                  6   8
  220                  m_alltoallv_z                         0.005976                  6   8
  221                  map_scatter                           0.011680                  6   8
  222            M_sumb_d                              0.010576                        6   5
  223          M_sumb_d                              0.000029                          1   4
  224        setdij_                               1.482842                           20   3
  225          fft3d_mpi                             0.286294                         40   4
  226            fftbas_plan_mpi                       0.265250                       40   5
  227              dfftw_execute                         0.116567                    120   6
  228              map_backward                          0.018807                     40   6
  229                map_gather                            0.004173                   20   7
  230                m_alltoallv_z                         0.009992                   20   7
  231                map_scatter                           0.003668                   20   7
  232              map_forward                           0.119334                     40   6
  233                map_gather                            0.059582                   20   7
  234                m_alltoallv_z                         0.019843                   20   7
  235                map_scatter                           0.038945                   20   7
  236          M_sumb_d                              0.029884                         20   4
  237        set_dd_magatom                        0.000003                            1   3
  238        set_dd_paw                            0.008945                            1   3
  239          set_rsgf_all                          0.000004                          1   4
  240          M_sumb_d                              0.008786                          8   4
  241        strkin                                0.001065                            1   3
  242          M_sumb_d                              0.000396                          1   4
  243        strelo                                0.003134                            1   3
  244          M_sumb_d                              0.000242                          2   4
  245        strenl                                1.196407                            1   3
  246          spher                                 0.883836                         19   4
  247          phase                                 0.013988                        189   4
  248          proj1                                 0.273215                       1134   4
  249            crexp_mul_wave                        0.034517                     3402   5
  250            M_sumb_d                              0.084128                     1134   5
  251          M_sumb_d                              0.001923                          1   4
  252        M_sumb_d                              0.000210                            6   3
  253        fft3d_mpi                             0.017267                           11   3
  254          fftbas_plan_mpi                       0.015958                         11   4
  255            dfftw_execute                         0.006218                       33   5
  256            map_forward                           0.003219                       10   5
  257              map_gather                            0.000634                      5   6
  258              m_alltoallv_z                         0.001246                      5   6
  259              map_scatter                           0.001102                      5   6
  260            map_backward                          0.004190                       12   5
  261              map_gather                            0.001297                      6   6
  262              m_alltoallv_z                         0.001460                      6   6
  263              map_scatter                           0.001146                      6   6
  264        ggaall_grid                           0.002047                            1   3
  265        forhar                                0.007312                            2   3
  266          M_sumb_d                              0.000186                          2   4
  267        strehar                               0.003189                            1   3
  268          M_sumb_d                              0.000172                          1   4
  269        chggra                                0.007003                            1   3
  270          fft3d_mpi                             0.004757                          3   4
  271            fftbas_plan_mpi                       0.004402                        3   5
  272              dfftw_execute                         0.001779                      9   6
  273              map_backward                          0.000660                      2   6
  274                map_gather                            0.000190                    1   7
  275                m_alltoallv_z                         0.000238                    1   7
  276                map_scatter                           0.000178                    1   7
  277              map_forward                           0.001286                      4   6
  278                map_gather                            0.000266                    2   7
  279                m_alltoallv_z                         0.000502                    2   7
  280                map_scatter                           0.000412                    2   7
  281          M_sumb_d                              0.000129                          3   4
  282        brmix                                 0.009226                            1   3
  283          M_sumb_d                              0.000245                          6   4
  284          brpre                                 0.000055                          1   4
  285          setg0                                 0.001679                          1   4
  286          broyd                                 0.002838                          1   4
  287            M_sumb_d                              0.000561                       21   5
  288            brget                                 0.000443                       79   5
  289            brsav                                 0.000099                       19   5
  290          M_bcast_z                             0.003262                          1   4
  291          M_bcast_d                             0.000039                          1   4
  292        M_bcast_d                             0.000088                            2   3
  293      potlok                                0.030379                              1   2
  294        fft3d_mpi                             0.020299                           13   3
  295          fftbas_plan_mpi                       0.018782                         13   4
  296            dfftw_execute                         0.007084                       39   5
  297            map_forward                           0.004432                       14   5
  298              map_gather                            0.000810                      8   6
  299              m_alltoallv_z                         0.001890                      8   6
  300              map_scatter                           0.001380                      8   6
  301            map_backward                          0.004573                       12   5
  302              map_gather                            0.001400                      6   6
  303              m_alltoallv_z                         0.001768                      6   6
  304              map_scatter                           0.001111                      6   6
  305        ggaall_grid                           0.002075                            1   3
  306        M_sumb_d                              0.000237                            6   3
  307        M_bcast_d                             0.000107                            1   3
  308      potlok_metagga                        0.000005                              1   2
  309      set_dd_magatom                        0.000004                              1   2
  310      set_dd_paw                            0.000475                              1   2
  311        set_rsgf_all                          0.000004                            1   3
  312        M_sumb_d                              0.000280                            8   3
  313      densta                                0.002501                              1   2
  314        M_sumb_d                              0.000875                           43   3
  315      lprj_proall                           0.000008                              1   2

 Flat profile
 ============

             routine name                   CPU           calls
 ---------------------------------------------------------------
 total_time                             14.127782           1
 dfftw_execute                           7.536204       62802
 eddav                                   6.614283          19
 fftbas_plan_mpi                         4.623576       20936
 M_sumb_d                                3.470991       57189
 setdij_                                 2.601413          43
 set_charge                              2.488889          15
 m_alltoallv_z                           2.221318       20965
 pdssyex_zheevx                          1.780132         399
 elmin                                   1.624441           1
 M_alltoall_d                            1.552740       69048
 proj1                                   1.252119        8298
 orth1                                   1.207471       14169
 gemm                                    1.159991       28296
 vhamil                                  1.134128        9432
 spher                                   1.024709          20
 fftwav_mpi                              0.939239       11163
 map_forward                             0.929691       22652
 map_gather                              0.844282       20965
 map_scatter                             0.837739       20965
 vnlac0                                  0.638032        9432
 redis_pw                                0.592357       26742
 M_bcast_z                               0.555969        7273
 hamiltmu                                0.522984        4716
 redis_proj                              0.517269       33801
 w1_copy                                 0.423997       28296
 work_mul_crexp                          0.358162       28296
 fft3d_mpi                               0.345982       20934
 map_backward                            0.335042       19216
 fftext_mpi                              0.321767        9432
 crpa_reader                             0.318874           1
 crexp_mul_wave                          0.267359       24894
 eccp                                    0.244959        2394
 kinhamil                                0.198056        9432
 overl                                   0.183295       16491
 M_bcast_d                               0.152874        4754
 pw_charge                               0.133437        1731
 potlok                                  0.128480          16
 overl1                                  0.115181        9432
 apply_precond                           0.103791        7038
 force_and_stress                        0.082702           1
 setup_precond                           0.080859        2394
 w1_projall                              0.077685        3519
 lincom                                  0.077148         420
 fornl                                   0.052090           1
 phase                                   0.046461         631
 soft_charge                             0.044223          15
 truncate_high_frequency_w1              0.040575       11826
 ggaall_grid                             0.034916          17
 densta                                  0.032604          20
 brmix                                   0.024868          15
 strenl                                  0.023445           1
 setg0                                   0.020874          16
 broyd                                   0.018420          15
 forhar                                  0.007126           2
 depsum                                  0.006639          15
 brget                                   0.003571         654
 forloc                                  0.003443           1
 set_dd_paw                              0.003179          17
 strehar                                 0.003017           1
 strelo                                  0.002892           1
 chggra                                  0.002117           1
 orthch                                  0.002062           1
 choleski                                0.001805          21
 proj                                    0.001573          21
 brgrid                                  0.001426           1
 brsav                                   0.001399         182
 brpre                                   0.000864          15
 strkin                                  0.000669           1
 fordep                                  0.000132           1
 vectorpot                               0.000085          16
 set_rsgf_all                            0.000077          17
 potlok_metagga                          0.000065          16
 set_dd_magatom                          0.000062          17
 set_kineden                             0.000051          14
 rotate_active_occupied_orbital          0.000014           1
 lprj_proall                             0.000008           1
 redis_pw_over_bands                     0.000003           1
 ---------------------------------------------------------------
  summed up times    65.1281518936157

 Accumulative profile
 ====================

             routine name                   CPU           calls
 ---------------------------------------------------------------
 total_time                             65.128152           1
 elmin                                  46.204445           1
 eddav                                  38.461763          19
 fft3d_mpi                              17.645558       20934
 fftbas_plan_mpi                        17.327852       20936
 hamiltmu                               12.218380        4716
 fftwav_mpi                             10.122868       11163
 kinhamil                                7.704952        9432
 dfftw_execute                           7.536204       62802
 fftext_mpi                              7.506896        9432
 set_charge                              4.498757          15
 force_and_stress                        3.655630           1
 M_sumb_d                                3.470991       57189
 setdij_                                 3.325412          43
 map_forward                             3.146231       22652
 vnlac0                                  2.741135        9432
 m_alltoallv_z                           2.221318       20965
 proj1                                   2.120258        8298
 map_backward                            2.021841       19216
 w1_projall                              1.895225        3519
 pdssyex_zheevx                          1.780132         399
 soft_charge                             1.721389          15
 M_alltoall_d                            1.552740       69048
 redis_pw                                1.455133       26742
 orth1                                   1.207471       14169
 redis_proj                              1.207233       33801
 strenl                                  1.196407           1
 gemm                                    1.159991       28296
 vhamil                                  1.134128        9432
 spher                                   1.024709          20
 map_gather                              0.844282       20965
 map_scatter                             0.837739       20965
 M_bcast_z                               0.555969        7273
 potlok                                  0.492247          16
 fordep                                  0.457034           1
 w1_copy                                 0.423997       28296
 eccp                                    0.383119        2394
 work_mul_crexp                          0.358162       28296
 crpa_reader                             0.318874           1
 crexp_mul_wave                          0.267359       24894
 set_dd_paw                              0.183415          17
 overl                                   0.183295       16491
 M_bcast_d                               0.152874        4754
 setup_precond                           0.141987        2394
 pw_charge                               0.133437        1731
 overl1                                  0.115181        9432
 apply_precond                           0.103791        7038
 brmix                                   0.093220          15
 lincom                                  0.077148         420
 fornl                                   0.069215           1
 densta                                  0.048523          20
 phase                                   0.046461         631
 truncate_high_frequency_w1              0.040575       11826
 ggaall_grid                             0.034916          17
 orthch                                  0.032401           1
 proj                                    0.031076          21
 broyd                                   0.029581          15
 setg0                                   0.020874          16
 depsum                                  0.011526          15
 forhar                                  0.007312           2
 chggra                                  0.007003           1
 brget                                   0.003571         654
 forloc                                  0.003502           1
 strehar                                 0.003189           1
 strelo                                  0.003134           1
 choleski                                0.001805          21
 brgrid                                  0.001426           1
 brsav                                   0.001399         182
 strkin                                  0.001065           1
 brpre                                   0.000864          15
 vectorpot                               0.000085          16
 set_rsgf_all                            0.000077          17
 potlok_metagga                          0.000065          16
 set_dd_magatom                          0.000062          17
 set_kineden                             0.000051          14
 rotate_active_occupied_orbital          0.000014           1
 lprj_proall                             0.000008           1
 redis_pw_over_bands                     0.000003           1
 ---------------------------------------------------------------

Profiling took   1.652018  1.992580  0.005715  0.004320 seconds
Profiling took   1.620374 seconds
