 ----------------------------------------------------
    OOO  PPPP  EEEEE N   N M   M PPPP
   O   O P   P E     NN  N MM MM P   P
   O   O PPPP  EEEEE N N N M M M PPPP   -- VERSION
   O   O P     E     N  NN M   M P
    OOO  P     EEEEE N   N M   M P
 ----------------------------------------------------
 running   64 mpi-ranks, with    1 threads/rank
 distrk:  each k-point on   16 cores,    4 groups
 distr:  one band on    4 cores,    4 groups
 using from now: INCAR
 vasp.6.0.8 29Jun18 (build Jun 13 2019 12:54:44) complex

 POSCAR found type information on POSCAR  U  Bi Pt
 POSCAR found :  3 types and       3 ions
 scaLAPACK will be used
 WARNING: PSMAXN for non-local potential too small

 -----------------------------------------------------------------------------
|                                                                             |
|  ADVICE TO THIS USER RUNNING 'VASP/VAMP'   (HEAR YOUR MASTER'S VOICE ...):  |
|                                                                             |
|      You enforced a specific xc-type in the INCAR file,                     |
|      a different type was found on the POTCAR file                          |
|          I HOPE YOU KNOW, WHAT YOU ARE  DOING                               |
|                                                                             |
 -----------------------------------------------------------------------------

 LDA part: xc-table for Pade appr. of Perdew
 POSCAR, INCAR and KPOINTS ok, starting setup
 FFT: planning ...
 WAVECAR not read
 entering main loop
       N       E                     dE             d eps       ncg     rms          rms(c)
 ELPA: falling back to scaLAPACK
 ELPA: falling back to scaLAPACK
 ELPA: falling back to scaLAPACK
 ELPA: falling back to scaLAPACK
DAV:   1     0.427129213572E+03    0.42713E+03   -0.22259E+04  4032   0.225E+03
DAV:   2     0.276244930510E+02   -0.39950E+03   -0.39234E+03  4656   0.493E+02
DAV:   3    -0.204385186874E+02   -0.48063E+02   -0.46998E+02  5008   0.173E+02
DAV:   4    -0.254915808747E+02   -0.50531E+01   -0.50307E+01  7680   0.443E+01
DAV:   5    -0.256725723214E+02   -0.18099E+00   -0.18062E+00  5496   0.719E+00    0.148E+01
DAV:   6    -0.357722964796E+02   -0.10100E+02   -0.24430E+02  6040   0.955E+01    0.221E+01
DAV:   7    -0.249812053830E+02    0.10791E+02   -0.27373E+01  5792   0.283E+01    0.119E+01
DAV:   8    -0.244751918953E+02    0.50601E+00   -0.45178E+01  6000   0.244E+01    0.992E+00
DAV:   9    -0.234400877495E+02    0.10351E+01   -0.10453E+01  6296   0.180E+01    0.197E+00
DAV:  10    -0.235572310393E+02   -0.11714E+00   -0.18919E+00  6192   0.547E+00    0.285E+00
DAV:  11    -0.234564709005E+02    0.10076E+00   -0.63689E-01  5944   0.348E+00    0.639E-01
DAV:  12    -0.234563986229E+02    0.72278E-04   -0.11165E-01  7384   0.127E+00    0.453E-01
DAV:  13    -0.234590431732E+02   -0.26446E-02   -0.90063E-03  6528   0.368E-01    0.589E-01
DAV:  14    -0.234552651054E+02    0.37781E-02   -0.42304E-02  6056   0.909E-01    0.949E-02
DAV:  15    -0.234552407254E+02    0.24380E-04   -0.19446E-03  7000   0.229E-01    0.211E-02
DAV:  16    -0.234552504447E+02   -0.97192E-05   -0.82785E-05  6144   0.353E-02    0.200E-02
DAV:  17    -0.234552435751E+02    0.68696E-05   -0.57850E-05  6568   0.347E-02    0.308E-03
DAV:  18    -0.234552436825E+02   -0.10739E-06   -0.28986E-06  6000   0.962E-03    0.239E-03
DAV:  19    -0.234552437416E+02   -0.59086E-07   -0.14350E-07  3712   0.224E-03
   1 F= -.23455244E+02 E0= -.23454222E+02  d E =-.204358E-02
