<?xml version="1.0" encoding="ISO-8859-1"?>
<modeling>
 <generator>
  <i name="program" type="string">vasp </i>
  <i name="version" type="string">6.0.8  </i>
  <i name="subversion" type="string">29Jun18 (build Jun 13 2019 12:54:44) complex                          parallel </i>
  <i name="platform" type="string">IFC18_CrayMPICH </i>
  <i name="date" type="string">2021 12 05 </i>
  <i name="time" type="string">14:21:49 </i>
 </generator>
 <incar>
  <i type="int" name="KPAR">     4</i>
  <i type="int" name="NPAR">     4</i>
  <i type="int" name="ISTART">     0</i>
  <i type="string" name="PREC"> ACC</i>
  <i type="string" name="ALGO"> Normal</i>
  <i type="logical" name="ADDGRID"> T  </i>
  <i type="int" name="ISPIN">     1</i>
  <i type="int" name="NELMIN">     5</i>
  <i type="int" name="IBRION">    -1</i>
  <i name="EDIFF">      0.00000010</i>
  <i type="int" name="NSW">     0</i>
  <i type="int" name="ISIF">     3</i>
  <i name="ENCUT">    700.00000000</i>
  <i type="logical" name="LREAL"> F  </i>
  <i type="int" name="ISMEAR">     0</i>
  <i name="SIGMA">      0.01000000</i>
  <i type="logical" name="LWAVE"> F  </i>
  <i type="logical" name="LCHARG"> F  </i>
  <i type="logical" name="LVTOT"> F  </i>
  <i type="string" name="ALGO"> Normal</i>
  <i type="string" name="GGA"> PS</i>
  <i name="EDIFF">      0.00000010</i>
  <i type="int" name="ISPIN">     1</i>
 </incar>
 <structure name="primitive_cell" >
  <crystal>
   <varray name="basis" >
    <v>       0.00000000       3.44536626       3.44536626 </v>
    <v>       3.44536626       0.00000000       3.44536626 </v>
    <v>       3.44536626       3.44536626       0.00000000 </v>
   </varray>
   <i name="volume">     81.79677607 </i>
   <varray name="rec_basis" >
    <v>      -0.14512245       0.14512245       0.14512245 </v>
    <v>       0.14512245      -0.14512245       0.14512245 </v>
    <v>       0.14512245       0.14512245      -0.14512245 </v>
   </varray>
  </crystal>
  <varray name="positions" >
   <v>       0.25000000       0.25000000       0.25000000 </v>
   <v>       0.75000000       0.75000000       0.75000000 </v>
   <v>       0.00000000       0.00000000       0.00000000 </v>
  </varray>
 </structure>
 <varray name="primitive_index" >
  <v type="int" >        1 </v>
  <v type="int" >        2 </v>
  <v type="int" >        3 </v>
 </varray>
 <kpoints>
  <generation param="Gamma">
   <v type="int" name="divisions">      13       13       13 </v>
   <v name="usershift">      0.00000000       0.00000000       0.00000000 </v>
   <v name="genvec1">      0.07692308      -0.00000000       0.00000000 </v>
   <v name="genvec2">     -0.00000000       0.07692308      -0.00000000 </v>
   <v name="genvec3">      0.00000000       0.00000000       0.07692308 </v>
   <v name="shift">      0.00000000       0.00000000       0.00000000 </v>
  </generation>
  <varray name="kpointlist" >
   <v>       0.00000000       0.00000000       0.00000000 </v>
   <v>       0.07692308      -0.00000000      -0.00000000 </v>
   <v>       0.15384615       0.00000000      -0.00000000 </v>
   <v>       0.23076923       0.00000000      -0.00000000 </v>
   <v>       0.30769231       0.00000000      -0.00000000 </v>
   <v>       0.38461538      -0.00000000       0.00000000 </v>
   <v>       0.46153846      -0.00000000       0.00000000 </v>
   <v>       0.07692308       0.07692308      -0.00000000 </v>
   <v>       0.15384615       0.07692308      -0.00000000 </v>
   <v>       0.23076923       0.07692308      -0.00000000 </v>
   <v>       0.30769231       0.07692308      -0.00000000 </v>
   <v>       0.38461538       0.07692308      -0.00000000 </v>
   <v>       0.46153846       0.07692308      -0.00000000 </v>
   <v>      -0.46153846       0.07692308       0.00000000 </v>
   <v>      -0.38461538       0.07692308       0.00000000 </v>
   <v>      -0.30769231       0.07692308      -0.00000000 </v>
   <v>      -0.23076923       0.07692308       0.00000000 </v>
   <v>      -0.15384615       0.07692308       0.00000000 </v>
   <v>      -0.07692308       0.07692308      -0.00000000 </v>
   <v>       0.15384615       0.15384615      -0.00000000 </v>
   <v>       0.23076923       0.15384615      -0.00000000 </v>
   <v>       0.30769231       0.15384615      -0.00000000 </v>
   <v>       0.38461538       0.15384615      -0.00000000 </v>
   <v>       0.46153846       0.15384615      -0.00000000 </v>
   <v>      -0.46153846       0.15384615       0.00000000 </v>
   <v>      -0.38461538       0.15384615       0.00000000 </v>
   <v>      -0.30769231       0.15384615      -0.00000000 </v>
   <v>      -0.23076923       0.15384615      -0.00000000 </v>
   <v>      -0.15384615       0.15384615       0.00000000 </v>
   <v>       0.23076923       0.23076923      -0.00000000 </v>
   <v>       0.30769231       0.23076923      -0.00000000 </v>
   <v>       0.38461538       0.23076923      -0.00000000 </v>
   <v>       0.46153846       0.23076923      -0.00000000 </v>
   <v>      -0.46153846       0.23076923      -0.00000000 </v>
   <v>      -0.38461538       0.23076923      -0.00000000 </v>
   <v>      -0.30769231       0.23076923       0.00000000 </v>
   <v>      -0.23076923       0.23076923       0.00000000 </v>
   <v>       0.30769231       0.30769231      -0.00000000 </v>
   <v>       0.38461538       0.30769231      -0.00000000 </v>
   <v>       0.46153846       0.30769231      -0.00000000 </v>
   <v>      -0.46153846       0.30769231      -0.00000000 </v>
   <v>      -0.38461538       0.30769231      -0.00000000 </v>
   <v>      -0.30769231       0.30769231       0.00000000 </v>
   <v>       0.38461538       0.38461538      -0.00000000 </v>
   <v>       0.46153846       0.38461538      -0.00000000 </v>
   <v>      -0.46153846       0.38461538      -0.00000000 </v>
   <v>      -0.38461538       0.38461538      -0.00000000 </v>
   <v>       0.46153846       0.46153846      -0.00000000 </v>
   <v>      -0.46153846       0.46153846      -0.00000000 </v>
   <v>       0.23076923       0.15384615       0.07692308 </v>
   <v>       0.30769231       0.15384615       0.07692308 </v>
   <v>       0.38461538       0.15384615       0.07692308 </v>
   <v>       0.46153846       0.15384615       0.07692308 </v>
   <v>      -0.46153846       0.15384615       0.07692308 </v>
   <v>       0.30769231       0.23076923       0.07692308 </v>
   <v>       0.38461538       0.23076923       0.07692308 </v>
   <v>       0.46153846       0.23076923       0.07692308 </v>
   <v>      -0.46153846       0.23076923       0.07692308 </v>
   <v>      -0.38461538       0.23076923       0.07692308 </v>
   <v>      -0.30769231       0.23076923       0.07692308 </v>
   <v>      -0.23076923       0.23076923       0.07692308 </v>
   <v>      -0.15384615       0.23076923       0.07692308 </v>
   <v>       0.38461538       0.30769231       0.07692308 </v>
   <v>       0.46153846       0.30769231       0.07692308 </v>
   <v>      -0.46153846       0.30769231       0.07692308 </v>
   <v>      -0.38461538       0.30769231       0.07692308 </v>
   <v>      -0.30769231       0.30769231       0.07692308 </v>
   <v>      -0.23076923       0.30769231       0.07692308 </v>
   <v>       0.46153846       0.38461538       0.07692308 </v>
   <v>      -0.46153846       0.38461538       0.07692308 </v>
   <v>      -0.38461538       0.38461538       0.07692308 </v>
   <v>      -0.30769231       0.38461538       0.07692308 </v>
   <v>      -0.46153846       0.46153846       0.07692308 </v>
   <v>      -0.38461538       0.46153846       0.07692308 </v>
   <v>       0.46153846       0.30769231       0.15384615 </v>
   <v>      -0.46153846       0.30769231       0.15384615 </v>
   <v>      -0.38461538       0.30769231       0.15384615 </v>
   <v>      -0.46153846       0.38461538       0.15384615 </v>
   <v>      -0.38461538       0.38461538       0.15384615 </v>
   <v>      -0.30769231       0.38461538       0.15384615 </v>
   <v>      -0.23076923       0.38461538       0.15384615 </v>
   <v>      -0.38461538       0.46153846       0.15384615 </v>
   <v>      -0.30769231       0.46153846       0.15384615 </v>
   <v>      -0.30769231       0.46153846       0.23076923 </v>
  </varray>
  <varray name="weights" >
   <v>       0.00045517 </v>
   <v>       0.00364133 </v>
   <v>       0.00364133 </v>
   <v>       0.00364133 </v>
   <v>       0.00364133 </v>
   <v>       0.00364133 </v>
   <v>       0.00364133 </v>
   <v>       0.00273100 </v>
   <v>       0.01092399 </v>
   <v>       0.01092399 </v>
   <v>       0.01092399 </v>
   <v>       0.01092399 </v>
   <v>       0.01092399 </v>
   <v>       0.01092399 </v>
   <v>       0.01092399 </v>
   <v>       0.01092399 </v>
   <v>       0.01092399 </v>
   <v>       0.01092399 </v>
   <v>       0.00546199 </v>
   <v>       0.00273100 </v>
   <v>       0.01092399 </v>
   <v>       0.01092399 </v>
   <v>       0.01092399 </v>
   <v>       0.01092399 </v>
   <v>       0.01092399 </v>
   <v>       0.01092399 </v>
   <v>       0.01092399 </v>
   <v>       0.01092399 </v>
   <v>       0.00546199 </v>
   <v>       0.00273100 </v>
   <v>       0.01092399 </v>
   <v>       0.01092399 </v>
   <v>       0.01092399 </v>
   <v>       0.01092399 </v>
   <v>       0.01092399 </v>
   <v>       0.01092399 </v>
   <v>       0.00546199 </v>
   <v>       0.00273100 </v>
   <v>       0.01092399 </v>
   <v>       0.01092399 </v>
   <v>       0.01092399 </v>
   <v>       0.01092399 </v>
   <v>       0.00546199 </v>
   <v>       0.00273100 </v>
   <v>       0.01092399 </v>
   <v>       0.01092399 </v>
   <v>       0.00546199 </v>
   <v>       0.00273100 </v>
   <v>       0.00546199 </v>
   <v>       0.01092399 </v>
   <v>       0.02184797 </v>
   <v>       0.02184797 </v>
   <v>       0.02184797 </v>
   <v>       0.02184797 </v>
   <v>       0.01092399 </v>
   <v>       0.02184797 </v>
   <v>       0.02184797 </v>
   <v>       0.02184797 </v>
   <v>       0.02184797 </v>
   <v>       0.02184797 </v>
   <v>       0.02184797 </v>
   <v>       0.01092399 </v>
   <v>       0.01092399 </v>
   <v>       0.02184797 </v>
   <v>       0.02184797 </v>
   <v>       0.02184797 </v>
   <v>       0.02184797 </v>
   <v>       0.01092399 </v>
   <v>       0.01092399 </v>
   <v>       0.02184797 </v>
   <v>       0.02184797 </v>
   <v>       0.01092399 </v>
   <v>       0.01092399 </v>
   <v>       0.01092399 </v>
   <v>       0.01092399 </v>
   <v>       0.02184797 </v>
   <v>       0.02184797 </v>
   <v>       0.01092399 </v>
   <v>       0.02184797 </v>
   <v>       0.02184797 </v>
   <v>       0.01092399 </v>
   <v>       0.01092399 </v>
   <v>       0.01092399 </v>
   <v>       0.01092399 </v>
  </varray>
 </kpoints>
 <parameters>
  <separator name="general" >
   <i type="string" name="SYSTEM">unknown system</i>
   <i type="logical" name="LCOMPAT"> F  </i>
  </separator>
  <separator name="electronic" >
   <i type="string" name="PREC">acc</i>
   <i name="ENMAX">    700.00000000</i>
   <i name="ENAUG">    526.41000000</i>
   <i name="EDIFF">      0.00000010</i>
   <i type="int" name="IALGO">    38</i>
   <i type="int" name="IWAVPR">    10</i>
   <i type="int" name="NBANDS">    24</i>
   <i type="int" name="NBANDSLOW">    -1</i>
   <i type="int" name="NBANDSHIGH">    -1</i>
   <i name="NELECT">     39.00000000</i>
   <i type="int" name="TURBO">     0</i>
   <i type="int" name="IRESTART">     0</i>
   <i type="int" name="NREBOOT">     0</i>
   <i type="int" name="NMIN">     0</i>
   <i name="EREF">      0.00000000</i>
   <separator name="electronic smearing" >
    <i type="int" name="ISMEAR">     0</i>
    <i name="SIGMA">      0.01000000</i>
    <i name="KSPACING">      0.50000000</i>
    <i type="logical" name="KGAMMA"> T  </i>
    <i type="logical" name="KBLOWUP"> T  </i>
   </separator>
   <separator name="electronic projectors" >
    <i type="logical" name="LREAL"> F  </i>
    <v name="ROPT">      0.00000000      0.00000000      0.00000000</v>
    <i type="int" name="LMAXPAW">  -100</i>
    <i type="int" name="LMAXMIX">     2</i>
    <i type="logical" name="NLSPLINE"> F  </i>
   </separator>
   <separator name="electronic startup" >
    <i type="int" name="ISTART">     0</i>
    <i type="int" name="ICHARG">     2</i>
    <i type="int" name="INIWAV">     1</i>
   </separator>
   <separator name="electronic spin" >
    <i type="int" name="ISPIN">     1</i>
    <i type="logical" name="LNONCOLLINEAR"> F  </i>
    <v name="MAGMOM">      1.00000000      1.00000000      1.00000000</v>
    <i name="NUPDOWN">     -1.00000000</i>
    <i type="logical" name="LSORBIT"> F  </i>
    <v name="SAXIS">      0.00000000      0.00000000      1.00000000</v>
    <i type="logical" name="LSPIRAL"> F  </i>
    <v name="QSPIRAL">      0.00000000      0.00000000      0.00000000</v>
    <i type="logical" name="LZEROZ"> F  </i>
   </separator>
   <separator name="electronic exchange-correlation" >
    <i type="logical" name="LASPH"> F  </i>
    <i type="logical" name="LMETAGGA"> F  </i>
   </separator>
   <separator name="electronic convergence" >
    <i type="int" name="NELM">    60</i>
    <i type="int" name="NELMDL">    -5</i>
    <i type="int" name="NELMIN">     5</i>
    <i name="ENINI">    700.00000000</i>
    <separator name="electronic convergence detail" >
     <i type="logical" name="LDIAG"> T  </i>
     <i type="logical" name="LSUBROT"> F  </i>
     <i name="WEIMIN">      0.00000000</i>
     <i name="EBREAK">      0.00000000</i>
     <i name="DEPER">      0.30000000</i>
     <i type="int" name="NRMM">     4</i>
     <i name="TIME">      0.40000000</i>
    </separator>
   </separator>
   <separator name="electronic mixer" >
    <i name="AMIX">      0.40000000</i>
    <i name="BMIX">      1.00000000</i>
    <i name="AMIN">      0.10000000</i>
    <i name="AMIX_MAG">      1.60000000</i>
    <i name="BMIX_MAG">      1.00000000</i>
    <separator name="electronic mixer details" >
     <i type="int" name="IMIX">     4</i>
     <i type="logical" name="MIXFIRST"> F  </i>
     <i type="int" name="MAXMIX">   -45</i>
     <i name="WC">    100.00000000</i>
     <i type="int" name="INIMIX">     1</i>
     <i type="int" name="MIXPRE">     1</i>
     <i type="int" name="MREMOVE">     5</i>
    </separator>
   </separator>
   <separator name="electronic dipolcorrection" >
    <i type="logical" name="LDIPOL"> F  </i>
    <i type="logical" name="LMONO"> F  </i>
    <i type="int" name="IDIPOL">     0</i>
    <i name="EPSILON">      1.00000000</i>
    <v name="DIPOL">   -100.00000000   -100.00000000   -100.00000000</v>
    <i name="EFIELD">      0.00000000</i>
   </separator>
  </separator>
  <separator name="grids" >
   <i type="int" name="NGX">    42</i>
   <i type="int" name="NGY">    42</i>
   <i type="int" name="NGZ">    42</i>
   <i type="int" name="NGXF">    84</i>
   <i type="int" name="NGYF">    84</i>
   <i type="int" name="NGZF">    84</i>
   <i type="logical" name="ADDGRID"> T  </i>
  </separator>
  <separator name="ionic" >
   <i type="int" name="NSW">     0</i>
   <i type="int" name="IBRION">    -1</i>
   <i type="int" name="MDALGO">     0</i>
   <i type="int" name="ISIF">     3</i>
   <i name="PSTRESS">      0.00000000</i>
   <i name="EDIFFG">      0.00000100</i>
   <i type="int" name="NFREE">     0</i>
   <i name="POTIM">      0.50000000</i>
   <i name="SMASS">     -3.00000000</i>
   <i name="SCALEE">      1.00000000</i>
  </separator>
  <separator name="ionic md" >
   <i name="TEBEG">      0.00010000</i>
   <i name="TEEND">      0.00010000</i>
   <i type="int" name="NBLOCK">     1</i>
   <i type="int" name="KBLOCK">     1</i>
   <i type="int" name="NPACO">   256</i>
   <i name="APACO">     16.00000000</i>
  </separator>
  <separator name="symmetry" >
   <i type="int" name="ISYM">     2</i>
   <i name="SYMPREC">      0.00001000</i>
  </separator>
  <separator name="dos" >
   <i type="int" name="LORBIT">     0</i>
   <v name="RWIGS">     -1.00000000     -1.00000000     -1.00000000</v>
   <i type="int" name="NEDOS">   301</i>
   <i name="EMIN">     10.00000000</i>
   <i name="EMAX">    -10.00000000</i>
   <i name="EFERMI">      0.00000000</i>
  </separator>
  <separator name="writing" >
   <i type="int" name="NWRITE">     2</i>
   <i type="logical" name="LWAVE"> F  </i>
   <i type="logical" name="LDOWNSAMPLE"> F  </i>
   <i type="logical" name="LCHARG"> F  </i>
   <i type="logical" name="LPARD"> F  </i>
   <i type="logical" name="LVTOT"> F  </i>
   <i type="logical" name="LVHAR"> F  </i>
   <i type="logical" name="LELF"> F  </i>
   <i type="logical" name="LOPTICS"> F  </i>
   <v name="STM">      0.00000000      0.00000000      0.00000000      0.00000000      0.00000000      0.00000000      0.00000000</v>
  </separator>
  <separator name="performance" >
   <i type="int" name="NPAR">     4</i>
   <i type="int" name="NSIM">     4</i>
   <i type="int" name="NBLK">    -1</i>
   <i type="logical" name="LPLANE"> T  </i>
   <i type="logical" name="LSCALAPACK"> T  </i>
   <i type="logical" name="LSCAAWARE"> F  </i>
   <i type="logical" name="LSCALU"> F  </i>
   <i type="logical" name="LASYNC"> F  </i>
   <i type="logical" name="LORBITALREAL"> F  </i>
  </separator>
  <separator name="miscellaneous" >
   <i type="int" name="IDIOT">     3</i>
   <i type="int" name="PHON_NSTRUCT">    -1</i>
   <i type="logical" name="LMUSIC"> F  </i>
   <v name="POMASS">    238.02900000    208.98000000    195.08000000</v>
   <v name="DARWINR">      0.00000000      0.00000000      0.00000000</v>
   <v name="DARWINV">      1.00000000      1.00000000      1.00000000</v>
   <i type="logical" name="LCORR"> T  </i>
  </separator>
  <i type="logical" name="GGA_COMPAT"> T  </i>
  <i type="logical" name="LBERRY"> F  </i>
  <i type="int" name="ICORELEVEL">     0</i>
  <i type="logical" name="LDAU"> F  </i>
  <i type="int" name="I_CONSTRAINED_M">     0</i>
  <separator name="electronic exchange-correlation" >
   <i type="string" name="GGA">PS</i>
   <i type="int" name="VOSKOWN">     0</i>
   <i type="logical" name="LHFCALC"> F  </i>
   <i type="string" name="PRECFOCK"></i>
   <i type="logical" name="LSYMGRAD"> F  </i>
   <i type="logical" name="LHFONE"> F  </i>
   <i type="logical" name="LRHFCALC"> F  </i>
   <i type="logical" name="LTHOMAS"> F  </i>
   <i type="logical" name="LMODELHF"> F  </i>
   <i type="logical" name="LFOCKACE"> F  </i>
   <i name="ENCUT4O">     -1.00000000</i>
   <i type="int" name="EXXOEP">     0</i>
   <i type="int" name="FOURORBIT">     0</i>
   <i name="AEXX">      0.00000000</i>
   <i name="HFALPHA">      0.00000000</i>
   <i name="MCALPHA">      0.00000000</i>
   <i name="ALDAX">      1.00000000</i>
   <i name="AGGAX">      1.00000000</i>
   <i name="ALDAC">      1.00000000</i>
   <i name="AGGAC">      1.00000000</i>
   <i type="int" name="NKREDX">     1</i>
   <i type="int" name="NKREDY">     1</i>
   <i type="int" name="NKREDZ">     1</i>
   <i type="logical" name="SHIFTRED"> F  </i>
   <i type="logical" name="ODDONLY"> F  </i>
   <i type="logical" name="EVENONLY"> F  </i>
   <i type="int" name="LMAXFOCK">     0</i>
   <i type="int" name="NMAXFOCKAE">     0</i>
   <i type="logical" name="LFOCKAEDFT"> F  </i>
   <i name="HFSCREEN">      0.00000000</i>
   <i name="HFSCREENC">      0.00000000</i>
   <i type="int" name="NBANDSGWLOW">     0</i>
  </separator>
  <separator name="vdW DFT" >
   <i type="logical" name="LUSE_VDW"> F  </i>
   <i name="Zab_VDW">     -0.84910000</i>
   <i name="PARAM1">      0.12340000</i>
   <i name="PARAM2">      1.00000000</i>
   <i name="PARAM3">      0.00000000</i>
  </separator>
  <separator name="model GW" >
   <i type="int" name="MODEL_GW">     0</i>
   <i name="MODEL_EPS0">     16.35935521</i>
   <i name="MODEL_ALPHA">      1.00000000</i>
  </separator>
  <separator name="linear response parameters" >
   <i type="logical" name="LEPSILON"> F  </i>
   <i type="logical" name="LRPA"> F  </i>
   <i type="logical" name="LNABLA"> F  </i>
   <i type="logical" name="LVEL"> F  </i>
   <i type="int" name="KINTER">     0</i>
   <i name="CSHIFT">      0.10000000</i>
   <i name="OMEGAMAX">     -1.00000000</i>
   <i name="DEG_THRESHOLD">      0.00200000</i>
   <i name="RTIME">     -0.10000000</i>
   <i name="WPLASMAI">      0.00000000</i>
   <v name="DFIELD">      0.00000000      0.00000000      0.00000000</v>
   <v name="WPLASMA">      0.00000000      0.00000000      0.00000000      0.00000000      0.00000000      0.00000000      0.00000000      0.00000000      0.00000000</v>
  </separator>
  <separator name="orbital magnetization" >
   <i type="logical" name="NUCIND"> F  </i>
   <v name="MAGPOS">      0.00000000      0.00000000      0.00000000</v>
   <i type="logical" name="LNICSALL"> T  </i>
   <i type="logical" name="ORBITALMAG"> F  </i>
   <i type="logical" name="LMAGBLOCH"> F  </i>
   <i type="logical" name="LCHIMAG"> F  </i>
   <i type="logical" name="LGAUGE"> T  </i>
   <i type="int" name="MAGATOM">     0</i>
   <v name="MAGDIPOL">      0.00000000      0.00000000      0.00000000</v>
   <v name="AVECCONST">      0.00000000      0.00000000      0.00000000</v>
  </separator>
  <separator name="response functions" >
   <i type="logical" name="LFINITE_TEMPERATURE"> F  </i>
   <i type="logical" name="LADDER"> F  </i>
   <i type="logical" name="LRPAFORCE"> F  </i>
   <i type="logical" name="LFXC"> F  </i>
   <i type="logical" name="LHARTREE"> T  </i>
   <i type="int" name="IBSE">     0</i>
   <v type="int" name="KPOINT">    -1     0     0     0</v>
   <i type="logical" name="LTCTC"> F  </i>
   <i type="logical" name="LTCTE"> F  </i>
   <i type="logical" name="LTETE"> F  </i>
   <i type="logical" name="LTRIPLET"> F  </i>
   <i type="logical" name="LFXCEPS"> F  </i>
   <i type="logical" name="LFXHEG"> F  </i>
   <i type="int" name="NATURALO">     2</i>
   <i type="logical" name="L2ORDER"> F  </i>
   <i type="logical" name="LDMP1"> F  </i>
   <i type="logical" name="LMP2LT"> F  </i>
   <i type="logical" name="LSMP2LT"> F  </i>
   <i type="logical" name="LUSEW"> F  </i>
   <i name="ENCUTGW">     -2.00000000</i>
   <i name="ENCUTGWSOFT">     -2.00000000</i>
   <i name="ENCUTLF">     -1.00000000</i>
   <i type="int" name="LMAXMP2">    -1</i>
   <i name="SCISSOR">      0.00000000</i>
   <i type="int" name="NOMEGA">     0</i>
   <i type="int" name="NOMEGAR">     0</i>
   <i type="int" name="NBANDSGW">    -1</i>
   <i type="int" name="NBANDSO">    -1</i>
   <i type="int" name="NBANDSV">    -1</i>
   <i type="int" name="NELM">     1</i>
   <i type="int" name="NELMHF">     1</i>
   <i type="int" name="DIM">     3</i>
   <i type="int" name="IESPILON">     4</i>
   <i type="int" name="ANTIRES">     0</i>
   <i name="OMEGAMAX">    -30.00000000</i>
   <i name="OMEGAMIN">    -30.00000000</i>
   <i name="OMEGATL">   -200.00000000</i>
   <i type="int" name="OMEGAGRID">   145</i>
   <i name="CSHIFT">     -0.10000000</i>
   <i type="logical" name="LSELFENERGY"> F  </i>
   <i type="logical" name="LSPECTRAL"> F  </i>
   <i type="logical" name="LSPECTRALGW"> F  </i>
   <i type="logical" name="LSINGLES"> F  </i>
   <i type="logical" name="LFERMIGW"> F  </i>
   <i type="logical" name="ODDONLYGW"> F  </i>
   <i type="logical" name="EVENONLYGW"> F  </i>
   <i type="int" name="NKREDLFX">     1</i>
   <i type="int" name="NKREDLFY">     1</i>
   <i type="int" name="NKREDLFZ">     1</i>
   <i type="int" name="MAXMEM">  2800</i>
   <i type="int" name="TELESCOPE">     0</i>
   <i type="int" name="NTAUPAR">     1</i>
   <i type="int" name="NOMEGAPAR">    -1</i>
   <i name="LAMBDA">      1.00000000</i>
  </separator>
  <separator name="External order field" >
   <i name="OFIELD_KAPPA">      0.00000000</i>
   <v name="OFIELD_K">      0.00000000      0.00000000      0.00000000</v>
   <i name="OFIELD_Q6_NEAR">      0.00000000</i>
   <i name="OFIELD_Q6_FAR">      0.00000000</i>
   <i name="OFIELD_A">      0.00000000</i>
  </separator>
 </parameters>
 <atominfo>
  <atoms>       3 </atoms>
  <types>       3 </types>
  <array name="atoms" >
   <dimension dim="1">ion</dimension>
   <field type="string">element</field>
   <field type="int">atomtype</field>
   <set>
    <rc><c>U </c><c>   1</c></rc>
    <rc><c>Bi</c><c>   2</c></rc>
    <rc><c>Pt</c><c>   3</c></rc>
   </set>
  </array>
  <array name="atomtypes" >
   <dimension dim="1">type</dimension>
   <field type="int">atomspertype</field>
   <field type="string">element</field>
   <field>mass</field>
   <field>valence</field>
   <field type="string">pseudopotential</field>
   <set>
    <rc><c>   1</c><c>U </c><c>    238.02900000</c><c>     14.00000000</c><c>  PAW_PBE U 06Sep2000                   </c></rc>
    <rc><c>   1</c><c>Bi</c><c>    208.98000000</c><c>     15.00000000</c><c>  PAW_PBE Bi_d 06Sep2000                </c></rc>
    <rc><c>   1</c><c>Pt</c><c>    195.08000000</c><c>     10.00000000</c><c>  PAW_PBE Pt 04Feb2005                  </c></rc>
   </set>
  </array>
 </atominfo>
 <structure name="initialpos" >
  <crystal>
   <varray name="basis" >
    <v>       0.00000000       3.44536626       3.44536626 </v>
    <v>       3.44536626       0.00000000       3.44536626 </v>
    <v>       3.44536626       3.44536626       0.00000000 </v>
   </varray>
   <i name="volume">     81.79677607 </i>
   <varray name="rec_basis" >
    <v>      -0.14512245       0.14512245       0.14512245 </v>
    <v>       0.14512245      -0.14512245       0.14512245 </v>
    <v>       0.14512245       0.14512245      -0.14512245 </v>
   </varray>
  </crystal>
  <varray name="positions" >
   <v>       0.25000000       0.25000000       0.25000000 </v>
   <v>       0.75000000       0.75000000       0.75000000 </v>
   <v>       0.00000000       0.00000000       0.00000000 </v>
  </varray>
 </structure>
 <calculation>
  <scstep>
   <time name="dav">    1.54    1.55</time>
   <time name="total">    1.70    1.78</time>
   <energy>
    <i name="alphaZ">    192.24210817 </i>
    <i name="ewald">  -3460.09939820 </i>
    <i name="hartreedc">   -842.15555316 </i>
    <i name="XCdc">     89.05414550 </i>
    <i name="pawpsdc">   3513.29252893 </i>
    <i name="pawaedc">  -3436.88002192 </i>
    <i name="eentropy">     -0.00012296 </i>
    <i name="bandstr">    276.32344089 </i>
    <i name="atom">   4095.35208632 </i>
    <i name="e_fr_energy">    427.12921357 </i>
    <i name="e_wo_entrp">    427.12933653 </i>
    <i name="e_0_energy">    427.12927505 </i>
   </energy>
  </scstep>
  <scstep>
   <time name="dav">    1.68    1.72</time>
   <time name="total">    1.68    1.72</time>
   <energy>
    <i name="e_fr_energy">     27.62449305 </i>
    <i name="e_wo_entrp">     27.62506969 </i>
    <i name="e_0_energy">     27.62478137 </i>
   </energy>
  </scstep>
  <scstep>
   <time name="dav">    1.78    1.80</time>
   <time name="total">    1.78    1.80</time>
   <energy>
    <i name="e_fr_energy">    -20.43851869 </i>
    <i name="e_wo_entrp">    -20.43748970 </i>
    <i name="e_0_energy">    -20.43800420 </i>
   </energy>
  </scstep>
  <scstep>
   <time name="dav">    2.51    2.54</time>
   <time name="total">    2.51    2.54</time>
   <energy>
    <i name="e_fr_energy">    -25.49158087 </i>
    <i name="e_wo_entrp">    -25.49013560 </i>
    <i name="e_0_energy">    -25.49085824 </i>
   </energy>
  </scstep>
  <scstep>
   <time name="dav">    1.91    1.93</time>
   <time name="total">    2.27    2.29</time>
   <energy>
    <i name="e_fr_energy">    -25.67257232 </i>
    <i name="e_wo_entrp">    -25.67126524 </i>
    <i name="e_0_energy">    -25.67191878 </i>
   </energy>
  </scstep>
  <scstep>
   <time name="dav">    2.06    2.06</time>
   <time name="total">    2.51    2.54</time>
   <energy>
    <i name="e_fr_energy">    -35.77229648 </i>
    <i name="e_wo_entrp">    -35.77203420 </i>
    <i name="e_0_energy">    -35.77216534 </i>
   </energy>
  </scstep>
  <scstep>
   <time name="dav">    2.05    2.05</time>
   <time name="total">    2.48    2.51</time>
   <energy>
    <i name="e_fr_energy">    -24.98120538 </i>
    <i name="e_wo_entrp">    -24.98064894 </i>
    <i name="e_0_energy">    -24.98092716 </i>
   </energy>
  </scstep>
  <scstep>
   <time name="dav">    2.02    2.02</time>
   <time name="total">    2.46    2.48</time>
   <energy>
    <i name="e_fr_energy">    -24.47519190 </i>
    <i name="e_wo_entrp">    -24.47365639 </i>
    <i name="e_0_energy">    -24.47442414 </i>
   </energy>
  </scstep>
  <scstep>
   <time name="dav">    2.09    2.09</time>
   <time name="total">    2.53    2.56</time>
   <energy>
    <i name="e_fr_energy">    -23.44008775 </i>
    <i name="e_wo_entrp">    -23.43847236 </i>
    <i name="e_0_energy">    -23.43928005 </i>
   </energy>
  </scstep>
  <scstep>
   <time name="dav">    2.08    2.08</time>
   <time name="total">    2.51    2.54</time>
   <energy>
    <i name="e_fr_energy">    -23.55723104 </i>
    <i name="e_wo_entrp">    -23.55589532 </i>
    <i name="e_0_energy">    -23.55656318 </i>
   </energy>
  </scstep>
  <scstep>
   <time name="dav">    2.03    2.03</time>
   <time name="total">    2.45    2.48</time>
   <energy>
    <i name="e_fr_energy">    -23.45647090 </i>
    <i name="e_wo_entrp">    -23.45460362 </i>
    <i name="e_0_energy">    -23.45553726 </i>
   </energy>
  </scstep>
  <scstep>
   <time name="dav">    2.45    2.45</time>
   <time name="total">    2.88    2.91</time>
   <energy>
    <i name="e_fr_energy">    -23.45639862 </i>
    <i name="e_wo_entrp">    -23.45432515 </i>
    <i name="e_0_energy">    -23.45536189 </i>
   </energy>
  </scstep>
  <scstep>
   <time name="dav">    2.20    2.20</time>
   <time name="total">    2.64    2.68</time>
   <energy>
    <i name="e_fr_energy">    -23.45904317 </i>
    <i name="e_wo_entrp">    -23.45689857 </i>
    <i name="e_0_energy">    -23.45797087 </i>
   </energy>
  </scstep>
  <scstep>
   <time name="dav">    2.07    2.07</time>
   <time name="total">    2.51    2.54</time>
   <energy>
    <i name="e_fr_energy">    -23.45526511 </i>
    <i name="e_wo_entrp">    -23.45325386 </i>
    <i name="e_0_energy">    -23.45425948 </i>
   </energy>
  </scstep>
  <scstep>
   <time name="dav">    2.29    2.29</time>
   <time name="total">    2.72    2.75</time>
   <energy>
    <i name="e_fr_energy">    -23.45524073 </i>
    <i name="e_wo_entrp">    -23.45319554 </i>
    <i name="e_0_energy">    -23.45421813 </i>
   </energy>
  </scstep>
  <scstep>
   <time name="dav">    2.08    2.08</time>
   <time name="total">    2.51    2.55</time>
   <energy>
    <i name="e_fr_energy">    -23.45525044 </i>
    <i name="e_wo_entrp">    -23.45320458 </i>
    <i name="e_0_energy">    -23.45422751 </i>
   </energy>
  </scstep>
  <scstep>
   <time name="dav">    2.17    2.17</time>
   <time name="total">    2.60    2.63</time>
   <energy>
    <i name="e_fr_energy">    -23.45524358 </i>
    <i name="e_wo_entrp">    -23.45320190 </i>
    <i name="e_0_energy">    -23.45422274 </i>
   </energy>
  </scstep>
  <scstep>
   <time name="dav">    2.03    2.03</time>
   <time name="total">    2.47    2.49</time>
   <energy>
    <i name="e_fr_energy">    -23.45524368 </i>
    <i name="e_wo_entrp">    -23.45320056 </i>
    <i name="e_0_energy">    -23.45422212 </i>
   </energy>
  </scstep>
  <scstep>
   <time name="dav">    1.47    1.47</time>
   <time name="total">    1.61    1.63</time>
   <energy>
    <i name="alphaZ">    192.24210817 </i>
    <i name="ewald">  -3460.09939820 </i>
    <i name="hartreedc">   -832.04578934 </i>
    <i name="XCdc">     88.76181139 </i>
    <i name="pawpsdc">   3977.85709605 </i>
    <i name="pawaedc">  -3909.28002641 </i>
    <i name="eentropy">     -0.00204358 </i>
    <i name="bandstr">   -176.24108814 </i>
    <i name="atom">   4095.35208632 </i>
    <i name="e_fr_energy">    -23.45524374 </i>
    <i name="e_wo_entrp">    -23.45320016 </i>
    <i name="e_0_energy">    -23.45422195 </i>
   </energy>
  </scstep>
  <structure>
   <crystal>
    <varray name="basis" >
     <v>       0.00000000       3.44536626       3.44536626 </v>
     <v>       3.44536626       0.00000000       3.44536626 </v>
     <v>       3.44536626       3.44536626       0.00000000 </v>
    </varray>
    <i name="volume">     81.79677607 </i>
    <varray name="rec_basis" >
     <v>      -0.14512245       0.14512245       0.14512245 </v>
     <v>       0.14512245      -0.14512245       0.14512245 </v>
     <v>       0.14512245       0.14512245      -0.14512245 </v>
    </varray>
   </crystal>
   <varray name="positions" >
    <v>       0.25000000       0.25000000       0.25000000 </v>
    <v>       0.75000000       0.75000000       0.75000000 </v>
    <v>       0.00000000       0.00000000       0.00000000 </v>
   </varray>
  </structure>
  <varray name="forces" >
   <v>      -0.00000000       0.00000000       0.00000000 </v>
   <v>      -0.00000000      -0.00000000       0.00000000 </v>
   <v>       0.00000000      -0.00000000      -0.00000000 </v>
  </varray>
  <varray name="stress" >
   <v>    -102.90099178       0.00000000       0.00000000 </v>
   <v>       0.00000000    -102.90099178       0.00000000 </v>
   <v>       0.00000000       0.00000000    -102.90099178 </v>
  </varray>
  <energy>
   <i name="e_fr_energy">    -23.45524374 </i>
   <i name="e_wo_entrp">    -23.45422195 </i>
   <i name="e_0_energy">     -0.00204358 </i>
  </energy>
  <time name="totalsc">   48.71   50.02</time>
  <eigenvalues>
   <array>
    <dimension dim="1">band</dimension>
    <dimension dim="2">kpoint</dimension>
    <dimension dim="3">spin</dimension>
    <field>eigene</field>
    <field>occ</field>
    <set>
     <set comment="spin 1">
      <set comment="kpoint 1">
       <r>  -35.6087    1.0000 </r>
       <r>  -14.1391    1.0000 </r>
       <r>  -14.1391    1.0000 </r>
       <r>  -14.1165    1.0000 </r>
       <r>  -14.1165    1.0000 </r>
       <r>  -14.1165    1.0000 </r>
       <r>  -10.8158    1.0000 </r>
       <r>  -10.8158    1.0000 </r>
       <r>  -10.8158    1.0000 </r>
       <r>   -3.3086    1.0000 </r>
       <r>    4.4692    1.0000 </r>
       <r>    4.4692    1.0000 </r>
       <r>    4.4692    1.0000 </r>
       <r>    4.7993    1.0000 </r>
       <r>    4.7993    1.0000 </r>
       <r>    6.6612    1.0000 </r>
       <r>    7.6163    1.0000 </r>
       <r>    7.6163    1.0000 </r>
       <r>    7.6163    1.0000 </r>
       <r>    8.6063    0.5309 </r>
       <r>    8.6701    0.0000 </r>
       <r>    8.6701    0.0000 </r>
       <r>    8.6708    0.0000 </r>
       <r>    8.7866    0.0000 </r>
      </set>
      <set comment="kpoint 2">
       <r>  -35.6086    1.0000 </r>
       <r>  -14.1400    1.0000 </r>
       <r>  -14.1400    1.0000 </r>
       <r>  -14.1167    1.0000 </r>
       <r>  -14.1164    1.0000 </r>
       <r>  -14.1164    1.0000 </r>
       <r>  -10.8243    1.0000 </r>
       <r>  -10.8141    1.0000 </r>
       <r>  -10.8141    1.0000 </r>
       <r>   -3.2584    1.0000 </r>
       <r>    4.3382    1.0000 </r>
       <r>    4.3954    1.0000 </r>
       <r>    4.3954    1.0000 </r>
       <r>    4.8687    1.0000 </r>
       <r>    4.8687    1.0000 </r>
       <r>    6.4858    1.0000 </r>
       <r>    7.5649    1.0000 </r>
       <r>    7.5649    1.0000 </r>
       <r>    7.7286    1.0000 </r>
       <r>    8.5340    1.0000 </r>
       <r>    8.6247    0.0058 </r>
       <r>    8.6247    0.0058 </r>
       <r>    8.7686    0.0000 </r>
       <r>    8.7915    0.0000 </r>
      </set>
      <set comment="kpoint 3">
       <r>  -35.6082    1.0000 </r>
       <r>  -14.1424    1.0000 </r>
       <r>  -14.1424    1.0000 </r>
       <r>  -14.1171    1.0000 </r>
       <r>  -14.1160    1.0000 </r>
       <r>  -14.1160    1.0000 </r>
       <r>  -10.8474    1.0000 </r>
       <r>  -10.8092    1.0000 </r>
       <r>  -10.8092    1.0000 </r>
       <r>   -3.1179    1.0000 </r>
       <r>    4.0168    1.0000 </r>
       <r>    4.2731    1.0000 </r>
       <r>    4.2731    1.0000 </r>
       <r>    4.9703    1.0000 </r>
       <r>    4.9703    1.0000 </r>
       <r>    6.1083    1.0000 </r>
       <r>    7.4480    1.0000 </r>
       <r>    7.4480    1.0000 </r>
       <r>    7.8158    1.0000 </r>
       <r>    8.5901    0.9913 </r>
       <r>    8.5901    0.9913 </r>
       <r>    8.6875    0.0000 </r>
       <r>    8.7897    0.0000 </r>
       <r>    8.8654    0.0000 </r>
      </set>
      <set comment="kpoint 4">
       <r>  -35.6077    1.0000 </r>
       <r>  -14.1459    1.0000 </r>
       <r>  -14.1459    1.0000 </r>
       <r>  -14.1178    1.0000 </r>
       <r>  -14.1155    1.0000 </r>
       <r>  -14.1155    1.0000 </r>
       <r>  -10.8786    1.0000 </r>
       <r>  -10.8024    1.0000 </r>
       <r>  -10.8024    1.0000 </r>
       <r>   -2.9157    1.0000 </r>
       <r>    3.6321    1.0000 </r>
       <r>    4.1752    1.0000 </r>
       <r>    4.1752    1.0000 </r>
       <r>    5.0170    1.0000 </r>
       <r>    5.0170    1.0000 </r>
       <r>    5.6943    1.0000 </r>
       <r>    7.3342    1.0000 </r>
       <r>    7.3342    1.0000 </r>
       <r>    7.8318    1.0000 </r>
       <r>    8.5841    0.9994 </r>
       <r>    8.5841    0.9994 </r>
       <r>    8.7929    0.0000 </r>
       <r>    8.8297    0.0000 </r>
       <r>    9.0363    0.0000 </r>
      </set>
      <set comment="kpoint 5">
       <r>  -35.6072    1.0000 </r>
       <r>  -14.1496    1.0000 </r>
       <r>  -14.1496    1.0000 </r>
       <r>  -14.1186    1.0000 </r>
       <r>  -14.1148    1.0000 </r>
       <r>  -14.1148    1.0000 </r>
       <r>  -10.9102    1.0000 </r>
       <r>  -10.7952    1.0000 </r>
       <r>  -10.7952    1.0000 </r>
       <r>   -2.6954    1.0000 </r>
       <r>    3.2783    1.0000 </r>
       <r>    4.1200    1.0000 </r>
       <r>    4.1200    1.0000 </r>
       <r>    4.9900    1.0000 </r>
       <r>    4.9900    1.0000 </r>
       <r>    5.3412    1.0000 </r>
       <r>    7.2652    1.0000 </r>
       <r>    7.2652    1.0000 </r>
       <r>    7.8727    1.0000 </r>
       <r>    8.5982    0.8903 </r>
       <r>    8.5982    0.8903 </r>
       <r>    8.8800    0.0000 </r>
       <r>    8.9941    0.0000 </r>
       <r>    8.9944    0.0000 </r>
      </set>
      <set comment="kpoint 6">
       <r>  -35.6067    1.0000 </r>
       <r>  -14.1527    1.0000 </r>
       <r>  -14.1527    1.0000 </r>
       <r>  -14.1194    1.0000 </r>
       <r>  -14.1143    1.0000 </r>
       <r>  -14.1143    1.0000 </r>
       <r>  -10.9352    1.0000 </r>
       <r>  -10.7893    1.0000 </r>
       <r>  -10.7893    1.0000 </r>
       <r>   -2.5077    1.0000 </r>
       <r>    3.0134    1.0000 </r>
       <r>    4.1041    1.0000 </r>
       <r>    4.1041    1.0000 </r>
       <r>    4.9182    1.0000 </r>
       <r>    4.9182    1.0000 </r>
       <r>    5.0958    1.0000 </r>
       <r>    7.2401    1.0000 </r>
       <r>    7.2401    1.0000 </r>
       <r>    7.9387    1.0000 </r>
       <r>    8.6257    0.0039 </r>
       <r>    8.6257    0.0039 </r>
       <r>    8.9217    0.0000 </r>
       <r>    8.9227    0.0000 </r>
       <r>    8.9227    0.0000 </r>
      </set>
      <set comment="kpoint 7">
       <r>  -35.6065    1.0000 </r>
       <r>  -14.1544    1.0000 </r>
       <r>  -14.1544    1.0000 </r>
       <r>  -14.1199    1.0000 </r>
       <r>  -14.1140    1.0000 </r>
       <r>  -14.1140    1.0000 </r>
       <r>  -10.9489    1.0000 </r>
       <r>  -10.7860    1.0000 </r>
       <r>  -10.7860    1.0000 </r>
       <r>   -2.3994    1.0000 </r>
       <r>    2.8725    1.0000 </r>
       <r>    4.1081    1.0000 </r>
       <r>    4.1081    1.0000 </r>
       <r>    4.8582    1.0000 </r>
       <r>    4.8582    1.0000 </r>
       <r>    4.9724    1.0000 </r>
       <r>    7.2363    1.0000 </r>
       <r>    7.2363    1.0000 </r>
       <r>    7.9918    1.0000 </r>
       <r>    8.6534    0.0000 </r>
       <r>    8.6534    0.0000 </r>
       <r>    8.8054    0.0000 </r>
       <r>    8.8672    0.0000 </r>
       <r>    8.8676    0.0000 </r>
      </set>
      <set comment="kpoint 8">
       <r>  -35.6085    1.0000 </r>
       <r>  -14.1415    1.0000 </r>
       <r>  -14.1389    1.0000 </r>
       <r>  -14.1168    1.0000 </r>
       <r>  -14.1163    1.0000 </r>
       <r>  -14.1163    1.0000 </r>
       <r>  -10.8204    1.0000 </r>
       <r>  -10.8170    1.0000 </r>
       <r>  -10.8170    1.0000 </r>
       <r>   -3.2428    1.0000 </r>
       <r>    4.1489    1.0000 </r>
       <r>    4.4835    1.0000 </r>
       <r>    4.4835    1.0000 </r>
       <r>    4.8127    1.0000 </r>
       <r>    4.8975    1.0000 </r>
       <r>    6.4732    1.0000 </r>
       <r>    7.4833    1.0000 </r>
       <r>    7.4833    1.0000 </r>
       <r>    7.8811    1.0000 </r>
       <r>    8.4788    1.0000 </r>
       <r>    8.6251    0.0050 </r>
       <r>    8.6251    0.0050 </r>
       <r>    8.7860    0.0000 </r>
       <r>    8.7955    0.0000 </r>
      </set>
      <set comment="kpoint 9">
       <r>  -35.6083    1.0000 </r>
       <r>  -14.1443    1.0000 </r>
       <r>  -14.1396    1.0000 </r>
       <r>  -14.1172    1.0000 </r>
       <r>  -14.1160    1.0000 </r>
       <r>  -14.1160    1.0000 </r>
       <r>  -10.8379    1.0000 </r>
       <r>  -10.8163    1.0000 </r>
       <r>  -10.8112    1.0000 </r>
       <r>   -3.1358    1.0000 </r>
       <r>    3.8828    1.0000 </r>
       <r>    4.3931    1.0000 </r>
       <r>    4.4334    1.0000 </r>
       <r>    4.8766    1.0000 </r>
       <r>    4.9718    1.0000 </r>
       <r>    6.2306    1.0000 </r>
       <r>    7.3448    1.0000 </r>
       <r>    7.3562    1.0000 </r>
       <r>    8.0090    1.0000 </r>
       <r>    8.5428    1.0000 </r>
       <r>    8.6027    0.7233 </r>
       <r>    8.6311    0.0003 </r>
       <r>    8.8001    0.0000 </r>
       <r>    8.8514    0.0000 </r>
      </set>
      <set comment="kpoint 10">
       <r>  -35.6078    1.0000 </r>
       <r>  -14.1476    1.0000 </r>
       <r>  -14.1420    1.0000 </r>
       <r>  -14.1177    1.0000 </r>
       <r>  -14.1157    1.0000 </r>
       <r>  -14.1154    1.0000 </r>
       <r>  -10.8666    1.0000 </r>
       <r>  -10.8121    1.0000 </r>
       <r>  -10.8035    1.0000 </r>
       <r>   -2.9599    1.0000 </r>
       <r>    3.5953    1.0000 </r>
       <r>    4.2226    1.0000 </r>
       <r>    4.3444    1.0000 </r>
       <r>    4.9387    1.0000 </r>
       <r>    5.0463    1.0000 </r>
       <r>    5.8618    1.0000 </r>
       <r>    7.1978    1.0000 </r>
       <r>    7.2491    1.0000 </r>
       <r>    8.0064    1.0000 </r>
       <r>    8.5763    1.0000 </r>
       <r>    8.5913    0.9859 </r>
       <r>    8.7986    0.0000 </r>
       <r>    8.8022    0.0000 </r>
       <r>    8.9738    0.0000 </r>
      </set>
      <set comment="kpoint 11">
       <r>  -35.6073    1.0000 </r>
       <r>  -14.1507    1.0000 </r>
       <r>  -14.1454    1.0000 </r>
       <r>  -14.1184    1.0000 </r>
       <r>  -14.1152    1.0000 </r>
       <r>  -14.1148    1.0000 </r>
       <r>  -10.8980    1.0000 </r>
       <r>  -10.8055    1.0000 </r>
       <r>  -10.7967    1.0000 </r>
       <r>   -2.7532    1.0000 </r>
       <r>    3.3155    1.0000 </r>
       <r>    4.0981    1.0000 </r>
       <r>    4.2723    1.0000 </r>
       <r>    4.9350    1.0000 </r>
       <r>    5.0594    1.0000 </r>
       <r>    5.4897    1.0000 </r>
       <r>    7.1065    1.0000 </r>
       <r>    7.1956    1.0000 </r>
       <r>    7.9972    1.0000 </r>
       <r>    8.5959    0.9393 </r>
       <r>    8.5961    0.9368 </r>
       <r>    8.8039    0.0000 </r>
       <r>    8.8537    0.0000 </r>
       <r>    8.9834    0.0000 </r>
      </set>
      <set comment="kpoint 12">
       <r>  -35.6068    1.0000 </r>
       <r>  -14.1529    1.0000 </r>
       <r>  -14.1492    1.0000 </r>
       <r>  -14.1191    1.0000 </r>
       <r>  -14.1147    1.0000 </r>
       <r>  -14.1142    1.0000 </r>
       <r>  -10.9250    1.0000 </r>
       <r>  -10.7980    1.0000 </r>
       <r>  -10.7922    1.0000 </r>
       <r>   -2.5627    1.0000 </r>
       <r>    3.0876    1.0000 </r>
       <r>    4.0483    1.0000 </r>
       <r>    4.2187    1.0000 </r>
       <r>    4.8880    1.0000 </r>
       <r>    5.0080    1.0000 </r>
       <r>    5.1982    1.0000 </r>
       <r>    7.0705    1.0000 </r>
       <r>    7.1869    1.0000 </r>
       <r>    8.0207    1.0000 </r>
       <r>    8.6164    0.0888 </r>
       <r>    8.6257    0.0039 </r>
       <r>    8.8041    0.0000 </r>
       <r>    8.8775    0.0000 </r>
       <r>    8.9441    0.0000 </r>
      </set>
      <set comment="kpoint 13">
       <r>  -35.6065    1.0000 </r>
       <r>  -14.1538    1.0000 </r>
       <r>  -14.1524    1.0000 </r>
       <r>  -14.1196    1.0000 </r>
       <r>  -14.1143    1.0000 </r>
       <r>  -14.1139    1.0000 </r>
       <r>  -10.9422    1.0000 </r>
       <r>  -10.7912    1.0000 </r>
       <r>  -10.7910    1.0000 </r>
       <r>   -2.4338    1.0000 </r>
       <r>    2.9463    1.0000 </r>
       <r>    4.0635    1.0000 </r>
       <r>    4.1638    1.0000 </r>
       <r>    4.8588    1.0000 </r>
       <r>    4.9288    1.0000 </r>
       <r>    5.0226    1.0000 </r>
       <r>    7.0626    1.0000 </r>
       <r>    7.1952    1.0000 </r>
       <r>    8.0600    1.0000 </r>
       <r>    8.6479    0.0000 </r>
       <r>    8.6533    0.0000 </r>
       <r>    8.8006    0.0000 </r>
       <r>    8.8597    0.0000 </r>
       <r>    8.9322    0.0000 </r>
      </set>
      <set comment="kpoint 14">
       <r>  -35.6064    1.0000 </r>
       <r>  -14.1543    1.0000 </r>
       <r>  -14.1531    1.0000 </r>
       <r>  -14.1197    1.0000 </r>
       <r>  -14.1142    1.0000 </r>
       <r>  -14.1139    1.0000 </r>
       <r>  -10.9466    1.0000 </r>
       <r>  -10.7934    1.0000 </r>
       <r>  -10.7867    1.0000 </r>
       <r>   -2.3984    1.0000 </r>
       <r>    2.9093    1.0000 </r>
       <r>    4.0962    1.0000 </r>
       <r>    4.1198    1.0000 </r>
       <r>    4.8662    1.0000 </r>
       <r>    4.8902    1.0000 </r>
       <r>    4.9781    1.0000 </r>
       <r>    7.0531    1.0000 </r>
       <r>    7.2040    1.0000 </r>
       <r>    8.0762    1.0000 </r>
       <r>    8.6535    0.0000 </r>
       <r>    8.6714    0.0000 </r>
       <r>    8.7985    0.0000 </r>
       <r>    8.8645    0.0000 </r>
       <r>    8.8945    0.0000 </r>
      </set>
      <set comment="kpoint 15">
       <r>  -35.6066    1.0000 </r>
       <r>  -14.1544    1.0000 </r>
       <r>  -14.1510    1.0000 </r>
       <r>  -14.1194    1.0000 </r>
       <r>  -14.1143    1.0000 </r>
       <r>  -14.1142    1.0000 </r>
       <r>  -10.9375    1.0000 </r>
       <r>  -10.7987    1.0000 </r>
       <r>  -10.7855    1.0000 </r>
       <r>   -2.4656    1.0000 </r>
       <r>    2.9828    1.0000 </r>
       <r>    4.0345    1.0000 </r>
       <r>    4.1895    1.0000 </r>
       <r>    4.8532    1.0000 </r>
       <r>    4.9710    1.0000 </r>
       <r>    5.0679    1.0000 </r>
       <r>    7.0259    1.0000 </r>
       <r>    7.2175    1.0000 </r>
       <r>    8.0522    1.0000 </r>
       <r>    8.6275    0.0018 </r>
       <r>    8.6568    0.0000 </r>
       <r>    8.7988    0.0000 </r>
       <r>    8.8893    0.0000 </r>
       <r>    8.9012    0.0000 </r>
      </set>
      <set comment="kpoint 16">
       <r>  -35.6069    1.0000 </r>
       <r>  -14.1528    1.0000 </r>
       <r>  -14.1479    1.0000 </r>
       <r>  -14.1188    1.0000 </r>
       <r>  -14.1147    1.0000 </r>
       <r>  -14.1146    1.0000 </r>
       <r>  -10.9166    1.0000 </r>
       <r>  -10.8056    1.0000 </r>
       <r>  -10.7880    1.0000 </r>
       <r>   -2.6186    1.0000 </r>
       <r>    3.1636    1.0000 </r>
       <r>    4.0074    1.0000 </r>
       <r>    4.2613    1.0000 </r>
       <r>    4.8878    1.0000 </r>
       <r>    5.0562    1.0000 </r>
       <r>    5.2829    1.0000 </r>
       <r>    6.9896    1.0000 </r>
       <r>    7.2552    1.0000 </r>
       <r>    8.0138    1.0000 </r>
       <r>    8.6017    0.7689 </r>
       <r>    8.6229    0.0115 </r>
       <r>    8.8016    0.0000 </r>
       <r>    8.8843    0.0000 </r>
       <r>    8.9435    0.0000 </r>
      </set>
      <set comment="kpoint 17">
       <r>  -35.6074    1.0000 </r>
       <r>  -14.1498    1.0000 </r>
       <r>  -14.1445    1.0000 </r>
       <r>  -14.1180    1.0000 </r>
       <r>  -14.1153    1.0000 </r>
       <r>  -14.1151    1.0000 </r>
       <r>  -10.8877    1.0000 </r>
       <r>  -10.8125    1.0000 </r>
       <r>  -10.7935    1.0000 </r>
       <r>   -2.8199    1.0000 </r>
       <r>    3.4355    1.0000 </r>
       <r>    4.0328    1.0000 </r>
       <r>    4.3454    1.0000 </r>
       <r>    4.9177    1.0000 </r>
       <r>    5.0982    1.0000 </r>
       <r>    5.6052    1.0000 </r>
       <r>    6.9840    1.0000 </r>
       <r>    7.3358    1.0000 </r>
       <r>    7.9939    1.0000 </r>
       <r>    8.5877    0.9966 </r>
       <r>    8.5948    0.9565 </r>
       <r>    8.8004    0.0000 </r>
       <r>    8.8456    0.0000 </r>
       <r>    9.0156    0.0000 </r>
      </set>
      <set comment="kpoint 18">
       <r>  -35.6080    1.0000 </r>
       <r>  -14.1462    1.0000 </r>
       <r>  -14.1416    1.0000 </r>
       <r>  -14.1174    1.0000 </r>
       <r>  -14.1159    1.0000 </r>
       <r>  -14.1157    1.0000 </r>
       <r>  -10.8573    1.0000 </r>
       <r>  -10.8176    1.0000 </r>
       <r>  -10.8008    1.0000 </r>
       <r>   -3.0218    1.0000 </r>
       <r>    3.7630    1.0000 </r>
       <r>    4.1153    1.0000 </r>
       <r>    4.4442    1.0000 </r>
       <r>    4.8938    1.0000 </r>
       <r>    5.0709    1.0000 </r>
       <r>    5.9790    1.0000 </r>
       <r>    7.0743    1.0000 </r>
       <r>    7.4507    1.0000 </r>
       <r>    7.9923    1.0000 </r>
       <r>    8.5821    0.9998 </r>
       <r>    8.5860    0.9984 </r>
       <r>    8.7716    0.0000 </r>
       <r>    8.7971    0.0000 </r>
       <r>    8.9338    0.0000 </r>
      </set>
      <set comment="kpoint 19">
       <r>  -35.6084    1.0000 </r>
       <r>  -14.1426    1.0000 </r>
       <r>  -14.1400    1.0000 </r>
       <r>  -14.1169    1.0000 </r>
       <r>  -14.1162    1.0000 </r>
       <r>  -14.1161    1.0000 </r>
       <r>  -10.8339    1.0000 </r>
       <r>  -10.8183    1.0000 </r>
       <r>  -10.8082    1.0000 </r>
       <r>   -3.1793    1.0000 </r>
       <r>    4.0900    1.0000 </r>
       <r>    4.2458    1.0000 </r>
       <r>    4.4958    1.0000 </r>
       <r>    4.8481    1.0000 </r>
       <r>    4.9820    1.0000 </r>
       <r>    6.2984    1.0000 </r>
       <r>    7.3077    1.0000 </r>
       <r>    7.5489    1.0000 </r>
       <r>    7.9174    1.0000 </r>
       <r>    8.5557    1.0000 </r>
       <r>    8.5936    0.9699 </r>
       <r>    8.6249    0.0054 </r>
       <r>    8.7925    0.0000 </r>
       <r>    8.8254    0.0000 </r>
      </set>
      <set comment="kpoint 20">
       <r>  -35.6081    1.0000 </r>
       <r>  -14.1466    1.0000 </r>
       <r>  -14.1383    1.0000 </r>
       <r>  -14.1176    1.0000 </r>
       <r>  -14.1157    1.0000 </r>
       <r>  -14.1157    1.0000 </r>
       <r>  -10.8340    1.0000 </r>
       <r>  -10.8203    1.0000 </r>
       <r>  -10.8203    1.0000 </r>
       <r>   -3.0721    1.0000 </r>
       <r>    3.6217    1.0000 </r>
       <r>    4.5158    1.0000 </r>
       <r>    4.5158    1.0000 </r>
       <r>    4.8502    1.0000 </r>
       <r>    4.9203    1.0000 </r>
       <r>    6.2124    1.0000 </r>
       <r>    7.2302    1.0000 </r>
       <r>    7.2302    1.0000 </r>
       <r>    8.1064    1.0000 </r>
       <r>    8.5501    1.0000 </r>
       <r>    8.6032    0.6995 </r>
       <r>    8.6032    0.6995 </r>
       <r>    8.8218    0.0000 </r>
       <r>    8.8836    0.0000 </r>
      </set>
      <set comment="kpoint 21">
       <r>  -35.6077    1.0000 </r>
       <r>  -14.1489    1.0000 </r>
       <r>  -14.1389    1.0000 </r>
       <r>  -14.1181    1.0000 </r>
       <r>  -14.1153    1.0000 </r>
       <r>  -14.1152    1.0000 </r>
       <r>  -10.8554    1.0000 </r>
       <r>  -10.8203    1.0000 </r>
       <r>  -10.8149    1.0000 </r>
       <r>   -2.9422    1.0000 </r>
       <r>    3.3930    1.0000 </r>
       <r>    4.4214    1.0000 </r>
       <r>    4.4866    1.0000 </r>
       <r>    4.8933    1.0000 </r>
       <r>    4.9604    1.0000 </r>
       <r>    6.0108    1.0000 </r>
       <r>    7.0549    1.0000 </r>
       <r>    7.1316    1.0000 </r>
       <r>    8.1262    1.0000 </r>
       <r>    8.5756    1.0000 </r>
       <r>    8.6002    0.8259 </r>
       <r>    8.7401    0.0000 </r>
       <r>    8.8322    0.0000 </r>
       <r>    8.9682    0.0000 </r>
      </set>
      <set comment="kpoint 22">
       <r>  -35.6072    1.0000 </r>
       <r>  -14.1508    1.0000 </r>
       <r>  -14.1412    1.0000 </r>
       <r>  -14.1186    1.0000 </r>
       <r>  -14.1150    1.0000 </r>
       <r>  -14.1145    1.0000 </r>
       <r>  -10.8843    1.0000 </r>
       <r>  -10.8165    1.0000 </r>
       <r>  -10.8084    1.0000 </r>
       <r>   -2.7765    1.0000 </r>
       <r>    3.2259    1.0000 </r>
       <r>    4.2447    1.0000 </r>
       <r>    4.4222    1.0000 </r>
       <r>    4.9099    1.0000 </r>
       <r>    5.0235    1.0000 </r>
       <r>    5.7022    1.0000 </r>
       <r>    6.8708    1.0000 </r>
       <r>    7.0909    1.0000 </r>
       <r>    8.1418    1.0000 </r>
       <r>    8.5895    0.9929 </r>
       <r>    8.6041    0.6516 </r>
       <r>    8.8060    0.0000 </r>
       <r>    8.8334    0.0000 </r>
       <r>    8.9900    0.0000 </r>
      </set>
      <set comment="kpoint 23">
       <r>  -35.6068    1.0000 </r>
       <r>  -14.1516    1.0000 </r>
       <r>  -14.1448    1.0000 </r>
       <r>  -14.1189    1.0000 </r>
       <r>  -14.1148    1.0000 </r>
       <r>  -14.1139    1.0000 </r>
       <r>  -10.9108    1.0000 </r>
       <r>  -10.8095    1.0000 </r>
       <r>  -10.8053    1.0000 </r>
       <r>   -2.6135    1.0000 </r>
       <r>    3.1272    1.0000 </r>
       <r>    4.1101    1.0000 </r>
       <r>    4.3467    1.0000 </r>
       <r>    4.8923    1.0000 </r>
       <r>    5.0324    1.0000 </r>
       <r>    5.3884    1.0000 </r>
       <r>    6.7653    1.0000 </r>
       <r>    7.0945    1.0000 </r>
       <r>    8.1509    1.0000 </r>
       <r>    8.6202    0.0295 </r>
       <r>    8.6207    0.0252 </r>
       <r>    8.8254    0.0000 </r>
       <r>    8.8292    0.0000 </r>
       <r>    8.9672    0.0000 </r>
      </set>
      <set comment="kpoint 24">
       <r>  -35.6064    1.0000 </r>
       <r>  -14.1514    1.0000 </r>
       <r>  -14.1486    1.0000 </r>
       <r>  -14.1192    1.0000 </r>
       <r>  -14.1147    1.0000 </r>
       <r>  -14.1136    1.0000 </r>
       <r>  -10.9291    1.0000 </r>
       <r>  -10.8065    1.0000 </r>
       <r>  -10.8012    1.0000 </r>
       <r>   -2.4898    1.0000 </r>
       <r>    3.0824    1.0000 </r>
       <r>    4.0574    1.0000 </r>
       <r>    4.2480    1.0000 </r>
       <r>    4.8935    1.0000 </r>
       <r>    4.9812    1.0000 </r>
       <r>    5.1624    1.0000 </r>
       <r>    6.7186    1.0000 </r>
       <r>    7.1096    1.0000 </r>
       <r>    8.1722    1.0000 </r>
       <r>    8.6478    0.0000 </r>
       <r>    8.6501    0.0000 </r>
       <r>    8.8180    0.0000 </r>
       <r>    8.8359    0.0000 </r>
       <r>    8.9506    0.0000 </r>
      </set>
      <set comment="kpoint 25">
       <r>  -35.6063    1.0000 </r>
       <r>  -14.1520    1.0000 </r>
       <r>  -14.1502    1.0000 </r>
       <r>  -14.1191    1.0000 </r>
       <r>  -14.1146    1.0000 </r>
       <r>  -14.1135    1.0000 </r>
       <r>  -10.9361    1.0000 </r>
       <r>  -10.8113    1.0000 </r>
       <r>  -10.7932    1.0000 </r>
       <r>   -2.4317    1.0000 </r>
       <r>    3.0657    1.0000 </r>
       <r>    4.0906    1.0000 </r>
       <r>    4.1303    1.0000 </r>
       <r>    4.9054    1.0000 </r>
       <r>    4.9452    1.0000 </r>
       <r>    5.0730    1.0000 </r>
       <r>    6.6871    1.0000 </r>
       <r>    7.1192    1.0000 </r>
       <r>    8.1933    1.0000 </r>
       <r>    8.6481    0.0000 </r>
       <r>    8.6881    0.0000 </r>
       <r>    8.7944    0.0000 </r>
       <r>    8.8578    0.0000 </r>
       <r>    8.9379    0.0000 </r>
      </set>
      <set comment="kpoint 26">
       <r>  -35.6063    1.0000 </r>
       <r>  -14.1540    1.0000 </r>
       <r>  -14.1482    1.0000 </r>
       <r>  -14.1189    1.0000 </r>
       <r>  -14.1147    1.0000 </r>
       <r>  -14.1138    1.0000 </r>
       <r>  -10.9311    1.0000 </r>
       <r>  -10.8184    1.0000 </r>
       <r>  -10.7876    1.0000 </r>
       <r>   -2.4516    1.0000 </r>
       <r>    3.0700    1.0000 </r>
       <r>    4.0229    1.0000 </r>
       <r>    4.1892    1.0000 </r>
       <r>    4.8568    1.0000 </r>
       <r>    5.0320    1.0000 </r>
       <r>    5.1242    1.0000 </r>
       <r>    6.6365    1.0000 </r>
       <r>    7.1323    1.0000 </r>
       <r>    8.1922    1.0000 </r>
       <r>    8.6249    0.0053 </r>
       <r>    8.7024    0.0000 </r>
       <r>    8.7811    0.0000 </r>
       <r>    8.8840    0.0000 </r>
       <r>    8.8965    0.0000 </r>
      </set>
      <set comment="kpoint 27">
       <r>  -35.6066    1.0000 </r>
       <r>  -14.1543    1.0000 </r>
       <r>  -14.1458    1.0000 </r>
       <r>  -14.1184    1.0000 </r>
       <r>  -14.1149    1.0000 </r>
       <r>  -14.1143    1.0000 </r>
       <r>  -10.9154    1.0000 </r>
       <r>  -10.8254    1.0000 </r>
       <r>  -10.7854    1.0000 </r>
       <r>   -2.5467    1.0000 </r>
       <r>    3.1213    1.0000 </r>
       <r>    3.9552    1.0000 </r>
       <r>    4.3197    1.0000 </r>
       <r>    4.8413    1.0000 </r>
       <r>    5.1160    1.0000 </r>
       <r>    5.3116    1.0000 </r>
       <r>    6.5654    1.0000 </r>
       <r>    7.1721    1.0000 </r>
       <r>    8.1710    1.0000 </r>
       <r>    8.6022    0.7465 </r>
       <r>    8.6678    0.0000 </r>
       <r>    8.8027    0.0000 </r>
       <r>    8.8767    0.0000 </r>
       <r>    8.9065    0.0000 </r>
      </set>
      <set comment="kpoint 28">
       <r>  -35.6071    1.0000 </r>
       <r>  -14.1528    1.0000 </r>
       <r>  -14.1436    1.0000 </r>
       <r>  -14.1180    1.0000 </r>
       <r>  -14.1151    1.0000 </r>
       <r>  -14.1149    1.0000 </r>
       <r>  -10.8933    1.0000 </r>
       <r>  -10.8296    1.0000 </r>
       <r>  -10.7873    1.0000 </r>
       <r>   -2.6976    1.0000 </r>
       <r>    3.2539    1.0000 </r>
       <r>    3.9453    1.0000 </r>
       <r>    4.4469    1.0000 </r>
       <r>    4.8416    1.0000 </r>
       <r>    5.1592    1.0000 </r>
       <r>    5.5875    1.0000 </r>
       <r>    6.5315    1.0000 </r>
       <r>    7.2555    1.0000 </r>
       <r>    8.1452    1.0000 </r>
       <r>    8.5899    0.9917 </r>
       <r>    8.6275    0.0018 </r>
       <r>    8.8111    0.0000 </r>
       <r>    8.8536    0.0000 </r>
       <r>    8.9590    0.0000 </r>
      </set>
      <set comment="kpoint 29">
       <r>  -35.6075    1.0000 </r>
       <r>  -14.1499    1.0000 </r>
       <r>  -14.1421    1.0000 </r>
       <r>  -14.1177    1.0000 </r>
       <r>  -14.1155    1.0000 </r>
       <r>  -14.1153    1.0000 </r>
       <r>  -10.8718    1.0000 </r>
       <r>  -10.8273    1.0000 </r>
       <r>  -10.7929    1.0000 </r>
       <r>   -2.8698    1.0000 </r>
       <r>    3.4770    1.0000 </r>
       <r>    4.0001    1.0000 </r>
       <r>    4.5213    1.0000 </r>
       <r>    4.8410    1.0000 </r>
       <r>    5.1420    1.0000 </r>
       <r>    5.8346    1.0000 </r>
       <r>    6.6799    1.0000 </r>
       <r>    7.3669    1.0000 </r>
       <r>    8.1078    1.0000 </r>
       <r>    8.5860    0.9984 </r>
       <r>    8.5960    0.9372 </r>
       <r>    8.8069    0.0000 </r>
       <r>    8.8243    0.0000 </r>
       <r>    8.9903    0.0000 </r>
      </set>
      <set comment="kpoint 30">
       <r>  -35.6074    1.0000 </r>
       <r>  -14.1497    1.0000 </r>
       <r>  -14.1374    1.0000 </r>
       <r>  -14.1188    1.0000 </r>
       <r>  -14.1147    1.0000 </r>
       <r>  -14.1147    1.0000 </r>
       <r>  -10.8561    1.0000 </r>
       <r>  -10.8252    1.0000 </r>
       <r>  -10.8252    1.0000 </r>
       <r>   -2.8697    1.0000 </r>
       <r>    3.2232    1.0000 </r>
       <r>    4.5396    1.0000 </r>
       <r>    4.5396    1.0000 </r>
       <r>    4.8373    1.0000 </r>
       <r>    4.9044    1.0000 </r>
       <r>    5.9822    1.0000 </r>
       <r>    7.0415    1.0000 </r>
       <r>    7.0415    1.0000 </r>
       <r>    8.1032    1.0000 </r>
       <r>    8.6056    0.5724 </r>
       <r>    8.6056    0.5724 </r>
       <r>    8.7072    0.0000 </r>
       <r>    8.8642    0.0000 </r>
       <r>    9.0807    0.0000 </r>
      </set>
      <set comment="kpoint 31">
       <r>  -35.6070    1.0000 </r>
       <r>  -14.1498    1.0000 </r>
       <r>  -14.1379    1.0000 </r>
       <r>  -14.1193    1.0000 </r>
       <r>  -14.1142    1.0000 </r>
       <r>  -14.1141    1.0000 </r>
       <r>  -10.8764    1.0000 </r>
       <r>  -10.8255    1.0000 </r>
       <r>  -10.8234    1.0000 </r>
       <r>   -2.7630    1.0000 </r>
       <r>    3.1406    1.0000 </r>
       <r>    4.4226    1.0000 </r>
       <r>    4.5147    1.0000 </r>
       <r>    4.8736    1.0000 </r>
       <r>    4.9283    1.0000 </r>
       <r>    5.8091    1.0000 </r>
       <r>    6.8748    1.0000 </r>
       <r>    7.0096    1.0000 </r>
       <r>    8.1705    1.0000 </r>
       <r>    8.5953    0.9494 </r>
       <r>    8.6126    0.2099 </r>
       <r>    8.7458    0.0000 </r>
       <r>    8.8791    0.0000 </r>
       <r>    9.0363    0.0000 </r>
      </set>
      <set comment="kpoint 32">
       <r>  -35.6066    1.0000 </r>
       <r>  -14.1490    1.0000 </r>
       <r>  -14.1404    1.0000 </r>
       <r>  -14.1195    1.0000 </r>
       <r>  -14.1141    1.0000 </r>
       <r>  -14.1135    1.0000 </r>
       <r>  -10.8991    1.0000 </r>
       <r>  -10.8222    1.0000 </r>
       <r>  -10.8213    1.0000 </r>
       <r>   -2.6488    1.0000 </r>
       <r>    3.1542    1.0000 </r>
       <r>    4.2438    1.0000 </r>
       <r>    4.4467    1.0000 </r>
       <r>    4.9330    1.0000 </r>
       <r>    4.9504    1.0000 </r>
       <r>    5.5662    1.0000 </r>
       <r>    6.6337    1.0000 </r>
       <r>    7.0203    1.0000 </r>
       <r>    8.2396    1.0000 </r>
       <r>    8.6076    0.4600 </r>
       <r>    8.6272    0.0020 </r>
       <r>    8.7708    0.0000 </r>
       <r>    8.8775    0.0000 </r>
       <r>    9.0021    0.0000 </r>
      </set>
      <set comment="kpoint 33">
       <r>  -35.6063    1.0000 </r>
       <r>  -14.1477    1.0000 </r>
       <r>  -14.1440    1.0000 </r>
       <r>  -14.1194    1.0000 </r>
       <r>  -14.1143    1.0000 </r>
       <r>  -14.1131    1.0000 </r>
       <r>  -10.9153    1.0000 </r>
       <r>  -10.8260    1.0000 </r>
       <r>  -10.8136    1.0000 </r>
       <r>   -2.5517    1.0000 </r>
       <r>    3.2343    1.0000 </r>
       <r>    4.1178    1.0000 </r>
       <r>    4.3376    1.0000 </r>
       <r>    4.9512    1.0000 </r>
       <r>    4.9693    1.0000 </r>
       <r>    5.3359    1.0000 </r>
       <r>    6.4505    1.0000 </r>
       <r>    7.0349    1.0000 </r>
       <r>    8.2694    1.0000 </r>
       <r>    8.6324    0.0002 </r>
       <r>    8.6532    0.0000 </r>
       <r>    8.7998    0.0000 </r>
       <r>    8.8624    0.0000 </r>
       <r>    8.9681    0.0000 </r>
      </set>
      <set comment="kpoint 34">
       <r>  -35.6061    1.0000 </r>
       <r>  -14.1481    1.0000 </r>
       <r>  -14.1462    1.0000 </r>
       <r>  -14.1189    1.0000 </r>
       <r>  -14.1148    1.0000 </r>
       <r>  -14.1131    1.0000 </r>
       <r>  -10.9215    1.0000 </r>
       <r>  -10.8340    1.0000 </r>
       <r>  -10.8040    1.0000 </r>
       <r>   -2.4885    1.0000 </r>
       <r>    3.3042    1.0000 </r>
       <r>    4.0750    1.0000 </r>
       <r>    4.2006    1.0000 </r>
       <r>    4.9123    1.0000 </r>
       <r>    5.0058    1.0000 </r>
       <r>    5.2267    1.0000 </r>
       <r>    6.3330    1.0000 </r>
       <r>    7.0357    1.0000 </r>
       <r>    8.2881    1.0000 </r>
       <r>    8.6352    0.0000 </r>
       <r>    8.6897    0.0000 </r>
       <r>    8.8300    0.0000 </r>
       <r>    8.8443    0.0000 </r>
       <r>    8.9433    0.0000 </r>
      </set>
      <set comment="kpoint 35">
       <r>  -35.6061    1.0000 </r>
       <r>  -14.1516    1.0000 </r>
       <r>  -14.1448    1.0000 </r>
       <r>  -14.1182    1.0000 </r>
       <r>  -14.1153    1.0000 </r>
       <r>  -14.1133    1.0000 </r>
       <r>  -10.9176    1.0000 </r>
       <r>  -10.8435    1.0000 </r>
       <r>  -10.7949    1.0000 </r>
       <r>   -2.4697    1.0000 </r>
       <r>    3.2848    1.0000 </r>
       <r>    4.0675    1.0000 </r>
       <r>    4.1271    1.0000 </r>
       <r>    4.8606    1.0000 </r>
       <r>    5.0829    1.0000 </r>
       <r>    5.2584    1.0000 </r>
       <r>    6.2475    1.0000 </r>
       <r>    7.0371    1.0000 </r>
       <r>    8.2936    1.0000 </r>
       <r>    8.6157    0.1045 </r>
       <r>    8.7304    0.0000 </r>
       <r>    8.7829    0.0000 </r>
       <r>    8.8730    0.0000 </r>
       <r>    8.9194    0.0000 </r>
      </set>
      <set comment="kpoint 36">
       <r>  -35.6063    1.0000 </r>
       <r>  -14.1538    1.0000 </r>
       <r>  -14.1438    1.0000 </r>
       <r>  -14.1177    1.0000 </r>
       <r>  -14.1156    1.0000 </r>
       <r>  -14.1138    1.0000 </r>
       <r>  -10.9074    1.0000 </r>
       <r>  -10.8495    1.0000 </r>
       <r>  -10.7881    1.0000 </r>
       <r>   -2.5012    1.0000 </r>
       <r>    3.2083    1.0000 </r>
       <r>    3.9685    1.0000 </r>
       <r>    4.2466    1.0000 </r>
       <r>    4.8439    1.0000 </r>
       <r>    5.1509    1.0000 </r>
       <r>    5.4054    1.0000 </r>
       <r>    6.1814    1.0000 </r>
       <r>    7.0687    1.0000 </r>
       <r>    8.2740    1.0000 </r>
       <r>    8.5965    0.9293 </r>
       <r>    8.7201    0.0000 </r>
       <r>    8.7829    0.0000 </r>
       <r>    8.8701    0.0000 </r>
       <r>    8.9026    0.0000 </r>
      </set>
      <set comment="kpoint 37">
       <r>  -35.6067    1.0000 </r>
       <r>  -14.1542    1.0000 </r>
       <r>  -14.1433    1.0000 </r>
       <r>  -14.1178    1.0000 </r>
       <r>  -14.1153    1.0000 </r>
       <r>  -14.1144    1.0000 </r>
       <r>  -10.8982    1.0000 </r>
       <r>  -10.8451    1.0000 </r>
       <r>  -10.7854    1.0000 </r>
       <r>   -2.5820    1.0000 </r>
       <r>    3.1772    1.0000 </r>
       <r>    3.9241    1.0000 </r>
       <r>    4.3809    1.0000 </r>
       <r>    4.8349    1.0000 </r>
       <r>    5.1801    1.0000 </r>
       <r>    5.5579    1.0000 </r>
       <r>    6.2288    1.0000 </r>
       <r>    7.1478    1.0000 </r>
       <r>    8.2267    1.0000 </r>
       <r>    8.5902    0.9909 </r>
       <r>    8.6721    0.0000 </r>
       <r>    8.8094    0.0000 </r>
       <r>    8.8610    0.0000 </r>
       <r>    8.9145    0.0000 </r>
      </set>
      <set comment="kpoint 38">
       <r>  -35.6067    1.0000 </r>
       <r>  -14.1480    1.0000 </r>
       <r>  -14.1364    1.0000 </r>
       <r>  -14.1200    1.0000 </r>
       <r>  -14.1135    1.0000 </r>
       <r>  -14.1135    1.0000 </r>
       <r>  -10.8833    1.0000 </r>
       <r>  -10.8306    1.0000 </r>
       <r>  -10.8306    1.0000 </r>
       <r>   -2.7212    1.0000 </r>
       <r>    3.1371    1.0000 </r>
       <r>    4.5336    1.0000 </r>
       <r>    4.5336    1.0000 </r>
       <r>    4.7028    1.0000 </r>
       <r>    4.9637    1.0000 </r>
       <r>    5.7195    1.0000 </r>
       <r>    6.9855    1.0000 </r>
       <r>    6.9855    1.0000 </r>
       <r>    8.1662    1.0000 </r>
       <r>    8.6216    0.0184 </r>
       <r>    8.6216    0.0184 </r>
       <r>    8.6988    0.0000 </r>
       <r>    8.9186    0.0000 </r>
       <r>    9.1312    0.0000 </r>
      </set>
      <set comment="kpoint 39">
       <r>  -35.6064    1.0000 </r>
       <r>  -14.1457    1.0000 </r>
       <r>  -14.1371    1.0000 </r>
       <r>  -14.1204    1.0000 </r>
       <r>  -14.1131    1.0000 </r>
       <r>  -14.1129    1.0000 </r>
       <r>  -10.8988    1.0000 </r>
       <r>  -10.8327    1.0000 </r>
       <r>  -10.8307    1.0000 </r>
       <r>   -2.6647    1.0000 </r>
       <r>    3.2324    1.0000 </r>
       <r>    4.3870    1.0000 </r>
       <r>    4.4982    1.0000 </r>
       <r>    4.7696    1.0000 </r>
       <r>    4.9836    1.0000 </r>
       <r>    5.5379    1.0000 </r>
       <r>    6.8337    1.0000 </r>
       <r>    7.0030    1.0000 </r>
       <r>    8.2775    1.0000 </r>
       <r>    8.6108    0.2871 </r>
       <r>    8.6352    0.0000 </r>
       <r>    8.7139    0.0000 </r>
       <r>    8.9348    0.0000 </r>
       <r>    9.0591    0.0000 </r>
      </set>
      <set comment="kpoint 40">
       <r>  -35.6061    1.0000 </r>
       <r>  -14.1436    1.0000 </r>
       <r>  -14.1396    1.0000 </r>
       <r>  -14.1203    1.0000 </r>
       <r>  -14.1133    1.0000 </r>
       <r>  -14.1126    1.0000 </r>
       <r>  -10.9102    1.0000 </r>
       <r>  -10.8386    1.0000 </r>
       <r>  -10.8256    1.0000 </r>
       <r>   -2.6056    1.0000 </r>
       <r>    3.4001    1.0000 </r>
       <r>    4.2191    1.0000 </r>
       <r>    4.4137    1.0000 </r>
       <r>    4.8686    1.0000 </r>
       <r>    5.0053    1.0000 </r>
       <r>    5.3457    1.0000 </r>
       <r>    6.5190    1.0000 </r>
       <r>    7.0164    1.0000 </r>
       <r>    8.3589    1.0000 </r>
       <r>    8.6145    0.1395 </r>
       <r>    8.6563    0.0000 </r>
       <r>    8.7573    0.0000 </r>
       <r>    8.9284    0.0000 </r>
       <r>    8.9931    0.0000 </r>
      </set>
      <set comment="kpoint 41">
       <r>  -35.6060    1.0000 </r>
       <r>  -14.1434    1.0000 </r>
       <r>  -14.1421    1.0000 </r>
       <r>  -14.1197    1.0000 </r>
       <r>  -14.1139    1.0000 </r>
       <r>  -14.1125    1.0000 </r>
       <r>  -10.9120    1.0000 </r>
       <r>  -10.8501    1.0000 </r>
       <r>  -10.8166    1.0000 </r>
       <r>   -2.5523    1.0000 </r>
       <r>    3.5594    1.0000 </r>
       <r>    4.1082    1.0000 </r>
       <r>    4.2904    1.0000 </r>
       <r>    4.8778    1.0000 </r>
       <r>    5.0493    1.0000 </r>
       <r>    5.2632    1.0000 </r>
       <r>    6.2183    1.0000 </r>
       <r>    7.0032    1.0000 </r>
       <r>    8.3745    1.0000 </r>
       <r>    8.6223    0.0147 </r>
       <r>    8.6848    0.0000 </r>
       <r>    8.8221    0.0000 </r>
       <r>    8.8956    0.0000 </r>
       <r>    8.9410    0.0000 </r>
      </set>
      <set comment="kpoint 42">
       <r>  -35.6059    1.0000 </r>
       <r>  -14.1477    1.0000 </r>
       <r>  -14.1416    1.0000 </r>
       <r>  -14.1186    1.0000 </r>
       <r>  -14.1150    1.0000 </r>
       <r>  -14.1128    1.0000 </r>
       <r>  -10.9042    1.0000 </r>
       <r>  -10.8643    1.0000 </r>
       <r>  -10.8058    1.0000 </r>
       <r>   -2.5112    1.0000 </r>
       <r>    3.5692    1.0000 </r>
       <r>    4.0763    1.0000 </r>
       <r>    4.1559    1.0000 </r>
       <r>    4.8376    1.0000 </r>
       <r>    5.1054    1.0000 </r>
       <r>    5.3378    1.0000 </r>
       <r>    6.0123    1.0000 </r>
       <r>    6.9845    1.0000 </r>
       <r>    8.3674    1.0000 </r>
       <r>    8.6107    0.2920 </r>
       <r>    8.7174    0.0000 </r>
       <r>    8.8359    0.0000 </r>
       <r>    8.8652    0.0000 </r>
       <r>    8.9399    0.0000 </r>
      </set>
      <set comment="kpoint 43">
       <r>  -35.6061    1.0000 </r>
       <r>  -14.1514    1.0000 </r>
       <r>  -14.1423    1.0000 </r>
       <r>  -14.1175    1.0000 </r>
       <r>  -14.1159    1.0000 </r>
       <r>  -14.1132    1.0000 </r>
       <r>  -10.8984    1.0000 </r>
       <r>  -10.8684    1.0000 </r>
       <r>  -10.7955    1.0000 </r>
       <r>   -2.4909    1.0000 </r>
       <r>    3.3968    1.0000 </r>
       <r>    4.0406    1.0000 </r>
       <r>    4.1411    1.0000 </r>
       <r>    4.8393    1.0000 </r>
       <r>    5.1466    1.0000 </r>
       <r>    5.4398    1.0000 </r>
       <r>    5.9653    1.0000 </r>
       <r>    6.9994    1.0000 </r>
       <r>    8.3378    1.0000 </r>
       <r>    8.5962    0.9342 </r>
       <r>    8.7506    0.0000 </r>
       <r>    8.7759    0.0000 </r>
       <r>    8.8683    0.0000 </r>
       <r>    8.9215    0.0000 </r>
      </set>
      <set comment="kpoint 44">
       <r>  -35.6062    1.0000 </r>
       <r>  -14.1424    1.0000 </r>
       <r>  -14.1357    1.0000 </r>
       <r>  -14.1211    1.0000 </r>
       <r>  -14.1124    1.0000 </r>
       <r>  -14.1124    1.0000 </r>
       <r>  -10.9089    1.0000 </r>
       <r>  -10.8354    1.0000 </r>
       <r>  -10.8354    1.0000 </r>
       <r>   -2.6617    1.0000 </r>
       <r>    3.3863    1.0000 </r>
       <r>    4.5046    1.0000 </r>
       <r>    4.5046    1.0000 </r>
       <r>    4.5767    1.0000 </r>
       <r>    5.0142    1.0000 </r>
       <r>    5.3646    1.0000 </r>
       <r>    7.0317    1.0000 </r>
       <r>    7.0317    1.0000 </r>
       <r>    8.3273    1.0000 </r>
       <r>    8.6459    0.0000 </r>
       <r>    8.6459    0.0000 </r>
       <r>    8.6614    0.0000 </r>
       <r>    8.9741    0.0000 </r>
       <r>    9.1468    0.0000 </r>
      </set>
      <set comment="kpoint 45">
       <r>  -35.6060    1.0000 </r>
       <r>  -14.1399    1.0000 </r>
       <r>  -14.1364    1.0000 </r>
       <r>  -14.1212    1.0000 </r>
       <r>  -14.1123    1.0000 </r>
       <r>  -14.1121    1.0000 </r>
       <r>  -10.9172    1.0000 </r>
       <r>  -10.8394    1.0000 </r>
       <r>  -10.8345    1.0000 </r>
       <r>   -2.6419    1.0000 </r>
       <r>    3.5922    1.0000 </r>
       <r>    4.3423    1.0000 </r>
       <r>    4.4648    1.0000 </r>
       <r>    4.6911    1.0000 </r>
       <r>    5.0337    1.0000 </r>
       <r>    5.1641    1.0000 </r>
       <r>    6.8744    1.0000 </r>
       <r>    7.0531    1.0000 </r>
       <r>    8.4449    1.0000 </r>
       <r>    8.6135    0.1724 </r>
       <r>    8.6607    0.0000 </r>
       <r>    8.7110    0.0000 </r>
       <r>    8.9869    0.0000 </r>
       <r>    9.0089    0.0000 </r>
      </set>
      <set comment="kpoint 46">
       <r>  -35.6059    1.0000 </r>
       <r>  -14.1392    1.0000 </r>
       <r>  -14.1388    1.0000 </r>
       <r>  -14.1208    1.0000 </r>
       <r>  -14.1128    1.0000 </r>
       <r>  -14.1120    1.0000 </r>
       <r>  -10.9166    1.0000 </r>
       <r>  -10.8494    1.0000 </r>
       <r>  -10.8281    1.0000 </r>
       <r>   -2.6074    1.0000 </r>
       <r>    3.7687    1.0000 </r>
       <r>    4.1960    1.0000 </r>
       <r>    4.3801    1.0000 </r>
       <r>    4.7935    1.0000 </r>
       <r>    5.0620    1.0000 </r>
       <r>    5.0677    1.0000 </r>
       <r>    6.4976    1.0000 </r>
       <r>    7.0327    1.0000 </r>
       <r>    8.4641    1.0000 </r>
       <r>    8.6151    0.1223 </r>
       <r>    8.6790    0.0000 </r>
       <r>    8.8011    0.0000 </r>
       <r>    8.9212    0.0000 </r>
       <r>    8.9797    0.0000 </r>
      </set>
      <set comment="kpoint 47">
       <r>  -35.6058    1.0000 </r>
       <r>  -14.1432    1.0000 </r>
       <r>  -14.1394    1.0000 </r>
       <r>  -14.1198    1.0000 </r>
       <r>  -14.1138    1.0000 </r>
       <r>  -14.1123    1.0000 </r>
       <r>  -10.9074    1.0000 </r>
       <r>  -10.8629    1.0000 </r>
       <r>  -10.8178    1.0000 </r>
       <r>   -2.5613    1.0000 </r>
       <r>    3.7830    1.0000 </r>
       <r>    4.0915    1.0000 </r>
       <r>    4.2684    1.0000 </r>
       <r>    4.8038    1.0000 </r>
       <r>    5.0935    1.0000 </r>
       <r>    5.2057    1.0000 </r>
       <r>    6.1392    1.0000 </r>
       <r>    6.9927    1.0000 </r>
       <r>    8.4231    1.0000 </r>
       <r>    8.6152    0.1187 </r>
       <r>    8.6985    0.0000 </r>
       <r>    8.8706    0.0000 </r>
       <r>    8.9125    0.0000 </r>
       <r>    8.9643    0.0000 </r>
      </set>
      <set comment="kpoint 48">
       <r>  -35.6059    1.0000 </r>
       <r>  -14.1376    1.0000 </r>
       <r>  -14.1352    1.0000 </r>
       <r>  -14.1216    1.0000 </r>
       <r>  -14.1118    1.0000 </r>
       <r>  -14.1118    1.0000 </r>
       <r>  -10.9248    1.0000 </r>
       <r>  -10.8382    1.0000 </r>
       <r>  -10.8382    1.0000 </r>
       <r>   -2.6553    1.0000 </r>
       <r>    3.7821    1.0000 </r>
       <r>    4.4796    1.0000 </r>
       <r>    4.4796    1.0000 </r>
       <r>    4.5029    1.0000 </r>
       <r>    4.9712    1.0000 </r>
       <r>    5.0434    1.0000 </r>
       <r>    7.0922    1.0000 </r>
       <r>    7.0922    1.0000 </r>
       <r>    8.5435    1.0000 </r>
       <r>    8.6429    0.0000 </r>
       <r>    8.6665    0.0000 </r>
       <r>    8.6665    0.0000 </r>
       <r>    8.9400    0.0000 </r>
       <r>    9.0115    0.0000 </r>
      </set>
      <set comment="kpoint 49">
       <r>  -35.6058    1.0000 </r>
       <r>  -14.1372    1.0000 </r>
       <r>  -14.1362    1.0000 </r>
       <r>  -14.1215    1.0000 </r>
       <r>  -14.1119    1.0000 </r>
       <r>  -14.1117    1.0000 </r>
       <r>  -10.9244    1.0000 </r>
       <r>  -10.8418    1.0000 </r>
       <r>  -10.8359    1.0000 </r>
       <r>   -2.6434    1.0000 </r>
       <r>    3.8657    1.0000 </r>
       <r>    4.3241    1.0000 </r>
       <r>    4.4493    1.0000 </r>
       <r>    4.6610    1.0000 </r>
       <r>    4.9053    1.0000 </r>
       <r>    5.0534    1.0000 </r>
       <r>    6.9030    1.0000 </r>
       <r>    7.0819    1.0000 </r>
       <r>    8.5546    1.0000 </r>
       <r>    8.6128    0.1988 </r>
       <r>    8.6728    0.0000 </r>
       <r>    8.7599    0.0000 </r>
       <r>    8.8788    0.0000 </r>
       <r>    9.0112    0.0000 </r>
      </set>
      <set comment="kpoint 50">
       <r>  -35.6079    1.0000 </r>
       <r>  -14.1472    1.0000 </r>
       <r>  -14.1400    1.0000 </r>
       <r>  -14.1176    1.0000 </r>
       <r>  -14.1157    1.0000 </r>
       <r>  -14.1156    1.0000 </r>
       <r>  -10.8514    1.0000 </r>
       <r>  -10.8221    1.0000 </r>
       <r>  -10.8052    1.0000 </r>
       <r>   -3.0151    1.0000 </r>
       <r>    3.6152    1.0000 </r>
       <r>    4.2571    1.0000 </r>
       <r>    4.5211    1.0000 </r>
       <r>    4.8578    1.0000 </r>
       <r>    5.0384    1.0000 </r>
       <r>    6.0586    1.0000 </r>
       <r>    7.0093    1.0000 </r>
       <r>    7.3474    1.0000 </r>
       <r>    8.0977    1.0000 </r>
       <r>    8.5677    1.0000 </r>
       <r>    8.5960    0.9386 </r>
       <r>    8.7405    0.0000 </r>
       <r>    8.8102    0.0000 </r>
       <r>    8.9261    0.0000 </r>
      </set>
      <set comment="kpoint 51">
       <r>  -35.6075    1.0000 </r>
       <r>  -14.1502    1.0000 </r>
       <r>  -14.1417    1.0000 </r>
       <r>  -14.1180    1.0000 </r>
       <r>  -14.1153    1.0000 </r>
       <r>  -14.1151    1.0000 </r>
       <r>  -10.8761    1.0000 </r>
       <r>  -10.8227    1.0000 </r>
       <r>  -10.7978    1.0000 </r>
       <r>   -2.8445    1.0000 </r>
       <r>    3.3743    1.0000 </r>
       <r>    4.1173    1.0000 </r>
       <r>    4.4727    1.0000 </r>
       <r>    4.8748    1.0000 </r>
       <r>    5.0947    1.0000 </r>
       <r>    5.7806    1.0000 </r>
       <r>    6.7906    1.0000 </r>
       <r>    7.2687    1.0000 </r>
       <r>    8.1148    1.0000 </r>
       <r>    8.5836    0.9995 </r>
       <r>    8.5986    0.8777 </r>
       <r>    8.8145    0.0000 </r>
       <r>    8.8194    0.0000 </r>
       <r>    8.9898    0.0000 </r>
      </set>
      <set comment="kpoint 52">
       <r>  -35.6070    1.0000 </r>
       <r>  -14.1524    1.0000 </r>
       <r>  -14.1446    1.0000 </r>
       <r>  -14.1185    1.0000 </r>
[...]
       <r>    8.3852    1.0000 </r>
       <r>    8.6344    0.0000 </r>
       <r>    8.7582    0.0000 </r>
       <r>    8.8141    0.0000 </r>
       <r>    8.8667    0.0000 </r>
       <r>    8.9392    0.0000 </r>
      </set>
      <set comment="kpoint 81">
       <r>  -35.6060    1.0000 </r>
       <r>  -14.1493    1.0000 </r>
       <r>  -14.1402    1.0000 </r>
       <r>  -14.1180    1.0000 </r>
       <r>  -14.1160    1.0000 </r>
       <r>  -14.1124    1.0000 </r>
       <r>  -10.8990    1.0000 </r>
       <r>  -10.8644    1.0000 </r>
       <r>  -10.8086    1.0000 </r>
       <r>   -2.5182    1.0000 </r>
       <r>    3.5212    1.0000 </r>
       <r>    3.9627    1.0000 </r>
       <r>    4.3526    1.0000 </r>
       <r>    4.8991    1.0000 </r>
       <r>    5.0842    1.0000 </r>
       <r>    5.3982    1.0000 </r>
       <r>    5.7960    1.0000 </r>
       <r>    7.0829    1.0000 </r>
       <r>    8.3657    1.0000 </r>
       <r>    8.6205    0.0268 </r>
       <r>    8.7508    0.0000 </r>
       <r>    8.8031    0.0000 </r>
       <r>    8.8492    0.0000 </r>
       <r>    8.9389    0.0000 </r>
      </set>
      <set comment="kpoint 82">
       <r>  -35.6058    1.0000 </r>
       <r>  -14.1438    1.0000 </r>
       <r>  -14.1370    1.0000 </r>
       <r>  -14.1200    1.0000 </r>
       <r>  -14.1142    1.0000 </r>
       <r>  -14.1117    1.0000 </r>
       <r>  -10.9087    1.0000 </r>
       <r>  -10.8540    1.0000 </r>
       <r>  -10.8282    1.0000 </r>
       <r>   -2.5782    1.0000 </r>
       <r>    3.7896    1.0000 </r>
       <r>    4.0448    1.0000 </r>
       <r>    4.4643    1.0000 </r>
       <r>    4.8823    1.0000 </r>
       <r>    5.0553    1.0000 </r>
       <r>    5.1152    1.0000 </r>
       <r>    5.9979    1.0000 </r>
       <r>    7.1410    1.0000 </r>
       <r>    8.4363    1.0000 </r>
       <r>    8.6349    0.0000 </r>
       <r>    8.7138    0.0000 </r>
       <r>    8.8360    0.0000 </r>
       <r>    8.9044    0.0000 </r>
       <r>    8.9324    0.0000 </r>
      </set>
      <set comment="kpoint 83">
       <r>  -35.6058    1.0000 </r>
       <r>  -14.1460    1.0000 </r>
       <r>  -14.1371    1.0000 </r>
       <r>  -14.1190    1.0000 </r>
       <r>  -14.1153    1.0000 </r>
       <r>  -14.1117    1.0000 </r>
       <r>  -10.9007    1.0000 </r>
       <r>  -10.8638    1.0000 </r>
       <r>  -10.8243    1.0000 </r>
       <r>   -2.5527    1.0000 </r>
       <r>    3.8454    1.0000 </r>
       <r>    3.9627    1.0000 </r>
       <r>    4.4358    1.0000 </r>
       <r>    4.8861    1.0000 </r>
       <r>    5.0895    1.0000 </r>
       <r>    5.2049    1.0000 </r>
       <r>    5.7049    1.0000 </r>
       <r>    7.1390    1.0000 </r>
       <r>    8.4177    1.0000 </r>
       <r>    8.6444    0.0000 </r>
       <r>    8.7404    0.0000 </r>
       <r>    8.8550    0.0000 </r>
       <r>    8.8874    0.0000 </r>
       <r>    8.9027    0.0000 </r>
      </set>
      <set comment="kpoint 84">
       <r>  -35.6058    1.0000 </r>
       <r>  -14.1473    1.0000 </r>
       <r>  -14.1371    1.0000 </r>
       <r>  -14.1182    1.0000 </r>
       <r>  -14.1162    1.0000 </r>
       <r>  -14.1117    1.0000 </r>
       <r>  -10.8957    1.0000 </r>
       <r>  -10.8674    1.0000 </r>
       <r>  -10.8234    1.0000 </r>
       <r>   -2.5411    1.0000 </r>
       <r>    3.8285    1.0000 </r>
       <r>    3.9235    1.0000 </r>
       <r>    4.4487    1.0000 </r>
       <r>    4.9268    1.0000 </r>
       <r>    5.1109    1.0000 </r>
       <r>    5.2895    1.0000 </r>
       <r>    5.4960    1.0000 </r>
       <r>    7.1543    1.0000 </r>
       <r>    8.4065    1.0000 </r>
       <r>    8.6504    0.0000 </r>
       <r>    8.7673    0.0000 </r>
       <r>    8.8255    0.0000 </r>
       <r>    8.8727    0.0000 </r>
       <r>    8.9221    0.0000 </r>
      </set>
     </set>
    </set>
   </array>
  </eigenvalues>
  <separator name="orbital magnetization" >
   <v name="MAGDIPOLOUT">      0.00000000      0.00000000      0.00000000</v>
  </separator>
  <dos>
   <i name="efermi">      8.60686152 </i>
   <total>
    <array>
     <dimension dim="1">gridpoints</dimension>
     <dimension dim="2">spin</dimension>
     <field>energy</field>
     <field>total</field>
     <field>integrated</field>
     <set>
      <set comment="spin 1">
       <r>   -37.8465     0.0000     0.0000 </r>
       <r>   -37.6824     0.0000     0.0000 </r>
       <r>   -37.5183     0.0000     0.0000 </r>
       <r>   -37.3542     0.0000     0.0000 </r>
       <r>   -37.1901     0.0000     0.0000 </r>
       <r>   -37.0260     0.0000     0.0000 </r>
       <r>   -36.8619     0.0000     0.0000 </r>
       <r>   -36.6978     0.0000     0.0000 </r>
       <r>   -36.5337     0.0000     0.0000 </r>
       <r>   -36.3695     0.0000     0.0000 </r>
       <r>   -36.2054     0.0000     0.0000 </r>
       <r>   -36.0413     0.0000     0.0000 </r>
       <r>   -35.8772     0.0000     0.0000 </r>
       <r>   -35.7131     0.0000     0.0000 </r>
       <r>   -35.5490    12.1874     2.0000 </r>
       <r>   -35.3849     0.0000     2.0000 </r>
       <r>   -35.2208     0.0000     2.0000 </r>
       <r>   -35.0567     0.0000     2.0000 </r>
       <r>   -34.8926     0.0000     2.0000 </r>
       <r>   -34.7285     0.0000     2.0000 </r>
       <r>   -34.5644     0.0000     2.0000 </r>
       <r>   -34.4003     0.0000     2.0000 </r>
       <r>   -34.2362     0.0000     2.0000 </r>
       <r>   -34.0721     0.0000     2.0000 </r>
       <r>   -33.9080     0.0000     2.0000 </r>
       <r>   -33.7439     0.0000     2.0000 </r>
       <r>   -33.5798     0.0000     2.0000 </r>
       <r>   -33.4157     0.0000     2.0000 </r>
       <r>   -33.2516     0.0000     2.0000 </r>
       <r>   -33.0875     0.0000     2.0000 </r>
       <r>   -32.9234     0.0000     2.0000 </r>
       <r>   -32.7593     0.0000     2.0000 </r>
       <r>   -32.5952     0.0000     2.0000 </r>
       <r>   -32.4311     0.0000     2.0000 </r>
       <r>   -32.2670     0.0000     2.0000 </r>
       <r>   -32.1029     0.0000     2.0000 </r>
       <r>   -31.9388     0.0000     2.0000 </r>
       <r>   -31.7747     0.0000     2.0000 </r>
       <r>   -31.6105     0.0000     2.0000 </r>
       <r>   -31.4464     0.0000     2.0000 </r>
       <r>   -31.2823     0.0000     2.0000 </r>
       <r>   -31.1182     0.0000     2.0000 </r>
       <r>   -30.9541     0.0000     2.0000 </r>
       <r>   -30.7900     0.0000     2.0000 </r>
       <r>   -30.6259     0.0000     2.0000 </r>
       <r>   -30.4618     0.0000     2.0000 </r>
       <r>   -30.2977     0.0000     2.0000 </r>
       <r>   -30.1336     0.0000     2.0000 </r>
       <r>   -29.9695     0.0000     2.0000 </r>
       <r>   -29.8054     0.0000     2.0000 </r>
       <r>   -29.6413     0.0000     2.0000 </r>
       <r>   -29.4772     0.0000     2.0000 </r>
       <r>   -29.3131     0.0000     2.0000 </r>
       <r>   -29.1490     0.0000     2.0000 </r>
       <r>   -28.9849     0.0000     2.0000 </r>
       <r>   -28.8208     0.0000     2.0000 </r>
       <r>   -28.6567     0.0000     2.0000 </r>
       <r>   -28.4926     0.0000     2.0000 </r>
       <r>   -28.3285     0.0000     2.0000 </r>
       <r>   -28.1644     0.0000     2.0000 </r>
       <r>   -28.0003     0.0000     2.0000 </r>
       <r>   -27.8362     0.0000     2.0000 </r>
       <r>   -27.6721     0.0000     2.0000 </r>
       <r>   -27.5080     0.0000     2.0000 </r>
       <r>   -27.3439     0.0000     2.0000 </r>
       <r>   -27.1798     0.0000     2.0000 </r>
       <r>   -27.0157     0.0000     2.0000 </r>
       <r>   -26.8515     0.0000     2.0000 </r>
       <r>   -26.6874     0.0000     2.0000 </r>
       <r>   -26.5233     0.0000     2.0000 </r>
       <r>   -26.3592     0.0000     2.0000 </r>
       <r>   -26.1951     0.0000     2.0000 </r>
       <r>   -26.0310     0.0000     2.0000 </r>
       <r>   -25.8669     0.0000     2.0000 </r>
       <r>   -25.7028     0.0000     2.0000 </r>
       <r>   -25.5387     0.0000     2.0000 </r>
       <r>   -25.3746     0.0000     2.0000 </r>
       <r>   -25.2105     0.0000     2.0000 </r>
       <r>   -25.0464     0.0000     2.0000 </r>
       <r>   -24.8823     0.0000     2.0000 </r>
       <r>   -24.7182     0.0000     2.0000 </r>
       <r>   -24.5541     0.0000     2.0000 </r>
       <r>   -24.3900     0.0000     2.0000 </r>
       <r>   -24.2259     0.0000     2.0000 </r>
       <r>   -24.0618     0.0000     2.0000 </r>
       <r>   -23.8977     0.0000     2.0000 </r>
       <r>   -23.7336     0.0000     2.0000 </r>
       <r>   -23.5695     0.0000     2.0000 </r>
       <r>   -23.4054     0.0000     2.0000 </r>
       <r>   -23.2413     0.0000     2.0000 </r>
       <r>   -23.0772     0.0000     2.0000 </r>
       <r>   -22.9131     0.0000     2.0000 </r>
       <r>   -22.7490     0.0000     2.0000 </r>
       <r>   -22.5849     0.0000     2.0000 </r>
       <r>   -22.4208     0.0000     2.0000 </r>
       <r>   -22.2567     0.0000     2.0000 </r>
       <r>   -22.0925     0.0000     2.0000 </r>
       <r>   -21.9284     0.0000     2.0000 </r>
       <r>   -21.7643     0.0000     2.0000 </r>
       <r>   -21.6002     0.0000     2.0000 </r>
       <r>   -21.4361     0.0000     2.0000 </r>
       <r>   -21.2720     0.0000     2.0000 </r>
       <r>   -21.1079     0.0000     2.0000 </r>
       <r>   -20.9438     0.0000     2.0000 </r>
       <r>   -20.7797     0.0000     2.0000 </r>
       <r>   -20.6156     0.0000     2.0000 </r>
       <r>   -20.4515     0.0000     2.0000 </r>
       <r>   -20.2874     0.0000     2.0000 </r>
       <r>   -20.1233     0.0000     2.0000 </r>
       <r>   -19.9592     0.0000     2.0000 </r>
       <r>   -19.7951     0.0000     2.0000 </r>
       <r>   -19.6310     0.0000     2.0000 </r>
       <r>   -19.4669     0.0000     2.0000 </r>
       <r>   -19.3028     0.0000     2.0000 </r>
       <r>   -19.1387     0.0000     2.0000 </r>
       <r>   -18.9746     0.0000     2.0000 </r>
       <r>   -18.8105     0.0000     2.0000 </r>
       <r>   -18.6464     0.0000     2.0000 </r>
       <r>   -18.4823     0.0000     2.0000 </r>
       <r>   -18.3182     0.0000     2.0000 </r>
       <r>   -18.1541     0.0000     2.0000 </r>
       <r>   -17.9900     0.0000     2.0000 </r>
       <r>   -17.8259     0.0000     2.0000 </r>
       <r>   -17.6618     0.0000     2.0000 </r>
       <r>   -17.4977     0.0000     2.0000 </r>
       <r>   -17.3336     0.0000     2.0000 </r>
       <r>   -17.1694     0.0000     2.0000 </r>
       <r>   -17.0053     0.0000     2.0000 </r>
       <r>   -16.8412     0.0000     2.0000 </r>
       <r>   -16.6771     0.0000     2.0000 </r>
       <r>   -16.5130     0.0000     2.0000 </r>
       <r>   -16.3489     0.0000     2.0000 </r>
       <r>   -16.1848     0.0000     2.0000 </r>
       <r>   -16.0207     0.0000     2.0000 </r>
       <r>   -15.8566     0.0000     2.0000 </r>
       <r>   -15.6925     0.0000     2.0000 </r>
       <r>   -15.5284     0.0000     2.0000 </r>
       <r>   -15.3643     0.0000     2.0000 </r>
       <r>   -15.2002     0.0000     2.0000 </r>
       <r>   -15.0361     0.0000     2.0000 </r>
       <r>   -14.8720     0.0000     2.0000 </r>
       <r>   -14.7079     0.0000     2.0000 </r>
       <r>   -14.5438     0.0000     2.0000 </r>
       <r>   -14.3797     0.0000     2.0000 </r>
       <r>   -14.2156     0.0000     2.0000 </r>
       <r>   -14.0515    36.5623    12.0000 </r>
       <r>   -13.8874     0.0000    12.0000 </r>
       <r>   -13.7233     0.0000    12.0000 </r>
       <r>   -13.5592     0.0000    12.0000 </r>
       <r>   -13.3951     0.0000    12.0000 </r>
       <r>   -13.2310     0.0000    12.0000 </r>
       <r>   -13.0669     0.0000    12.0000 </r>
       <r>   -12.9028     0.0000    12.0000 </r>
       <r>   -12.7387     0.0000    12.0000 </r>
       <r>   -12.5746     0.0000    12.0000 </r>
       <r>   -12.4104     0.0000    12.0000 </r>
       <r>   -12.2463     0.0000    12.0000 </r>
       <r>   -12.0822     0.0000    12.0000 </r>
       <r>   -11.9181     0.0000    12.0000 </r>
       <r>   -11.7540     0.0000    12.0000 </r>
       <r>   -11.5899     0.0000    12.0000 </r>
       <r>   -11.4258     0.0000    12.0000 </r>
       <r>   -11.2617     0.0000    12.0000 </r>
       <r>   -11.0976     0.0000    12.0000 </r>
       <r>   -10.9335     0.9242    12.1517 </r>
       <r>   -10.7694    21.7956    17.9982 </r>
       <r>   -10.6053     0.0000    18.0000 </r>
       <r>   -10.4412     0.0000    18.0000 </r>
       <r>   -10.2771     0.0000    18.0000 </r>
       <r>   -10.1130     0.0000    18.0000 </r>
       <r>    -9.9489     0.0000    18.0000 </r>
       <r>    -9.7848     0.0000    18.0000 </r>
       <r>    -9.6207     0.0000    18.0000 </r>
       <r>    -9.4566     0.0000    18.0000 </r>
       <r>    -9.2925     0.0000    18.0000 </r>
       <r>    -9.1284     0.0000    18.0000 </r>
       <r>    -8.9643     0.0000    18.0000 </r>
       <r>    -8.8002     0.0000    18.0000 </r>
       <r>    -8.6361     0.0000    18.0000 </r>
       <r>    -8.4720     0.0000    18.0000 </r>
       <r>    -8.3079     0.0000    18.0000 </r>
       <r>    -8.1438     0.0000    18.0000 </r>
       <r>    -7.9797     0.0000    18.0000 </r>
       <r>    -7.8156     0.0000    18.0000 </r>
       <r>    -7.6514     0.0000    18.0000 </r>
       <r>    -7.4873     0.0000    18.0000 </r>
       <r>    -7.3232     0.0000    18.0000 </r>
       <r>    -7.1591     0.0000    18.0000 </r>
       <r>    -6.9950     0.0000    18.0000 </r>
       <r>    -6.8309     0.0000    18.0000 </r>
       <r>    -6.6668     0.0000    18.0000 </r>
       <r>    -6.5027     0.0000    18.0000 </r>
       <r>    -6.3386     0.0000    18.0000 </r>
       <r>    -6.1745     0.0000    18.0000 </r>
       <r>    -6.0104     0.0000    18.0000 </r>
       <r>    -5.8463     0.0000    18.0000 </r>
       <r>    -5.6822     0.0000    18.0000 </r>
       <r>    -5.5181     0.0000    18.0000 </r>
       <r>    -5.3540     0.0000    18.0000 </r>
       <r>    -5.1899     0.0000    18.0000 </r>
       <r>    -5.0258     0.0000    18.0000 </r>
       <r>    -4.8617     0.0000    18.0000 </r>
       <r>    -4.6976     0.0000    18.0000 </r>
       <r>    -4.5335     0.0000    18.0000 </r>
       <r>    -4.3694     0.0000    18.0000 </r>
       <r>    -4.2053     0.0000    18.0000 </r>
       <r>    -4.0412     0.0000    18.0000 </r>
       <r>    -3.8771     0.0000    18.0000 </r>
       <r>    -3.7130     0.0000    18.0000 </r>
       <r>    -3.5489     0.0000    18.0000 </r>
       <r>    -3.3848     0.0000    18.0000 </r>
       <r>    -3.2207     0.0776    18.0137 </r>
       <r>    -3.0566     0.2103    18.0591 </r>
       <r>    -2.8924     0.3107    18.1539 </r>
       <r>    -2.7283     0.4046    18.3240 </r>
       <r>    -2.5642     2.6211    18.9736 </r>
       <r>    -2.4001     1.2724    19.9830 </r>
       <r>    -2.2360     0.0000    20.0000 </r>
       <r>    -2.0719     0.0000    20.0000 </r>
       <r>    -1.9078     0.0000    20.0000 </r>
       <r>    -1.7437     0.0000    20.0000 </r>
       <r>    -1.5796     0.0000    20.0000 </r>
       <r>    -1.4155     0.0000    20.0000 </r>
       <r>    -1.2514     0.0000    20.0000 </r>
       <r>    -1.0873     0.0000    20.0000 </r>
       <r>    -0.9232     0.0000    20.0000 </r>
       <r>    -0.7591     0.0000    20.0000 </r>
       <r>    -0.5950     0.0000    20.0000 </r>
       <r>    -0.4309     0.0000    20.0000 </r>
       <r>    -0.2668     0.0000    20.0000 </r>
       <r>    -0.1027     0.0000    20.0000 </r>
       <r>     0.0614     0.0000    20.0000 </r>
       <r>     0.2255     0.0000    20.0000 </r>
       <r>     0.3896     0.0000    20.0000 </r>
       <r>     0.5537     0.0000    20.0000 </r>
       <r>     0.7178     0.0000    20.0000 </r>
       <r>     0.8819     0.0000    20.0000 </r>
       <r>     1.0460     0.0000    20.0000 </r>
       <r>     1.2101     0.0000    20.0000 </r>
       <r>     1.3742     0.0000    20.0000 </r>
       <r>     1.5383     0.0000    20.0000 </r>
       <r>     1.7024     0.0000    20.0000 </r>
       <r>     1.8665     0.0000    20.0000 </r>
       <r>     2.0307     0.0000    20.0000 </r>
       <r>     2.1948     0.0000    20.0000 </r>
       <r>     2.3589     0.0000    20.0000 </r>
       <r>     2.5230     0.0000    20.0000 </r>
       <r>     2.6871     0.0000    20.0000 </r>
       <r>     2.8512     0.0001    20.0000 </r>
       <r>     3.0153     0.3680    20.0895 </r>
       <r>     3.1794     1.8544    20.5592 </r>
       <r>     3.3435     0.7101    21.0706 </r>
       <r>     3.5076     0.6027    21.4262 </r>
       <r>     3.6717     1.1471    21.6794 </r>
       <r>     3.8358     0.7592    21.8906 </r>
       <r>     3.9999     2.6100    22.3964 </r>
       <r>     4.1640     2.8520    23.6560 </r>
       <r>     4.3281     2.8666    24.6179 </r>
       <r>     4.4922     3.7236    25.8109 </r>
       <r>     4.6563     0.0503    26.0137 </r>
       <r>     4.8204     0.6420    26.1764 </r>
       <r>     4.9845     5.3401    28.4585 </r>
       <r>     5.1486     4.0974    30.2154 </r>
       <r>     5.3127     1.7584    30.8985 </r>
       <r>     5.4768     1.0636    31.4090 </r>
       <r>     5.6409     0.4687    31.6609 </r>
       <r>     5.8050     0.4238    31.9066 </r>
       <r>     5.9691     0.0590    32.0543 </r>
       <r>     6.1332     0.9895    32.4418 </r>
       <r>     6.2973     0.6294    32.6249 </r>
       <r>     6.4614     1.0680    32.9809 </r>
       <r>     6.6255     0.4238    33.1720 </r>
       <r>     6.7897     1.2266    33.5122 </r>
       <r>     6.9538     0.3328    33.6495 </r>
       <r>     7.1179     6.3273    35.1248 </r>
       <r>     7.2820     1.3889    35.8001 </r>
       <r>     7.4461     0.1356    35.9367 </r>
       <r>     7.6102     0.1586    35.9987 </r>
       <r>     7.7743     0.0444    36.0082 </r>
       <r>     7.9384     0.1655    36.0499 </r>
       <r>     8.1025     0.5519    36.3045 </r>
       <r>     8.2666     2.3243    37.0596 </r>
       <r>     8.4307     2.3284    37.8741 </r>
       <r>     8.5948     3.2613    38.5243 </r>
       <r>     8.7589     6.6493    42.2154 </r>
       <r>     8.9230    12.1916    46.2519 </r>
       <r>     9.0871     1.1034    47.9881 </r>
       <r>     9.2512     0.0000    48.0000 </r>
       <r>     9.4153     0.0000    48.0000 </r>
       <r>     9.5794     0.0000    48.0000 </r>
       <r>     9.7435     0.0000    48.0000 </r>
       <r>     9.9076     0.0000    48.0000 </r>
       <r>    10.0717     0.0000    48.0000 </r>
       <r>    10.2358     0.0000    48.0000 </r>
       <r>    10.3999     0.0000    48.0000 </r>
       <r>    10.5640     0.0000    48.0000 </r>
       <r>    10.7281     0.0000    48.0000 </r>
       <r>    10.8922     0.0000    48.0000 </r>
       <r>    11.0563     0.0000    48.0000 </r>
       <r>    11.2204     0.0000    48.0000 </r>
       <r>    11.3845     0.0000    48.0000 </r>
      </set>
     </set>
    </array>
   </total>
  </dos>
 </calculation>
 <structure name="finalpos" >
  <crystal>
   <varray name="basis" >
    <v>       0.00000000       3.44536626       3.44536626 </v>
    <v>       3.44536626       0.00000000       3.44536626 </v>
    <v>       3.44536626       3.44536626       0.00000000 </v>
   </varray>
   <i name="volume">     81.79677607 </i>
   <varray name="rec_basis" >
    <v>      -0.14512245       0.14512245       0.14512245 </v>
    <v>       0.14512245      -0.14512245       0.14512245 </v>
    <v>       0.14512245       0.14512245      -0.14512245 </v>
   </varray>
  </crystal>
  <varray name="positions" >
   <v>       0.25000000       0.25000000       0.25000000 </v>
   <v>       0.75000000       0.75000000       0.75000000 </v>
   <v>       0.00000000       0.00000000       0.00000000 </v>
  </varray>
 </structure>
</modeling>
