   2   2   0   0
  0.2543391E+02  0.4158973E-09  0.4158973E-09  0.4158973E-09  0.0000000E+00
  1.000000000000000E-004
  CAR 
 unknown system                          
     16.58732034     -6.42808111  301      6.16326143      1.00000000
     -6.428  0.0000E+00  0.0000E+00
     -6.351  0.0000E+00  0.0000E+00
     -6.275  0.0000E+00  0.0000E+00
     -6.198  0.0000E+00  0.0000E+00
     -6.121  0.0000E+00  0.0000E+00
     -6.044  0.0000E+00  0.0000E+00
     -5.968  0.0000E+00  0.0000E+00
     -5.891  0.0000E+00  0.0000E+00
     -5.814  0.0000E+00  0.0000E+00
     -5.738  0.0000E+00  0.0000E+00
     -5.661  0.0000E+00  0.0000E+00
     -5.584  0.0000E+00  0.0000E+00
     -5.507  0.0000E+00  0.0000E+00
     -5.431  0.0000E+00  0.0000E+00
     -5.354  0.7564E-01  0.7034E-03
     -5.277  0.1445E+00  0.9009E-02
     -5.201  0.1973E+00  0.2190E-01
     -5.124  0.2333E+00  0.3842E-01
     -5.047  0.2755E+00  0.5800E-01
     -4.970  0.3059E+00  0.8023E-01
     -4.894  0.3422E+00  0.1051E+00
     -4.817  0.3708E+00  0.1324E+00
     -4.740  0.4027E+00  0.1621E+00
     -4.664  0.4351E+00  0.1943E+00
     -4.587  0.4653E+00  0.2288E+00
     -4.510  0.4984E+00  0.2657E+00
     -4.433  0.5327E+00  0.3053E+00
     -4.357  0.5676E+00  0.3475E+00
     -4.280  0.6055E+00  0.3925E+00
     -4.203  0.6463E+00  0.4405E+00
     -4.127  0.6924E+00  0.4918E+00
     -4.050  0.7441E+00  0.5469E+00
     -3.973  0.8026E+00  0.6061E+00
     -3.896  0.8749E+00  0.6703E+00
     -3.820  0.9715E+00  0.7410E+00
     -3.743  0.1112E+01  0.8204E+00
     -3.666  0.1355E+01  0.9159E+00
     -3.590  0.1394E+01  0.1023E+01
     -3.513  0.1348E+01  0.1129E+01
     -3.436  0.1351E+01  0.1232E+01
     -3.359  0.1343E+01  0.1336E+01
     -3.283  0.1328E+01  0.1438E+01
     -3.206  0.1352E+01  0.1541E+01
     -3.129  0.1369E+01  0.1645E+01
     -3.052  0.1439E+01  0.1753E+01
     -2.976  0.1617E+01  0.1869E+01
     -2.899  0.5683E+00  0.1994E+01
     -2.822  0.0000E+00  0.2000E+01
     -2.746  0.0000E+00  0.2000E+01
     -2.669  0.0000E+00  0.2000E+01
     -2.592  0.0000E+00  0.2000E+01
     -2.515  0.0000E+00  0.2000E+01
     -2.439  0.0000E+00  0.2000E+01
     -2.362  0.0000E+00  0.2000E+01
     -2.285  0.0000E+00  0.2000E+01
     -2.209  0.0000E+00  0.2000E+01
     -2.132  0.0000E+00  0.2000E+01
     -2.055  0.0000E+00  0.2000E+01
     -1.978  0.0000E+00  0.2000E+01
     -1.902  0.0000E+00  0.2000E+01
     -1.825  0.0000E+00  0.2000E+01
     -1.748  0.0000E+00  0.2000E+01
     -1.672  0.0000E+00  0.2000E+01
     -1.595  0.0000E+00  0.2000E+01
     -1.518  0.0000E+00  0.2000E+01
     -1.441  0.0000E+00  0.2000E+01
     -1.365  0.0000E+00  0.2000E+01
     -1.288  0.0000E+00  0.2000E+01
     -1.211  0.0000E+00  0.2000E+01
     -1.135  0.0000E+00  0.2000E+01
     -1.058  0.0000E+00  0.2000E+01
     -0.981  0.0000E+00  0.2000E+01
     -0.904  0.0000E+00  0.2000E+01
     -0.828  0.0000E+00  0.2000E+01
     -0.751  0.0000E+00  0.2000E+01
     -0.674  0.0000E+00  0.2000E+01
     -0.598  0.0000E+00  0.2000E+01
     -0.521  0.0000E+00  0.2000E+01
     -0.444  0.0000E+00  0.2000E+01
     -0.367  0.0000E+00  0.2000E+01
     -0.291  0.0000E+00  0.2000E+01
     -0.214  0.0000E+00  0.2000E+01
     -0.137  0.0000E+00  0.2000E+01
     -0.060  0.0000E+00  0.2000E+01
      0.016  0.0000E+00  0.2000E+01
      0.093  0.0000E+00  0.2000E+01
      0.170  0.5946E+00  0.2025E+01
      0.246  0.9625E+00  0.2083E+01
      0.323  0.1444E+01  0.2174E+01
      0.400  0.2476E+01  0.2318E+01
      0.477  0.2999E+01  0.2589E+01
      0.553  0.1743E+01  0.2756E+01
      0.630  0.1290E+01  0.2871E+01
      0.707  0.1093E+01  0.2962E+01
      0.783  0.9172E+00  0.3039E+01
      0.860  0.8119E+00  0.3104E+01
      0.937  0.7361E+00  0.3164E+01
      1.014  0.6614E+00  0.3217E+01
      1.090  0.5930E+00  0.3265E+01
      1.167  0.5551E+00  0.3309E+01
      1.244  0.5177E+00  0.3350E+01
      1.320  0.4810E+00  0.3389E+01
      1.397  0.4381E+00  0.3424E+01
      1.474  0.4126E+00  0.3456E+01
      1.551  0.3922E+00  0.3487E+01
      1.627  0.3717E+00  0.3517E+01
      1.704  0.3480E+00  0.3544E+01
      1.781  0.3255E+00  0.3570E+01
      1.857  0.3033E+00  0.3594E+01
      1.934  0.2909E+00  0.3617E+01
      2.011  0.2780E+00  0.3639E+01
      2.088  0.2644E+00  0.3659E+01
      2.164  0.2505E+00  0.3679E+01
      2.241  0.5309E+00  0.3708E+01
      2.318  0.8227E+00  0.3763E+01
      2.394  0.1117E+01  0.3836E+01
      2.471  0.1365E+01  0.3942E+01
      2.548  0.1246E+01  0.4041E+01
      2.625  0.1141E+01  0.4132E+01
      2.701  0.1089E+01  0.4218E+01
      2.778  0.1070E+01  0.4300E+01
      2.855  0.1060E+01  0.4383E+01
      2.932  0.1021E+01  0.4462E+01
      3.008  0.1055E+01  0.4543E+01
      3.085  0.1102E+01  0.4625E+01
      3.162  0.1159E+01  0.4713E+01
      3.238  0.1201E+01  0.4804E+01
      3.315  0.1241E+01  0.4898E+01
      3.392  0.1305E+01  0.4995E+01
      3.469  0.1390E+01  0.5097E+01
      3.545  0.1574E+01  0.5210E+01
      3.622  0.1719E+01  0.5339E+01
      3.699  0.1649E+01  0.5468E+01
      3.775  0.1638E+01  0.5594E+01
      3.852  0.1598E+01  0.5718E+01
      3.929  0.1588E+01  0.5840E+01
      4.006  0.1565E+01  0.5961E+01
      4.082  0.1529E+01  0.6080E+01
      4.159  0.1501E+01  0.6196E+01
      4.236  0.1490E+01  0.6311E+01
      4.312  0.1474E+01  0.6425E+01
      4.389  0.1450E+01  0.6537E+01
      4.466  0.1431E+01  0.6647E+01
      4.543  0.1410E+01  0.6756E+01
      4.619  0.1382E+01  0.6863E+01
      4.696  0.1367E+01  0.6969E+01
      4.773  0.1367E+01  0.7074E+01
      4.849  0.1352E+01  0.7178E+01
      4.926  0.1345E+01  0.7281E+01
      5.003  0.1314E+01  0.7383E+01
      5.080  0.1176E+01  0.7482E+01
      5.156  0.9437E+00  0.7562E+01
      5.233  0.8177E+00  0.7629E+01
      5.310  0.7203E+00  0.7688E+01
      5.386  0.6403E+00  0.7740E+01
      5.463  0.5753E+00  0.7786E+01
      5.540  0.5116E+00  0.7828E+01
      5.617  0.4564E+00  0.7865E+01
      5.693  0.4014E+00  0.7898E+01
      5.770  0.3443E+00  0.7927E+01
      5.847  0.3109E+00  0.7952E+01
      5.924  0.2443E+00  0.7973E+01
      6.000  0.1734E+00  0.7989E+01
      6.077  0.9120E-01  0.7999E+01
      6.154  0.0000E+00  0.8000E+01
      6.230  0.0000E+00  0.8000E+01
      6.307  0.0000E+00  0.8000E+01
      6.384  0.0000E+00  0.8000E+01
      6.461  0.0000E+00  0.8000E+01
      6.537  0.0000E+00  0.8000E+01
      6.614  0.0000E+00  0.8000E+01
      6.691  0.0000E+00  0.8000E+01
      6.767  0.0000E+00  0.8000E+01
      6.844  0.0000E+00  0.8000E+01
      6.921  0.0000E+00  0.8000E+01
      6.998  0.0000E+00  0.8000E+01
      7.074  0.3043E-02  0.8000E+01
      7.151  0.8585E-01  0.8003E+01
      7.228  0.1606E+00  0.8013E+01
      7.304  0.2093E+00  0.8027E+01
      7.381  0.2697E+00  0.8045E+01
      7.458  0.3199E+00  0.8068E+01
      7.535  0.3932E+00  0.8095E+01
      7.611  0.4697E+00  0.8128E+01
      7.688  0.5157E+00  0.8166E+01
      7.765  0.5652E+00  0.8208E+01
      7.841  0.6165E+00  0.8253E+01
      7.918  0.6870E+00  0.8303E+01
      7.995  0.7902E+00  0.8359E+01
      8.072  0.9075E+00  0.8424E+01
      8.148  0.9837E+00  0.8497E+01
      8.225  0.1076E+01  0.8576E+01
      8.302  0.1177E+01  0.8662E+01
      8.378  0.1287E+01  0.8757E+01
      8.455  0.1441E+01  0.8861E+01
      8.532  0.1790E+01  0.8988E+01
      8.609  0.1844E+01  0.9128E+01
      8.685  0.1789E+01  0.9268E+01
      8.762  0.1849E+01  0.9405E+01
      8.839  0.1693E+01  0.9539E+01
      8.916  0.1654E+01  0.9667E+01
      8.992  0.1787E+01  0.9797E+01
      9.069  0.1327E+01  0.9923E+01
      9.146  0.1229E+01  0.1002E+02
      9.222  0.1086E+01  0.1011E+02
      9.299  0.9292E+00  0.1019E+02
      9.376  0.7270E+00  0.1025E+02
      9.453  0.7420E+00  0.1031E+02
      9.529  0.7593E+00  0.1036E+02
      9.606  0.9052E+00  0.1043E+02
      9.683  0.1816E+01  0.1052E+02
      9.759  0.2492E+01  0.1069E+02
      9.836  0.2583E+01  0.1090E+02
      9.913  0.2802E+01  0.1111E+02
      9.990  0.1740E+01  0.1129E+02
     10.066  0.1631E+01  0.1141E+02
     10.143  0.1644E+01  0.1154E+02
     10.220  0.1544E+01  0.1166E+02
     10.296  0.1471E+01  0.1178E+02
     10.373  0.1266E+01  0.1188E+02
     10.450  0.1285E+01  0.1198E+02
     10.527  0.1280E+01  0.1208E+02
     10.603  0.1375E+01  0.1218E+02
     10.680  0.1628E+01  0.1229E+02
     10.757  0.1566E+01  0.1241E+02
     10.833  0.1766E+01  0.1254E+02
     10.910  0.1451E+01  0.1266E+02
     10.987  0.1318E+01  0.1277E+02
     11.064  0.1317E+01  0.1287E+02
     11.140  0.1386E+01  0.1297E+02
     11.217  0.1574E+01  0.1309E+02
     11.294  0.1462E+01  0.1320E+02
     11.370  0.1348E+01  0.1331E+02
     11.447  0.1282E+01  0.1341E+02
     11.524  0.1273E+01  0.1351E+02
     11.601  0.1233E+01  0.1360E+02
     11.677  0.1270E+01  0.1370E+02
     11.754  0.1185E+01  0.1379E+02
     11.831  0.1349E+01  0.1389E+02
     11.908  0.1243E+01  0.1398E+02
     11.984  0.1164E+01  0.1407E+02
     12.061  0.1173E+01  0.1416E+02
     12.138  0.1103E+01  0.1425E+02
     12.214  0.9920E+00  0.1433E+02
     12.291  0.9703E+00  0.1441E+02
     12.368  0.1030E+01  0.1448E+02
     12.445  0.9624E+00  0.1456E+02
     12.521  0.9693E+00  0.1463E+02
     12.598  0.9970E+00  0.1471E+02
     12.675  0.1147E+01  0.1479E+02
     12.751  0.1498E+01  0.1489E+02
     12.828  0.1304E+01  0.1500E+02
     12.905  0.1277E+01  0.1510E+02
     12.982  0.1051E+01  0.1519E+02
     13.058  0.9857E+00  0.1527E+02
     13.135  0.8878E+00  0.1534E+02
     13.212  0.7890E+00  0.1540E+02
     13.288  0.7045E+00  0.1546E+02
     13.365  0.6404E+00  0.1551E+02
     13.442  0.5687E+00  0.1556E+02
     13.519  0.4855E+00  0.1560E+02
     13.595  0.4115E+00  0.1563E+02
     13.672  0.3782E+00  0.1566E+02
     13.749  0.3570E+00  0.1569E+02
     13.825  0.3339E+00  0.1572E+02
     13.902  0.3142E+00  0.1574E+02
     13.979  0.3046E+00  0.1576E+02
     14.056  0.3086E+00  0.1579E+02
     14.132  0.3034E+00  0.1581E+02
     14.209  0.2666E+00  0.1583E+02
     14.286  0.2321E+00  0.1585E+02
     14.362  0.2072E+00  0.1587E+02
     14.439  0.1889E+00  0.1589E+02
     14.516  0.1740E+00  0.1590E+02
     14.593  0.1657E+00  0.1591E+02
     14.669  0.1546E+00  0.1592E+02
     14.746  0.1432E+00  0.1594E+02
     14.823  0.1331E+00  0.1595E+02
     14.900  0.1291E+00  0.1596E+02
     14.976  0.1091E+00  0.1597E+02
     15.053  0.9420E-01  0.1597E+02
     15.130  0.7733E-01  0.1598E+02
     15.206  0.6257E-01  0.1599E+02
     15.283  0.4992E-01  0.1599E+02
     15.360  0.3938E-01  0.1599E+02
     15.437  0.3193E-01  0.1600E+02
     15.513  0.4975E-01  0.1600E+02
     15.590  0.0000E+00  0.1600E+02
     15.667  0.0000E+00  0.1600E+02
     15.743  0.0000E+00  0.1600E+02
     15.820  0.0000E+00  0.1600E+02
     15.897  0.0000E+00  0.1600E+02
     15.974  0.0000E+00  0.1600E+02
     16.050  0.0000E+00  0.1600E+02
     16.127  0.0000E+00  0.1600E+02
     16.204  0.0000E+00  0.1600E+02
     16.280  0.0000E+00  0.1600E+02
     16.357  0.0000E+00  0.1600E+02
     16.434  0.0000E+00  0.1600E+02
     16.511  0.0000E+00  0.1600E+02
     16.587  0.0000E+00  0.1600E+02
