    2    2    1    1
  0.2543391E+02  0.4158973E-09  0.4158973E-09  0.4158973E-09  0.0000000E+00
  1.000000000000000E-004
  CAR 
 unknown system                          
      8    220      8
 
  0.0000000E+00  0.0000000E+00  0.0000000E+00  0.1457938E-03
    1       -5.381926   1.000000
    2        6.126780   1.000000
    3        6.126780   1.000000
    4        6.126780   1.000000
    5        8.831926   0.000000
    6        9.299597   0.000000
    7        9.299597   0.000000
    8        9.299597   0.000000
 
  0.5263158E-01  0.0000000E+00  0.0000000E+00  0.1166351E-02
    1       -5.351934   1.000000
    2        5.764611   1.000000
    3        6.081839   1.000000
    4        6.081839   1.000000
    5        8.955175   0.000000
    6        9.367209   0.000000
    7        9.367209   0.000000
    8        9.470514   0.000000
 
  0.1052632E+00  0.0000000E+00  0.0000000E+00  0.1166351E-02
    1       -5.262534   1.000000
    2        4.983486   1.000000
    3        5.961842   1.000000
    4        5.961842   1.000000
    5        8.871395   0.000000
    6        9.545089   0.000000
    7        9.545090   0.000000
    8       10.159111   0.000000
 
  0.1578947E+00  0.0000000E+00  0.0000000E+00  0.1166351E-02
    1       -5.115924   1.000000
    2        4.088988   1.000000
    3        5.798912   1.000000
    4        5.798912   1.000000
    5        8.675309   0.000000
    6        9.768595   0.000000
    7        9.768595   0.000000
    8       11.020352   0.000000
 
  0.2105263E+00  0.0000000E+00  0.0000000E+00  0.1166351E-02
    1       -4.916297   1.000000
    2        3.192258   1.000000
    3        5.623604   1.000000
    4        5.623604   1.000000
    5        8.465168   0.000000
    6        9.954400   0.000000
    7        9.954400   0.000000
    8       11.889571   0.000000
 
  0.2631579E+00  0.0000000E+00  0.0000000E+00  0.1166351E-02
    1       -4.671175   1.000000
    2        2.340490   1.000000
    3        5.457533   1.000000
    4        5.457533   1.000000
    5        8.272880   0.000000
    6       10.038587   0.000000
    7       10.038588   0.000000
    8       12.664466   0.000000
 
  0.3157895E+00  0.0000000E+00  0.0000000E+00  0.1166351E-02
    1       -4.393948   1.000000
    2        1.565339   1.000000
    3        5.314231   1.000000
    4        5.314231   1.000000
    5        8.112240   0.000000
    6       10.022171   0.000000
    7       10.022172   0.000000
    8       12.976540   0.000000
 
  0.3684211E+00  0.0000000E+00  0.0000000E+00  0.1166351E-02
    1       -4.108545   1.000000
    2        0.900452   1.000000
    3        5.201746   1.000000
    4        5.201746   1.000000
    5        7.989355   0.000000
    6        9.955273   0.000000
    7        9.955273   0.000000
    8       12.873526   0.000000
 
  0.4210526E+00  0.0000000E+00  0.0000000E+00  0.1166351E-02
    1       -3.856873   1.000000
    2        0.393258   1.000000
    3        5.124719   1.000000
    4        5.124720   1.000000
    5        7.906741   0.000000
    6        9.886843   0.000000
    7        9.886843   0.000000
    8       12.745968   0.000000
 
  0.4736842E+00  0.0000000E+00  0.0000000E+00  0.1166351E-02
    1       -3.701869   1.000000
    2        0.109805   1.000000
    3        5.085662   1.000000
    4        5.085662   1.000000
    5        7.865319   0.000000
    6        9.846273   0.000000
    7        9.846273   0.000000
    8       12.674293   0.000000
 
  0.5263158E-01  0.5263158E-01  0.0000000E+00  0.8747631E-03
    1       -5.341907   1.000000
    2        5.809499   1.000000
    3        5.979891   1.000000
    4        5.979891   1.000000
    5        9.049765   0.000000
    6        9.265449   0.000000
    7        9.499614   0.000000
    8        9.499614   0.000000
 
  0.1052632E+00  0.5263158E-01  0.0000000E+00  0.3499052E-02
    1       -5.272244   1.000000
    2        5.199755   1.000000
    3        5.818345   1.000000
    4        5.922164   1.000000
    5        9.020708   0.000000
    6        9.324234   0.000000
    7        9.730971   0.000000
    8       10.022373   0.000000
 
  0.1578947E+00  0.5263158E-01  0.0000000E+00  0.3499052E-02
    1       -5.144579   1.000000
    2        4.357358   1.000000
    3        5.632078   1.000000
    4        5.812544   1.000000
    5        8.909172   0.000000
    6        9.423867   0.000000
    7        9.997666   0.000000
    8       10.789188   0.000000
 
  0.2105263E+00  0.5263158E-01  0.0000000E+00  0.3499052E-02
    1       -4.962320   1.000000
    2        3.474252   1.000000
    3        5.448727   1.000000
    4        5.647553   1.000000
    5        8.730752   0.000000
    6        9.612101   0.000000
    7       10.220329   0.000000
    8       11.471611   0.000000
 
  0.2631579E+00  0.5263158E-01  0.0000000E+00  0.3499052E-02
    1       -4.731725   1.000000
    2        2.616165   1.000000
    3        5.286451   1.000000
    4        5.461712   1.000000
    5        8.545718   0.000000
    6        9.762381   0.000000
    7       10.328807   0.000000
    8       11.945273   0.000000
 
  0.3157895E+00  0.5263158E-01  0.0000000E+00  0.3499052E-02
    1       -4.463846   1.000000
    2        1.820386   1.000000
    3        5.156193   1.000000
    4        5.279905   1.000000
    5        8.381350   0.000000
    6        9.812204   0.000000
    7       10.311351   0.000000
    8       12.368360   0.000000
 
  0.3684211E+00  0.5263158E-01  0.0000000E+00  0.3499052E-02
    1       -4.178380   1.000000
    2        1.120094   1.000000
    3        5.064192   1.000000
    4        5.117646   1.000000
    5        8.249209   0.000000
    6        9.791179   0.000000
    7       10.216682   0.000000
    8       12.764061   0.000000
 
  0.4210526E+00  0.5263158E-01  0.0000000E+00  0.3499052E-02
    1       -3.910358   1.000000
    2        0.557853   1.000000
    3        4.984515   1.000000
    4        5.013585   1.000000
    5        8.154490   0.000000
    6        9.756107   0.000000
    7       10.101498   0.000000
    8       12.886543   0.000000
 
  0.4736842E+00  0.5263158E-01  0.0000000E+00  0.3499052E-02
    1       -3.716229   1.000000
    2        0.194373   1.000000
    3        4.886609   1.000000
    4        5.005365   1.000000
    5        8.099456   0.000000
    6        9.744842   0.000000
    7       10.002962   0.000000
    8       12.863898   0.000000
 
 -0.4736842E+00  0.5263158E-01  0.0000000E+00  0.3499052E-02
    1       -3.661109   1.000000
    2        0.096883   1.000000
    3        4.827971   1.000000
    4        5.038972   1.000000
    5        8.085011   0.000000
    6        9.774745   0.000000
    7        9.939713   0.000000
    8       12.857311   0.000000
 
 -0.4210526E+00  0.5263158E-01  0.0000000E+00  0.3499052E-02
    1       -3.768662   1.000000
    2        0.289548   1.000000
    3        4.811255   1.000000
    4        5.112471   1.000000
    5        8.111341   0.000000
    6        9.849103   0.000000
    7        9.916872   0.000000
    8       12.896242   0.000000
 
 -0.3684211E+00  0.5263158E-01  0.0000000E+00  0.3499052E-02
    1       -3.995026   1.000000
    2        0.727425   1.000000
    3        4.838001   1.000000
    4        5.222569   1.000000
    5        8.178245   0.000000
    6        9.927317   0.000000
    7        9.959141   0.000000
    8       12.955261   0.000000
 
 -0.3157895E+00  0.5263158E-01  0.0000000E+00  0.3499052E-02
    1       -4.274041   1.000000
    2        1.341498   1.000000
    3        4.908570   1.000000
    4        5.364225   1.000000
    5        8.284865   0.000000
    6        9.948667   0.000000
    7       10.080318   0.000000
    8       12.900943   0.000000
 
 -0.2631579E+00  0.5263158E-01  0.0000000E+00  0.3499052E-02
    1       -4.556586   1.000000
    2        2.077230   1.000000
    3        5.021917   1.000000
    4        5.529873   1.000000
    5        8.429038   0.000000
    6        9.939634   0.000000
    7       10.163311   0.000000
    8       12.527559   0.000000
 
 -0.2105263E+00  0.5263158E-01  0.0000000E+00  0.3499052E-02
    1       -4.813650   1.000000
    2        2.895837   1.000000
    3        5.175156   1.000000
    4        5.707922   1.000000
    5        8.605664   0.000000
    6        9.853221   0.000000
    7       10.133185   0.000000
    8       11.978704   0.000000
 
 -0.1578947E+00  0.5263158E-01  0.0000000E+00  0.3499052E-02
    1       -5.029003   1.000000
    2        3.762382   1.000000
    3        5.363090   1.000000
    4        5.880360   1.000000
    5        8.803086   0.000000
    6        9.684174   0.000000
    7        9.941244   0.000000
    8       11.340120   0.000000
 
 -0.1052632E+00  0.5263158E-01  0.0000000E+00  0.3499052E-02
    1       -5.193547   1.000000
    2        4.626506   1.000000
    3        5.579366   1.000000
    4        6.020621   1.000000
    5        8.991926   0.000000
    6        9.494428   0.000000
    7        9.640436   0.000000
    8       10.619814   0.000000
 
 -0.5263158E-01  0.5263158E-01  0.0000000E+00  0.1749526E-02
    1       -5.302091   1.000000
    2        5.369642   1.000000
    3        5.830189   1.000000
    4        6.096059   1.000000
    5        9.061921   0.000000
    6        9.369011   0.000000
    7        9.404583   0.000000
    8        9.923902   0.000000
 
  0.1052632E+00  0.1052632E+00  0.0000000E+00  0.8747631E-03
    1       -5.222452   1.000000
    2        5.114270   1.000000
    3        5.625853   1.000000
    4        5.625854   1.000000
    5        8.799080   0.000000
    6        9.821521   0.000000
    7       10.011278   0.000000
    8       10.011278   0.000000
 
  0.1578947E+00  0.1052632E+00  0.0000000E+00  0.3499052E-02
    1       -5.114266   1.000000
    2        4.494927   1.000000
    3        5.419693   1.000000
    4        5.501421   1.000000
    5        8.710882   0.000000
    6        9.786224   0.000000
    7       10.326204   0.000000
    8       10.613869   0.000000
 
  0.2105263E+00  0.1052632E+00  0.0000000E+00  0.3499052E-02
    1       -4.950501   1.000000
    2        3.693702   1.000000
    3        5.225547   1.000000
    4        5.357488   1.000000
    5        8.750345   0.000000
    6        9.713447   0.000000
    7       10.601306   0.000000
    8       10.993305   0.000000
 
  0.2631579E+00  0.1052632E+00  0.0000000E+00  0.3499052E-02
    1       -4.736346   1.000000
    2        2.869717   1.000000
    3        5.059859   1.000000
    4        5.160435   1.000000
    5        8.765348   0.000000
    6        9.740243   0.000000
    7       10.759231   0.000000
    8       11.117358   0.000000
 
  0.3157895E+00  0.1052632E+00  0.0000000E+00  0.3499052E-02
    1       -4.481022   1.000000
    2        2.080853   1.000000
    3        4.932553   1.000000
    4        4.944157   1.000000
    5        8.699210   0.000000
    6        9.793553   0.000000
    7       10.768316   0.000000
    8       11.352475   0.000000
 
  0.3684211E+00  0.1052632E+00  0.0000000E+00  0.3499052E-02
    1       -4.200813   1.000000
    2        1.366464   1.000000
    3        4.735461   1.000000
    4        4.849258   1.000000
    5        8.604247   0.000000
    6        9.782671   0.000000
    7       10.669136   0.000000
    8       11.820400   0.000000
 
  0.4210526E+00  0.1052632E+00  0.0000000E+00  0.3499052E-02
    1       -3.924764   1.000000
    2        0.768010   1.000000
    3        4.550947   1.000000
    4        4.812713   1.000000
    5        8.523478   0.000000
    6        9.740775   0.000000
    7       10.525572   0.000000
    8       12.429209   0.000000
 
  0.4736842E+00  0.1052632E+00  0.0000000E+00  0.3499052E-02
    1       -3.701616   1.000000
    2        0.341220   1.000000
    3        4.400931   1.000000
    4        4.823535   1.000000
    5        8.475466   0.000000
    6        9.715317   0.000000
    7       10.383589   0.000000
    8       12.989311   0.000000
 
 -0.4736842E+00  0.1052632E+00  0.0000000E+00  0.3499052E-02
    1       -3.596381   1.000000
    2        0.154759   1.000000
    3        4.292280   1.000000
    4        4.880579   1.000000
    5        8.466642   0.000000
    6        9.729940   0.000000
    7       10.267856   0.000000
    8       13.260936   0.000000
 
 -0.4210526E+00  0.1052632E+00  0.0000000E+00  0.3499052E-02
    1       -3.651603   1.000000
    2        0.252387   1.000000
    3        4.229925   1.000000
    4        4.980978   1.000000
    5        8.497822   0.000000
    6        9.793286   0.000000
    7       10.187851   0.000000
    8       13.327838   0.000000
 
 -0.3684211E+00  0.1052632E+00  0.0000000E+00  0.3499052E-02
    1       -3.843753   1.000000
    2        0.609622   1.000000
    3        4.217620   1.000000
    4        5.119962   1.000000
    5        8.567276   0.000000
    6        9.903423   0.000000
    7       10.140585   0.000000
    8       13.239436   0.000000
 
 -0.3157895E+00  0.1052632E+00  0.0000000E+00  0.3499052E-02
    1       -4.109004   1.000000
    2        1.158982   1.000000
    3        4.258548   1.000000
    4        5.290307   1.000000
    5        8.672124   0.000000
    6       10.044301   0.000000
    7       10.108482   0.000000
    8       12.848414   0.000000
 
 -0.2631579E+00  0.1052632E+00  0.0000000E+00  0.3499052E-02
    1       -4.391752   1.000000
    2        1.837153   1.000000
    3        4.356113   1.000000
    4        5.481265   1.000000
    5        8.808254   0.000000
    6       10.055540   0.000000
    7       10.171057   0.000000
    8       12.281482   0.000000
 
 -0.2105263E+00  0.1052632E+00  0.0000000E+00  0.3499052E-02
    1       -4.657310   1.000000
    2        2.593688   1.000000
    3        4.516038   1.000000
    4        5.676836   1.000000
    5        8.967797   0.000000
    6        9.939174   0.000000
    7       10.181457   0.000000
    8       11.795899   0.000000
 
 -0.1578947E+00  0.1052632E+00  0.0000000E+00  0.3499052E-02
    1       -4.886061   1.000000
    2        3.374490   1.000000
    3        4.752671   1.000000
    4        5.853465   1.000000
    5        9.128950   0.000000
    6        9.758758   0.000000
    7        9.969029   0.000000
    8       11.487115   0.000000
 
 -0.1052632E+00  0.1052632E+00  0.0000000E+00  0.1749526E-02
    1       -5.066882   1.000000
    2        4.090358   1.000000
    3        5.102527   1.000000
    4        5.979182   1.000000
    5        9.195080   0.000000
    6        9.582055   0.000000
    7        9.682996   0.000000
    8       11.149430   0.000000
 
  0.1578947E+00  0.1578947E+00  0.0000000E+00  0.8747631E-03
    1       -5.025675   1.000000
    2        4.302419   1.000000
    3        5.197845   1.000000
    4        5.197845   1.000000
    5        8.406255   0.000000
    6       10.156703   0.000000
    7       10.696957   0.000000
    8       10.696957   0.000000
 
  0.2105263E+00  0.1578947E+00  0.0000000E+00  0.3499052E-02
    1       -4.881053   1.000000
    2        3.734572   1.000000
    3        4.991959   1.000000
    4        5.015061   1.000000
    5        8.321472   0.000000
    6       10.021528   0.000000
    7       10.959313   0.000000
    8       11.040355   0.000000
 
  0.2631579E+00  0.1578947E+00  0.0000000E+00  0.3499052E-02
    1       -4.684733   1.000000
    2        3.022893   1.000000
    3        4.805573   1.000000
    4        4.818175   1.000000
    5        8.398682   0.000000
    6        9.942386   0.000000
    7       10.912492   0.000000
    8       11.273500   0.000000
 
  0.3157895E+00  0.1578947E+00  0.0000000E+00  0.3499052E-02
    1       -4.444531   1.000000
    2        2.290949   1.000000
    3        4.554857   1.000000
    4        4.686322   1.000000
    5        8.478473   0.000000
    6       10.074409   0.000000
    7       10.795672   0.000000
    8       11.339623   0.000000
 
  0.3684211E+00  0.1578947E+00  0.0000000E+00  0.3499052E-02
    1       -4.174047   1.000000
    2        1.598388   1.000000
    3        4.297108   1.000000
    4        4.602101   1.000000
    5        8.482337   0.000000
    6       10.298872   0.000000
    7       10.862459   0.000000
    8       11.261708   0.000000
 
  0.4210526E+00  0.1578947E+00  0.0000000E+00  0.3499052E-02
    1       -3.897457   1.000000
    2        0.992511   1.000000
    3        4.058654   1.000000
    4        4.568381   1.000000
    5        8.455145   0.000000
    6       10.293350   0.000000
    7       11.109599   0.000000
    8       11.383493   0.000000
 
  0.4736842E+00  0.1578947E+00  0.0000000E+00  0.3499052E-02
    1       -3.655995   1.000000
    2        0.527506   1.000000
    3        3.855489   1.000000
    4        4.585925   1.000000
    5        8.446843   0.000000
    6       10.221259   0.000000
    7       10.940501   0.000000
    8       12.124872   0.000000
 
 -0.4736842E+00  0.1578947E+00  0.0000000E+00  0.3499052E-02
    1       -3.509924   1.000000
    2        0.270486   1.000000
    3        3.697695   1.000000
    4        4.653652   1.000000
    5        8.479718   0.000000
    6       10.171580   0.000000
    7       10.786352   0.000000
    8       12.935411   0.000000
 
 -0.4210526E+00  0.1578947E+00  0.0000000E+00  0.3499052E-02
    1       -3.512884   1.000000
    2        0.277834   1.000000
    3        3.592506   1.000000
    4        4.768594   1.000000
    5        8.559612   0.000000
    6       10.162596   0.000000
    7       10.660620   0.000000
    8       13.638672   0.000000
 
 -0.3684211E+00  0.1578947E+00  0.0000000E+00  0.3499052E-02
    1       -3.663436   1.000000
    2        0.546991   1.000000
    3        3.546287   1.000000
    4        4.925539   1.000000
    5        8.683564   0.000000
    6       10.199866   0.000000
    7       10.562585   0.000000
    8       13.478850   0.000000
 
 -0.3157895E+00  0.1578947E+00  0.0000000E+00  0.3499052E-02
    1       -3.906744   1.000000
    2        1.016967   1.000000
    3        3.566479   1.000000
    4        5.116232   1.000000
    5        8.842524   0.000000
    6       10.279741   0.000000
    7       10.475566   0.000000
    8       12.791536   0.000000
 
 -0.2631579E+00  0.1578947E+00  0.0000000E+00  0.3499052E-02
    1       -4.183259   1.000000
    2        1.613447   1.000000
    3        3.665181   1.000000
    4        5.328014   1.000000
    5        9.021380   0.000000
    6       10.362763   0.000000
    7       10.373785   0.000000
    8       12.091165   0.000000
 
 -0.2105263E+00  0.1578947E+00  0.0000000E+00  0.3499052E-02
    1       -4.452676   1.000000
    2        2.263027   1.000000
    3        3.867161   1.000000
    4        5.541690   1.000000
    5        9.193429   0.000000
    6       10.183738   0.000000
    7       10.372516   0.000000
    8       11.581261   0.000000
 
 -0.1578947E+00  0.1578947E+00  0.0000000E+00  0.1749526E-02
    1       -4.691387   1.000000
    2        2.877174   1.000000
    3        4.219635   1.000000
    4        5.729047   1.000000
    5        9.287561   0.000000
    6        9.953968   0.000000
    7       10.141997   0.000000
    8       11.449596   0.000000
 
  0.2105263E+00  0.2105263E+00  0.0000000E+00  0.8747631E-03
    1       -4.755708   1.000000
    2        3.465047   1.000000
    3        4.774516   1.000000
    4        4.774516   1.000000
    5        8.018357   0.000000
    6        9.766416   0.000000
    7       11.472120   0.000000
    8       11.472120   0.000000
 
  0.2631579E+00  0.2105263E+00  0.0000000E+00  0.3499052E-02
    1       -4.578163   1.000000
    2        2.954727   1.000000
    3        4.557039   1.000000
    4        4.590121   1.000000
    5        7.956120   0.000000
    6        9.515360   0.000000
    7       11.647167   0.000000
    8       11.811603   0.000000
 
  0.3157895E+00  0.2105263E+00  0.0000000E+00  0.3499052E-02
    1       -4.355115   1.000000
    2        2.350381   1.000000
    3        4.276959   1.000000
    4        4.449122   1.000000
    5        8.053506   0.000000
    6        9.459168   0.000000
    7       11.561484   0.000000
    8       11.973799   0.000000
 
  0.3684211E+00  0.2105263E+00  0.0000000E+00  0.3499052E-02
    1       -4.098202   1.000000
    2        1.736616   1.000000
    3        3.961020   1.000000
    4        4.357636   1.000000
    5        8.135345   0.000000
    6        9.712144   0.000000
    7       11.412438   0.000000
    8       11.949242   0.000000
 
  0.4210526E+00  0.2105263E+00  0.0000000E+00  0.3499052E-02
    1       -3.827813   1.000000
    2        1.170079   1.000000
    3        3.653862   1.000000
    4        4.318913   1.000000
    5        8.152847   0.000000
    6       10.252281   0.000000
    7       11.267772   0.000000
    8       11.809819   0.000000
 
  0.4736842E+00  0.2105263E+00  0.0000000E+00  0.3499052E-02
    1       -3.578756   1.000000
    2        0.706583   1.000000
    3        3.383701   1.000000
    4        4.334058   1.000000
    5        8.166494   0.000000
    6       10.899714   0.000000
    7       11.224765   0.000000
    8       11.628769   0.000000
 
 -0.4736842E+00  0.2105263E+00  0.0000000E+00  0.3499052E-02
    1       -3.404325   1.000000
    2        0.411470   1.000000
    3        3.166385   1.000000
    4        4.402321   1.000000
    5        8.217460   0.000000
    6       10.977639   0.000000
    7       11.448507   0.000000
    8       11.898532   0.000000
 
 -0.4210526E+00  0.2105263E+00  0.0000000E+00  0.3499052E-02
    1       -3.361249   1.000000
    2        0.346803   1.000000
    3        3.012545   1.000000
    4        4.520994   1.000000
    5        8.319989   0.000000
    6       10.925731   0.000000
    7       11.286947   0.000000
    8       12.812492   0.000000
 
 -0.3684211E+00  0.2105263E+00  0.0000000E+00  0.3499052E-02
    1       -3.466544   1.000000
    2        0.527685   1.000000
    3        2.932572   1.000000
    4        4.685027   1.000000
    5        8.475133   0.000000
    6       10.905099   0.000000
    7       11.143451   0.000000
    8       13.584660   0.000000
 
 -0.3157895E+00  0.2105263E+00  0.0000000E+00  0.3499052E-02
    1       -3.679756   1.000000
    2        0.901665   1.000000
    3        2.941974   1.000000
    4        4.886133   1.000000
    5        8.675349   0.000000
    6       10.920753   0.000000
    7       10.995738   0.000000
    8       12.747342   0.000000
 
 -0.2631579E+00  0.2105263E+00  0.0000000E+00  0.3499052E-02
    1       -3.942180   1.000000
    2        1.379482   1.000000
    3        3.070032   1.000000
    4        5.111196   1.000000
    5        8.902213   0.000000
    6       10.795042   0.000000
    7       10.944498   0.000000
    8       11.975724   0.000000
 
 -0.2105263E+00  0.2105263E+00  0.0000000E+00  0.1749526E-02
    1       -4.208968   1.000000
    2        1.859432   1.000000
    3        3.366788   1.000000
    4        5.339850   1.000000
    5        9.113045   0.000000
    6       10.505492   0.000000
    7       10.784835   0.000000
    8       11.528557   0.000000
 
  0.2631579E+00  0.2631579E+00  0.0000000E+00  0.8747631E-03
    1       -4.419783   1.000000
    2        2.636851   1.000000
    3        4.394090   1.000000
    4        4.394090   1.000000
    5        7.677939   0.000000
    6        9.119566   0.000000
    7       12.293311   0.000000
    8       12.293311   0.000000
 
  0.3157895E+00  0.2631579E+00  0.0000000E+00  0.3499052E-02
    1       -4.215471   1.000000
    2        2.180924   1.000000
    3        4.163837   1.000000
    4        4.241436   1.000000
    5        7.647128   0.000000
    6        8.889804   0.000000
    7       12.475400   0.000000
    8       12.608357   0.000000
 
  0.3684211E+00  0.2631579E+00  0.0000000E+00  0.3499052E-02
    1       -3.975544   1.000000
    2        1.684542   1.000000
    3        3.828527   1.000000
    4        4.138934   1.000000
    5        7.756686   0.000000
    6        8.921323   0.000000
    7       12.399255   0.000000
    8       12.688189   0.000000
 
  0.4210526E+00  0.2631579E+00  0.0000000E+00  0.3499052E-02
    1       -3.717684   1.000000
    2        1.206242   1.000000
    3        3.452126   1.000000
    4        4.090355   1.000000
    5        7.828257   0.000000
    6        9.301999   0.000000
    7       12.255809   0.000000
    8       12.590621   0.000000
 
  0.4736842E+00  0.2631579E+00  0.0000000E+00  0.3499052E-02
    1       -3.471799   1.000000
    2        0.796398   1.000000
    3        3.096519   1.000000
    4        4.097223   1.000000
    5        7.861900   0.000000
    6        9.953705   0.000000
    7       12.108780   0.000000
    8       12.413562   0.000000
 
 -0.4736842E+00  0.2631579E+00  0.0000000E+00  0.3499052E-02
    1       -3.283962   1.000000
    2        0.512785   1.000000
    3        2.798208   1.000000
    4        4.159205   1.000000
    5        7.919516   0.000000
    6       10.760970   0.000000
    7       11.987022   0.000000
    8       12.217251   0.000000
 
 -0.4210526E+00  0.2631579E+00  0.0000000E+00  0.3499052E-02
    1       -3.207828   1.000000
    2        0.413465   1.000000
    3        2.579010   1.000000
    4        4.274015   1.000000
    5        8.027397   0.000000
    6       11.594040   0.000000
    7       11.972595   0.000000
    8       12.025533   0.000000
 
 -0.3684211E+00  0.2631579E+00  0.0000000E+00  0.3499052E-02
    1       -3.270629   1.000000
    2        0.519613   1.000000
    3        2.459041   1.000000
    4        4.437078   1.000000
    5        8.191193   0.000000
    6       11.757174   0.000000
    7       11.833391   0.000000
    8       12.727788   0.000000
 
 -0.3157895E+00  0.2631579E+00  0.0000000E+00  0.3499052E-02
    1       -3.447733   1.000000
    2        0.781928   1.000000
    3        2.469306   1.000000
    4        4.640577   1.000000
    5        8.406255   0.000000
    6       11.598040   0.000000
    7       11.730206   0.000000
    8       12.746969   0.000000
 
 -0.2631579E+00  0.2631579E+00  0.0000000E+00  0.1749526E-02
    1       -3.686866   1.000000
    2        1.098615   1.000000
    3        2.660039   1.000000
    4        4.871923   1.000000
    5        8.656915   0.000000
    6       11.247107   0.000000
    7       11.575103   0.000000
    8       12.055881   0.000000
 
  0.3157895E+00  0.3157895E+00  0.0000000E+00  0.8747631E-03
    1       -4.031003   1.000000
    2        1.842227   1.000000
    3        4.075962   1.000000
    4        4.075962   1.000000
    5        7.406158   0.000000
    6        8.512585   0.000000
    7       13.137931   0.000000
    8       13.137932   0.000000
 
  0.3684211E+00  0.3157895E+00  0.0000000E+00  0.3499052E-02
    1       -3.811224   1.000000
    2        1.442840   1.000000
    3        3.850409   1.000000
    4        3.960377   1.000000
    5        7.410387   0.000000
    6        8.348858   0.000000
    7       13.335064   0.000000
    8       13.415119   0.000000
 
  0.4210526E+00  0.3157895E+00  0.0000000E+00  0.3499052E-02
    1       -3.572305   1.000000
    2        1.053461   1.000000
    3        3.485616   1.000000
    4        3.899074   1.000000
    5        7.524234   0.000000
    6        8.495969   0.000000
    7       13.271454   0.000000
    8       13.415636   0.000000
 
  0.4736842E+00  0.3157895E+00  0.0000000E+00  0.3499052E-02
    1       -3.340951   1.000000
    2        0.721842   1.000000
    3        3.072333   1.000000
    4        3.894080   1.000000
    5        7.591127   0.000000
    6        9.004654   0.000000
    7       13.133482   0.000000
    8       13.265968   0.000000
 
 -0.4736842E+00  0.3157895E+00  0.0000000E+00  0.3499052E-02
    1       -3.157208   1.000000
    2        0.493002   1.000000
    3        2.688826   1.000000
    4        3.945503   1.000000
    5        7.654662   0.000000
    6        9.748331   0.000000
    7       12.987357   0.000000
    8       13.063167   0.000000
 
 -0.4210526E+00  0.3157895E+00  0.0000000E+00  0.3499052E-02
    1       -3.067778   1.000000
    2        0.407630   1.000000
    3        2.387367   1.000000
    4        4.051552   1.000000
    5        7.762060   0.000000
    6       10.627944   0.000000
    7       12.840313   0.000000
    8       12.858120   0.000000
 
 -0.3684211E+00  0.3157895E+00  0.0000000E+00  0.3499052E-02
    1       -3.100275   1.000000
    2        0.472147   1.000000
    3        2.213072   1.000000
    4        4.208206   1.000000
    5        7.926002   0.000000
    6       11.587400   0.000000
    7       12.573435   0.000000
    8       12.755796   0.000000
 
 -0.3157895E+00  0.3157895E+00  0.0000000E+00  0.1749526E-02
    1       -3.240758   1.000000
    2        0.627563   1.000000
    3        2.222435   1.000000
    4        4.408413   1.000000
    5        8.144871   0.000000
    6       12.169121   0.000000
    7       12.347650   0.000000
    8       12.809161   0.000000
 
  0.3684211E+00  0.3684211E+00  0.0000000E+00  0.8747631E-03
    1       -3.614644   1.000000
    2        1.113723   1.000000
    3        3.830737   1.000000
    4        3.830737   1.000000
    5        7.214321   0.000000
    6        8.019410   0.000000
    7       13.991992   0.000000
    8       13.991992   0.000000
 
  0.4210526E+00  0.3684211E+00  0.0000000E+00  0.3499052E-02
    1       -3.401757   1.000000
    2        0.786611   1.000000
    3        3.623469   1.000000
    4        3.755128   1.000000
    5        7.253156   0.000000
    6        7.936483   0.000000
    7       14.198687   0.000000
    8       14.221451   0.000000
 
  0.4736842E+00  0.3684211E+00  0.0000000E+00  0.3499052E-02
    1       -3.197952   1.000000
    2        0.518524   1.000000
    3        3.256535   1.000000
    4        3.736146   1.000000
    5        7.364751   0.000000
    6        8.209378   0.000000
    7       14.142882   0.000000
    8       14.151779   0.000000
 