Automatically generated mesh
     220
Reciprocal lattice
    0.00000000000000    0.00000000000000    0.00000000000000             1
    0.05263157894737    0.00000000000000    0.00000000000000             8
    0.10526315789474    0.00000000000000    0.00000000000000             8
    0.15789473684211    0.00000000000000    0.00000000000000             8
    0.21052631578947    0.00000000000000    0.00000000000000             8
    0.26315789473684    0.00000000000000    0.00000000000000             8
    0.31578947368421    0.00000000000000    0.00000000000000             8
    0.36842105263158    0.00000000000000    0.00000000000000             8
    0.42105263157895    0.00000000000000    0.00000000000000             8
    0.47368421052632    0.00000000000000    0.00000000000000             8
    0.05263157894737    0.05263157894737    0.00000000000000             6
    0.10526315789474    0.05263157894737    0.00000000000000            24
    0.15789473684211    0.05263157894737    0.00000000000000            24
    0.21052631578947    0.05263157894737    0.00000000000000            24
    0.26315789473684    0.05263157894737    0.00000000000000            24
    0.31578947368421    0.05263157894737    0.00000000000000            24
    0.36842105263158    0.05263157894737    0.00000000000000            24
    0.42105263157895    0.05263157894737    0.00000000000000            24
    0.47368421052632    0.05263157894737    0.00000000000000            24
   -0.47368421052632    0.05263157894737    0.00000000000000            24
   -0.42105263157895    0.05263157894737    0.00000000000000            24
   -0.36842105263158    0.05263157894737    0.00000000000000            24
   -0.31578947368421    0.05263157894737    0.00000000000000            24
   -0.26315789473684    0.05263157894737    0.00000000000000            24
   -0.21052631578947    0.05263157894737    0.00000000000000            24
   -0.15789473684211    0.05263157894737    0.00000000000000            24
   -0.10526315789474    0.05263157894737    0.00000000000000            24
   -0.05263157894737    0.05263157894737    0.00000000000000            12
    0.10526315789474    0.10526315789474    0.00000000000000             6
    0.15789473684211    0.10526315789474    0.00000000000000            24
    0.21052631578947    0.10526315789474    0.00000000000000            24
    0.26315789473684    0.10526315789474    0.00000000000000            24
    0.31578947368421    0.10526315789474    0.00000000000000            24
    0.36842105263158    0.10526315789474    0.00000000000000            24
    0.42105263157895    0.10526315789474    0.00000000000000            24
    0.47368421052632    0.10526315789474    0.00000000000000            24
   -0.47368421052632    0.10526315789474    0.00000000000000            24
   -0.42105263157895    0.10526315789474    0.00000000000000            24
   -0.36842105263158    0.10526315789474    0.00000000000000            24
   -0.31578947368421    0.10526315789474    0.00000000000000            24
   -0.26315789473684    0.10526315789474    0.00000000000000            24
   -0.21052631578947    0.10526315789474    0.00000000000000            24
   -0.15789473684211    0.10526315789474    0.00000000000000            24
   -0.10526315789474    0.10526315789474    0.00000000000000            12
    0.15789473684211    0.15789473684211    0.00000000000000             6
    0.21052631578947    0.15789473684211    0.00000000000000            24
    0.26315789473684    0.15789473684211    0.00000000000000            24
    0.31578947368421    0.15789473684211    0.00000000000000            24
    0.36842105263158    0.15789473684211    0.00000000000000            24
    0.42105263157895    0.15789473684211    0.00000000000000            24
    0.47368421052632    0.15789473684211    0.00000000000000            24
   -0.47368421052632    0.15789473684211    0.00000000000000            24
   -0.42105263157895    0.15789473684211    0.00000000000000            24
   -0.36842105263158    0.15789473684211    0.00000000000000            24
   -0.31578947368421    0.15789473684211    0.00000000000000            24
   -0.26315789473684    0.15789473684211    0.00000000000000            24
   -0.21052631578947    0.15789473684211    0.00000000000000            24
   -0.15789473684211    0.15789473684211    0.00000000000000            12
    0.21052631578947    0.21052631578947    0.00000000000000             6
    0.26315789473684    0.21052631578947    0.00000000000000            24
    0.31578947368421    0.21052631578947    0.00000000000000            24
    0.36842105263158    0.21052631578947    0.00000000000000            24
    0.42105263157895    0.21052631578947    0.00000000000000            24
    0.47368421052632    0.21052631578947    0.00000000000000            24
   -0.47368421052632    0.21052631578947    0.00000000000000            24
   -0.42105263157895    0.21052631578947    0.00000000000000            24
   -0.36842105263158    0.21052631578947    0.00000000000000            24
   -0.31578947368421    0.21052631578947    0.00000000000000            24
   -0.26315789473684    0.21052631578947    0.00000000000000            24
   -0.21052631578947    0.21052631578947    0.00000000000000            12
    0.26315789473684    0.26315789473684    0.00000000000000             6
    0.31578947368421    0.26315789473684    0.00000000000000            24
    0.36842105263158    0.26315789473684    0.00000000000000            24
    0.42105263157895    0.26315789473684    0.00000000000000            24
    0.47368421052632    0.26315789473684    0.00000000000000            24
   -0.47368421052632    0.26315789473684    0.00000000000000            24
   -0.42105263157895    0.26315789473684    0.00000000000000            24
   -0.36842105263158    0.26315789473684    0.00000000000000            24
   -0.31578947368421    0.26315789473684    0.00000000000000            24
   -0.26315789473684    0.26315789473684    0.00000000000000            12
    0.31578947368421    0.31578947368421    0.00000000000000             6
    0.36842105263158    0.31578947368421    0.00000000000000            24
    0.42105263157895    0.31578947368421    0.00000000000000            24
    0.47368421052632    0.31578947368421    0.00000000000000            24
   -0.47368421052632    0.31578947368421    0.00000000000000            24
   -0.42105263157895    0.31578947368421    0.00000000000000            24
   -0.36842105263158    0.31578947368421    0.00000000000000            24
   -0.31578947368421    0.31578947368421    0.00000000000000            12
    0.36842105263158    0.36842105263158    0.00000000000000             6
    0.42105263157895    0.36842105263158    0.00000000000000            24
    0.47368421052632    0.36842105263158    0.00000000000000            24
   -0.47368421052632    0.36842105263158    0.00000000000000            24
   -0.42105263157895    0.36842105263158    0.00000000000000            24
   -0.36842105263158    0.36842105263158    0.00000000000000            12
    0.42105263157895    0.42105263157895    0.00000000000000             6
    0.47368421052632    0.42105263157895    0.00000000000000            24
   -0.47368421052632    0.42105263157895    0.00000000000000            24
   -0.42105263157895    0.42105263157895    0.00000000000000            12
    0.47368421052632    0.47368421052632    0.00000000000000             6
   -0.47368421052632    0.47368421052632    0.00000000000000            12
    0.15789473684211    0.10526315789474    0.05263157894737            24
    0.21052631578947    0.10526315789474    0.05263157894737            48
    0.26315789473684    0.10526315789474    0.05263157894737            48
    0.31578947368421    0.10526315789474    0.05263157894737            48
    0.36842105263158    0.10526315789474    0.05263157894737            48
    0.42105263157895    0.10526315789474    0.05263157894737            48
    0.47368421052632    0.10526315789474    0.05263157894737            48
   -0.47368421052632    0.10526315789474    0.05263157894737            48
    0.21052631578947    0.15789473684211    0.05263157894737            24
    0.26315789473684    0.15789473684211    0.05263157894737            48
    0.31578947368421    0.15789473684211    0.05263157894737            48
    0.36842105263158    0.15789473684211    0.05263157894737            48
    0.42105263157895    0.15789473684211    0.05263157894737            48
    0.47368421052632    0.15789473684211    0.05263157894737            48
   -0.47368421052632    0.15789473684211    0.05263157894737            48
   -0.42105263157895    0.15789473684211    0.05263157894737            48
   -0.36842105263158    0.15789473684211    0.05263157894737            48
   -0.31578947368421    0.15789473684211    0.05263157894737            48
   -0.26315789473684    0.15789473684211    0.05263157894737            48
   -0.21052631578947    0.15789473684211    0.05263157894737            48
   -0.15789473684211    0.15789473684211    0.05263157894737            48
   -0.10526315789474    0.15789473684211    0.05263157894737            24
    0.26315789473684    0.21052631578947    0.05263157894737            24
    0.31578947368421    0.21052631578947    0.05263157894737            48
    0.36842105263158    0.21052631578947    0.05263157894737            48
    0.42105263157895    0.21052631578947    0.05263157894737            48
    0.47368421052632    0.21052631578947    0.05263157894737            48
   -0.47368421052632    0.21052631578947    0.05263157894737            48
   -0.42105263157895    0.21052631578947    0.05263157894737            48
   -0.36842105263158    0.21052631578947    0.05263157894737            48
   -0.31578947368421    0.21052631578947    0.05263157894737            48
   -0.26315789473684    0.21052631578947    0.05263157894737            48
   -0.21052631578947    0.21052631578947    0.05263157894737            48
   -0.15789473684211    0.21052631578947    0.05263157894737            24
    0.31578947368421    0.26315789473684    0.05263157894737            24
    0.36842105263158    0.26315789473684    0.05263157894737            48
    0.42105263157895    0.26315789473684    0.05263157894737            48
    0.47368421052632    0.26315789473684    0.05263157894737            48
   -0.47368421052632    0.26315789473684    0.05263157894737            48
   -0.42105263157895    0.26315789473684    0.05263157894737            48
   -0.36842105263158    0.26315789473684    0.05263157894737            48
   -0.31578947368421    0.26315789473684    0.05263157894737            48
   -0.26315789473684    0.26315789473684    0.05263157894737            48
   -0.21052631578947    0.26315789473684    0.05263157894737            24
    0.36842105263158    0.31578947368421    0.05263157894737            24
    0.42105263157895    0.31578947368421    0.05263157894737            48
    0.47368421052632    0.31578947368421    0.05263157894737            48
   -0.47368421052632    0.31578947368421    0.05263157894737            48
   -0.42105263157895    0.31578947368421    0.05263157894737            48
   -0.36842105263158    0.31578947368421    0.05263157894737            48
   -0.31578947368421    0.31578947368421    0.05263157894737            48
   -0.26315789473684    0.31578947368421    0.05263157894737            24
    0.42105263157895    0.36842105263158    0.05263157894737            24
    0.47368421052632    0.36842105263158    0.05263157894737            48
   -0.47368421052632    0.36842105263158    0.05263157894737            48
   -0.42105263157895    0.36842105263158    0.05263157894737            48
   -0.36842105263158    0.36842105263158    0.05263157894737            48
   -0.31578947368421    0.36842105263158    0.05263157894737            24
    0.47368421052632    0.42105263157895    0.05263157894737            24
   -0.47368421052632    0.42105263157895    0.05263157894737            48
   -0.42105263157895    0.42105263157895    0.05263157894737            48
   -0.36842105263158    0.42105263157895    0.05263157894737            24
   -0.47368421052632    0.47368421052632    0.05263157894737            24
   -0.42105263157895    0.47368421052632    0.05263157894737            24
    0.31578947368421    0.21052631578947    0.10526315789474            24
    0.36842105263158    0.21052631578947    0.10526315789474            48
    0.42105263157895    0.21052631578947    0.10526315789474            48
    0.47368421052632    0.21052631578947    0.10526315789474            48
   -0.47368421052632    0.21052631578947    0.10526315789474            48
   -0.42105263157895    0.21052631578947    0.10526315789474            48
    0.36842105263158    0.26315789473684    0.10526315789474            24
    0.42105263157895    0.26315789473684    0.10526315789474            48
    0.47368421052632    0.26315789473684    0.10526315789474            48
   -0.47368421052632    0.26315789473684    0.10526315789474            48
   -0.42105263157895    0.26315789473684    0.10526315789474            48
   -0.36842105263158    0.26315789473684    0.10526315789474            48
   -0.31578947368421    0.26315789473684    0.10526315789474            48
   -0.26315789473684    0.26315789473684    0.10526315789474            48
   -0.21052631578947    0.26315789473684    0.10526315789474            48
   -0.15789473684211    0.26315789473684    0.10526315789474            24
    0.42105263157895    0.31578947368421    0.10526315789474            24
    0.47368421052632    0.31578947368421    0.10526315789474            48
   -0.47368421052632    0.31578947368421    0.10526315789474            48
   -0.42105263157895    0.31578947368421    0.10526315789474            48
   -0.36842105263158    0.31578947368421    0.10526315789474            48
   -0.31578947368421    0.31578947368421    0.10526315789474            48
   -0.26315789473684    0.31578947368421    0.10526315789474            48
   -0.21052631578947    0.31578947368421    0.10526315789474            24
    0.47368421052632    0.36842105263158    0.10526315789474            24
   -0.47368421052632    0.36842105263158    0.10526315789474            48
   -0.42105263157895    0.36842105263158    0.10526315789474            48
   -0.36842105263158    0.36842105263158    0.10526315789474            48
   -0.31578947368421    0.36842105263158    0.10526315789474            48
   -0.26315789473684    0.36842105263158    0.10526315789474            24
   -0.47368421052632    0.42105263157895    0.10526315789474            24
   -0.42105263157895    0.42105263157895    0.10526315789474            48
   -0.36842105263158    0.42105263157895    0.10526315789474            48
   -0.31578947368421    0.42105263157895    0.10526315789474            24
   -0.42105263157895    0.47368421052632    0.10526315789474            24
   -0.36842105263158    0.47368421052632    0.10526315789474            24
    0.47368421052632    0.31578947368421    0.15789473684211            24
   -0.47368421052632    0.31578947368421    0.15789473684211            48
   -0.42105263157895    0.31578947368421    0.15789473684211            48
   -0.36842105263158    0.31578947368421    0.15789473684211            48
   -0.47368421052632    0.36842105263158    0.15789473684211            24
   -0.42105263157895    0.36842105263158    0.15789473684211            48
   -0.36842105263158    0.36842105263158    0.15789473684211            48
   -0.31578947368421    0.36842105263158    0.15789473684211            48
   -0.26315789473684    0.36842105263158    0.15789473684211            48
   -0.21052631578947    0.36842105263158    0.15789473684211            24
   -0.42105263157895    0.42105263157895    0.15789473684211            24
   -0.36842105263158    0.42105263157895    0.15789473684211            48
   -0.31578947368421    0.42105263157895    0.15789473684211            48
   -0.26315789473684    0.42105263157895    0.15789473684211            24
   -0.36842105263158    0.47368421052632    0.15789473684211            24
   -0.31578947368421    0.47368421052632    0.15789473684211            24
   -0.36842105263158    0.42105263157895    0.21052631578947            24
   -0.31578947368421    0.42105263157895    0.21052631578947            48
   -0.31578947368421    0.47368421052632    0.21052631578947            24
   -0.26315789473684    0.47368421052632    0.21052631578947            24
Tetrahedra
       955    0.00002429897458
        24         1         2         2        11
        48         2        11        12        28
        48         2         3        12        28
        24         2         2        11        28
        48         3        12        13        27
        48         3         4        13        27
        48         3        12        27        28
        48         4        13        14        26
        48         4         5        14        26
        48         4        13        26        27
        48         5        14        15        25
        48         5         6        15        25
        48         5        14        25        26
        48         6        15        16        24
        48         6         7        16        24
        48         6        15        24        25
        48         7        16        17        23
        48         7         8        17        23
        48         7        16        23        24
        48         8        17        18        22
        48         8         9        18        22
        48         8        17        22        23
        48         9        18        19        21
        48         9        10        19        21
        48         9        18        21        22
        48        10        19        20        20
        24        10        10        20        20
        48        10        19        20        21
        24        11        12        12        29
        24        11        12        12        28
        48        12        29        30       101
        48        12        13        30       101
        48        12        13        27       101
        24        12        12        29       101
        24        12        12        28       101
        48        12        27        28       101
        48        13        30        31       102
        48        13        14        31       102
        48        13        14        26       102
        48        13        30       101       102
        48        13        27       101       102
        48        13        26        27       102
        48        14        31        32       103
        48        14        15        32       103
        48        14        15        25       103
        48        14        31       102       103
        48        14        26       102       103
        48        14        25        26       103
        48        15        32        33       104
        48        15        16        33       104
        48        15        16        24       104
        48        15        32       103       104
        48        15        25       103       104
        48        15        24        25       104
        48        16        33        34       105
        48        16        17        34       105
        48        16        17        23       105
        48        16        33       104       105
        48        16        24       104       105
        48        16        23        24       105
        48        17        34        35       106
        48        17        18        35       106
        48        17        18        22       106
        48        17        34       105       106
        48        17        23       105       106
        48        17        22        23       106
        48        18        35        36       107
        48        18        19        36       107
        48        18        19        21       107
        48        18        35       106       107
        48        18        22       106       107
        48        18        21        22       107
        48        19        36        37       108
        48        19        20        37       108
        48        19        20        20       108
        48        19        36       107       108
        48        19        21       107       108
        48        19        20        21       108
        48        20        37        38       108
        48        20        21        38       108
        48        20        37       108       108
        24        20        20       108       108
        48        21        38        39       107
        48        21        22        39       107
        48        21        38       107       108
        48        22        39        40       106
        48        22        23        40       106
        48        22        39       106       107
        48        23        40        41       105
        48        23        24        41       105
        48        23        40       105       106
        48        24        41        42       104
        48        24        25        42       104
        48        24        41       104       105
        48        25        42        43       103
        48        25        26        43       103
        48        25        42       103       104
        48        26        43        44       102
        48        26        27        44       102
        48        26        43       102       103
        24        27        27        44       101
        24        27        27        28       101
        48        27        44       101       102
        24        29        30        30        45
        24        29        30        30       101
        48        30        45        46       109
        48        30        31        46       109
        48        30        31       102       109
        24        30        30        45       109
        24        30        30       101       109
        48        30       101       102       109
        48        31        46        47       110
        48        31        32        47       110
        48        31        32       103       110
        48        31        46       109       110
        48        31       102       109       110
        48        31       102       103       110
        48        32        47        48       111
        48        32        33        48       111
        48        32        33       104       111
        48        32        47       110       111
        48        32       103       110       111
        48        32       103       104       111
        48        33        48        49       112
        48        33        34        49       112
        48        33        34       105       112
        48        33        48       111       112
        48        33       104       111       112
        48        33       104       105       112
        48        34        49        50       113
        48        34        35        50       113
        48        34        35       106       113
        48        34        49       112       113
        48        34       105       112       113
        48        34       105       106       113
        48        35        50        51       114
        48        35        36        51       114
        48        35        36       107       114
        48        35        50       113       114
        48        35       106       113       114
        48        35       106       107       114
        48        36        51        52       115
        48        36        37        52       115
        48        36        37       108       115
        48        36        51       114       115
        48        36       107       114       115
        48        36       107       108       115
        48        37        52        53       116
        48        37        38        53       116
        48        37        38       108       116
        48        37        52       115       116
        48        37       108       115       116
        48        37       108       108       116
        48        38        53        54       117
        48        38        39        54       117
        48        38        39       107       117
        48        38        53       116       117
        48        38       108       116       117
        48        38       107       108       117
        48        39        54        55       118
        48        39        40        55       118
        48        39        40       106       118
        48        39        54       117       118
        48        39       107       117       118
        48        39       106       107       118
        48        40        55        56       119
        48        40        41        56       119
        48        40        41       105       119
        48        40        55       118       119
        48        40       106       118       119
        48        40       105       106       119
        48        41        56        57       120
        48        41        42        57       120
        48        41        42       104       120
        48        41        56       119       120
        48        41       105       119       120
        48        41       104       105       120
        48        42        57        58       121
        48        42        43        58       121
        48        42        43       103       121
        48        42        57       120       121
        48        42       104       120       121
        48        42       103       104       121
        24        43        43        58       122
        24        43        43        44       122
        48        43        44       102       122
        48        43        58       121       122
        48        43       103       121       122
        48        43       102       103       122
        24        44       102       102       122
        24        44       101       102       102
        24        45        46        46        59
        24        45        46        46       109
        48        46        59        60       123
        48        46        47        60       123
        48        46        47       110       123
        24        46        46        59       123
        24        46        46       109       123
        48        46       109       110       123
        48        47        60        61       124
        48        47        48        61       124
        48        47        48       111       124
        48        47        60       123       124
        48        47       110       123       124
        48        47       110       111       124
        48        48        61        62       125
        48        48        49        62       125
        48        48        49       112       125
        48        48        61       124       125
        48        48       111       124       125
        48        48       111       112       125
        48        49        62        63       126
        48        49        50        63       126
        48        49        50       113       126
        48        49        62       125       126
        48        49       112       125       126
        48        49       112       113       126
        48        50        63        64       127
        48        50        51        64       127
        48        50        51       114       127
        48        50        63       126       127
        48        50       113       126       127
        48        50       113       114       127
        48        51        64        65       128
        48        51        52        65       128
        48        51        52       115       128
        48        51        64       127       128
        48        51       114       127       128
        48        51       114       115       128
        48        52        65        66       129
        48        52        53        66       129
        48        52        53       116       129
        48        52        65       128       129
        48        52       115       128       129
        48        52       115       116       129
        48        53        66        67       130
        48        53        54        67       130
        48        53        54       117       130
        48        53        66       129       130
        48        53       116       129       130
        48        53       116       117       130
        48        54        67        68       131
        48        54        55        68       131
        48        54        55       118       131
        48        54        67       130       131
        48        54       117       130       131
        48        54       117       118       131
        48        55        68        69       132
        48        55        56        69       132
        48        55        56       119       132
        48        55        68       131       132
        48        55       118       131       132
        48        55       118       119       132
        48        56        69        70       133
        48        56        57        70       133
        48        56        57       120       133
        48        56        69       132       133
        48        56       119       132       133
        48        56       119       120       133
        24        57        57        70       134
        24        57        57        58       134
        48        57        58       121       134