       N       E                     dE             d eps       ncg     rms          rms(c)
DAV:   1     0.153131231783E+02    0.15313E+02   -0.29431E+03  3520   0.750E+02
DAV:   2    -0.753917582143E+01   -0.22852E+02   -0.22522E+02  4872   0.878E+01
DAV:   3    -0.798337542563E+01   -0.44420E+00   -0.44420E+00  4472   0.143E+01
DAV:   4    -0.798608467316E+01   -0.27092E-02   -0.27092E-02  5384   0.136E+00
DAV:   5    -0.798609525991E+01   -0.10587E-04   -0.10587E-04  4704   0.661E-02    0.230E+00
RMM:   6    -0.789946718065E+01    0.86628E-01   -0.57813E-02  3526   0.143E+00    0.137E+00
RMM:   7    -0.786854894105E+01    0.30918E-01   -0.91072E-02  3586   0.187E+00    0.181E-01
RMM:   8    -0.786936186525E+01   -0.81292E-03   -0.29016E-03  3797   0.404E-01    0.540E-02
RMM:   9    -0.786962780602E+01   -0.26594E-03   -0.50799E-04  3797   0.160E-01    0.150E-02
RMM:  10    -0.786962526453E+01    0.25415E-05   -0.46671E-05  4183   0.494E-02    0.523E-03
RMM:  11    -0.786962640351E+01   -0.11390E-05   -0.74944E-06  3931   0.217E-02    0.225E-03
RMM:  12    -0.786962701883E+01   -0.61533E-06   -0.50855E-07  2889   0.633E-03
   1 F= -.78696270E+01 E0= -.78696270E+01  d E =0.000000E+00
