   2   2   0   0
  0.2346845E+02  0.4048957E-09  0.4048957E-09  0.4048957E-09  0.0000000E+00
   1.0000000000000000E-004
  CAR 
 unknown system                          
     21.10874012    -23.96781023  301     -0.98573898      1.00000000
    -23.968  0.0000E+00  0.0000E+00
    -23.818  0.0000E+00  0.0000E+00
    -23.667  0.0000E+00  0.0000E+00
    -23.517  0.0000E+00  0.0000E+00
    -23.367  0.0000E+00  0.0000E+00
    -23.217  0.0000E+00  0.0000E+00
    -23.066  0.0000E+00  0.0000E+00
    -22.916  0.0000E+00  0.0000E+00
    -22.766  0.0000E+00  0.0000E+00
    -22.616  0.0000E+00  0.0000E+00
    -22.465  0.0000E+00  0.0000E+00
    -22.315  0.0000E+00  0.0000E+00
    -22.165  0.0000E+00  0.0000E+00
    -22.014  0.0000E+00  0.0000E+00
    -21.864  0.3993E+02  0.6000E+01
    -21.714  0.0000E+00  0.6000E+01
    -21.564  0.0000E+00  0.6000E+01
    -21.413  0.0000E+00  0.6000E+01
    -21.263  0.0000E+00  0.6000E+01
    -21.113  0.0000E+00  0.6000E+01
    -20.963  0.0000E+00  0.6000E+01
    -20.812  0.0000E+00  0.6000E+01
    -20.662  0.0000E+00  0.6000E+01
    -20.512  0.0000E+00  0.6000E+01
    -20.362  0.0000E+00  0.6000E+01
    -20.211  0.0000E+00  0.6000E+01
    -20.061  0.0000E+00  0.6000E+01
    -19.911  0.0000E+00  0.6000E+01
    -19.761  0.0000E+00  0.6000E+01
    -19.610  0.0000E+00  0.6000E+01
    -19.460  0.0000E+00  0.6000E+01
    -19.310  0.0000E+00  0.6000E+01
    -19.160  0.0000E+00  0.6000E+01
    -19.009  0.0000E+00  0.6000E+01
    -18.859  0.0000E+00  0.6000E+01
    -18.709  0.0000E+00  0.6000E+01
    -18.559  0.0000E+00  0.6000E+01
    -18.408  0.0000E+00  0.6000E+01
    -18.258  0.0000E+00  0.6000E+01
    -18.108  0.0000E+00  0.6000E+01
    -17.958  0.0000E+00  0.6000E+01
    -17.807  0.0000E+00  0.6000E+01
    -17.657  0.0000E+00  0.6000E+01
    -17.507  0.0000E+00  0.6000E+01
    -17.357  0.0000E+00  0.6000E+01
    -17.206  0.0000E+00  0.6000E+01
    -17.056  0.0000E+00  0.6000E+01
    -16.906  0.0000E+00  0.6000E+01
    -16.756  0.0000E+00  0.6000E+01
    -16.605  0.0000E+00  0.6000E+01
    -16.455  0.0000E+00  0.6000E+01
    -16.305  0.0000E+00  0.6000E+01
    -16.155  0.0000E+00  0.6000E+01
    -16.004  0.0000E+00  0.6000E+01
    -15.854  0.0000E+00  0.6000E+01
    -15.704  0.0000E+00  0.6000E+01
    -15.554  0.0000E+00  0.6000E+01
    -15.403  0.0000E+00  0.6000E+01
    -15.253  0.0000E+00  0.6000E+01
    -15.103  0.0000E+00  0.6000E+01
    -14.953  0.0000E+00  0.6000E+01
    -14.802  0.0000E+00  0.6000E+01
    -14.652  0.0000E+00  0.6000E+01
    -14.502  0.0000E+00  0.6000E+01
    -14.351  0.0000E+00  0.6000E+01
    -14.201  0.0000E+00  0.6000E+01
    -14.051  0.0000E+00  0.6000E+01
    -13.901  0.0000E+00  0.6000E+01
    -13.750  0.0000E+00  0.6000E+01
    -13.600  0.0000E+00  0.6000E+01
    -13.450  0.1852E+01  0.6080E+01
    -13.300  0.7379E+01  0.6540E+01
    -13.149  0.8488E+01  0.8000E+01
    -12.999  0.0000E+00  0.8000E+01
    -12.849  0.0000E+00  0.8000E+01
    -12.699  0.0000E+00  0.8000E+01
    -12.548  0.0000E+00  0.8000E+01
    -12.398  0.0000E+00  0.8000E+01
    -12.248  0.0000E+00  0.8000E+01
    -12.098  0.0000E+00  0.8000E+01
    -11.947  0.0000E+00  0.8000E+01
    -11.797  0.0000E+00  0.8000E+01
    -11.647  0.0000E+00  0.8000E+01
    -11.497  0.0000E+00  0.8000E+01
    -11.346  0.0000E+00  0.8000E+01
    -11.196  0.0000E+00  0.8000E+01
    -11.046  0.0000E+00  0.8000E+01
    -10.896  0.0000E+00  0.8000E+01
    -10.745  0.0000E+00  0.8000E+01
    -10.595  0.0000E+00  0.8000E+01
    -10.445  0.0000E+00  0.8000E+01
    -10.295  0.0000E+00  0.8000E+01
    -10.144  0.0000E+00  0.8000E+01
     -9.994  0.0000E+00  0.8000E+01
     -9.844  0.0000E+00  0.8000E+01
     -9.694  0.0000E+00  0.8000E+01
     -9.543  0.0000E+00  0.8000E+01
     -9.393  0.0000E+00  0.8000E+01
     -9.243  0.0000E+00  0.8000E+01
     -9.093  0.0000E+00  0.8000E+01
     -8.942  0.0000E+00  0.8000E+01
     -8.792  0.0000E+00  0.8000E+01
     -8.642  0.0000E+00  0.8000E+01
     -8.492  0.0000E+00  0.8000E+01
     -8.341  0.0000E+00  0.8000E+01
     -8.191  0.0000E+00  0.8000E+01
     -8.041  0.0000E+00  0.8000E+01
     -7.891  0.0000E+00  0.8000E+01
     -7.740  0.0000E+00  0.8000E+01
     -7.590  0.0000E+00  0.8000E+01
     -7.440  0.0000E+00  0.8000E+01
     -7.289  0.0000E+00  0.8000E+01
     -7.139  0.0000E+00  0.8000E+01
     -6.989  0.0000E+00  0.8000E+01
     -6.839  0.0000E+00  0.8000E+01
     -6.688  0.0000E+00  0.8000E+01
     -6.538  0.0000E+00  0.8000E+01
     -6.388  0.0000E+00  0.8000E+01
     -6.238  0.0000E+00  0.8000E+01
     -6.087  0.0000E+00  0.8000E+01
     -5.937  0.0000E+00  0.8000E+01
     -5.787  0.0000E+00  0.8000E+01
     -5.637  0.0000E+00  0.8000E+01
     -5.486  0.0000E+00  0.8000E+01
     -5.336  0.0000E+00  0.8000E+01
     -5.186  0.0000E+00  0.8000E+01
     -5.036  0.0000E+00  0.8000E+01
     -4.885  0.0000E+00  0.8000E+01
     -4.735  0.0000E+00  0.8000E+01
     -4.585  0.0000E+00  0.8000E+01
     -4.435  0.0000E+00  0.8000E+01
     -4.284  0.0000E+00  0.8000E+01
     -4.134  0.0000E+00  0.8000E+01
     -3.984  0.0000E+00  0.8000E+01
     -3.834  0.0000E+00  0.8000E+01
     -3.683  0.0000E+00  0.8000E+01
     -3.533  0.0000E+00  0.8000E+01
     -3.383  0.0000E+00  0.8000E+01
     -3.233  0.0000E+00  0.8000E+01
     -3.082  0.0000E+00  0.8000E+01
     -2.932  0.0000E+00  0.8000E+01
     -2.782  0.0000E+00  0.8000E+01
     -2.632  0.1450E+01  0.8090E+01
     -2.481  0.2984E+01  0.8348E+01
     -2.331  0.7486E+01  0.9191E+01
     -2.181  0.1475E+01  0.9645E+01
     -2.031  0.1294E+01  0.9793E+01
     -1.880  0.2538E+01  0.1011E+02
     -1.730  0.2860E+01  0.1049E+02
     -1.580  0.4362E+01  0.1096E+02
     -1.430  0.8001E+01  0.1186E+02
     -1.279  0.8468E+01  0.1289E+02
     -1.129  0.5097E+01  0.1373E+02
     -0.979  0.9936E+00  0.1400E+02
     -0.829  0.0000E+00  0.1400E+02
     -0.678  0.0000E+00  0.1400E+02
     -0.528  0.0000E+00  0.1400E+02
     -0.378  0.0000E+00  0.1400E+02
     -0.227  0.0000E+00  0.1400E+02
     -0.077  0.0000E+00  0.1400E+02
      0.073  0.0000E+00  0.1400E+02
      0.223  0.0000E+00  0.1400E+02
      0.374  0.0000E+00  0.1400E+02
      0.524  0.0000E+00  0.1400E+02
      0.674  0.0000E+00  0.1400E+02
      0.824  0.0000E+00  0.1400E+02
      0.975  0.0000E+00  0.1400E+02
      1.125  0.0000E+00  0.1400E+02
      1.275  0.0000E+00  0.1400E+02
      1.425  0.0000E+00  0.1400E+02
      1.576  0.0000E+00  0.1400E+02
      1.726  0.0000E+00  0.1400E+02
      1.876  0.0000E+00  0.1400E+02
      2.026  0.0000E+00  0.1400E+02
      2.177  0.0000E+00  0.1400E+02
      2.327  0.0000E+00  0.1400E+02
      2.477  0.0000E+00  0.1400E+02
      2.627  0.0000E+00  0.1400E+02
      2.778  0.0000E+00  0.1400E+02
      2.928  0.0000E+00  0.1400E+02
      3.078  0.0000E+00  0.1400E+02
      3.228  0.0000E+00  0.1400E+02
      3.379  0.0000E+00  0.1400E+02
      3.529  0.0000E+00  0.1400E+02
      3.679  0.0000E+00  0.1400E+02
      3.829  0.0000E+00  0.1400E+02
      3.980  0.8956E-03  0.1400E+02
      4.130  0.3635E-01  0.1400E+02
      4.280  0.4955E-01  0.1401E+02
      4.430  0.6938E-01  0.1402E+02
      4.581  0.8726E-01  0.1403E+02
      4.731  0.1050E+00  0.1404E+02
      4.881  0.1250E+00  0.1406E+02
      5.031  0.1465E+00  0.1408E+02
      5.182  0.1705E+00  0.1411E+02
      5.332  0.1981E+00  0.1413E+02
      5.482  0.2291E+00  0.1416E+02
      5.632  0.2653E+00  0.1420E+02
      5.783  0.3141E+00  0.1425E+02
      5.933  0.3773E+00  0.1430E+02
      6.083  0.4614E+00  0.1436E+02
      6.233  0.6907E+00  0.1444E+02
      6.384  0.7772E+00  0.1456E+02
      6.534  0.1165E+01  0.1470E+02
      6.684  0.1192E+01  0.1488E+02
      6.834  0.1230E+01  0.1507E+02
      6.985  0.1216E+01  0.1525E+02
      7.135  0.1162E+01  0.1543E+02
      7.285  0.1336E+01  0.1562E+02
      7.436  0.1324E+01  0.1581E+02
      7.586  0.1324E+01  0.1601E+02
      7.736  0.1005E+01  0.1619E+02
      7.886  0.8011E+00  0.1631E+02
      8.037  0.1280E+01  0.1646E+02
      8.187  0.2317E+01  0.1679E+02
      8.337  0.1441E+01  0.1702E+02
      8.487  0.1281E+01  0.1722E+02
      8.638  0.2111E+01  0.1749E+02
      8.788  0.2773E+01  0.1784E+02
      8.938  0.2413E+01  0.1822E+02
      9.088  0.2751E+01  0.1863E+02
      9.239  0.1886E+01  0.1896E+02
      9.389  0.1457E+01  0.1922E+02
      9.539  0.1145E+01  0.1941E+02
      9.689  0.9844E+00  0.1957E+02
      9.840  0.7193E+00  0.1970E+02
      9.990  0.8018E+00  0.1981E+02
     10.140  0.1038E+01  0.1993E+02
     10.290  0.1860E+01  0.2013E+02
     10.441  0.1758E+01  0.2040E+02
     10.591  0.1787E+01  0.2063E+02
     10.741  0.2339E+01  0.2096E+02
     10.891  0.1505E+01  0.2127E+02
     11.042  0.1158E+01  0.2146E+02
     11.192  0.1149E+01  0.2163E+02
     11.342  0.1069E+01  0.2180E+02
     11.492  0.9176E+00  0.2195E+02
     11.643  0.8499E+00  0.2208E+02
     11.793  0.7873E+00  0.2221E+02
     11.943  0.7337E+00  0.2232E+02
     12.093  0.8591E+00  0.2244E+02
     12.244  0.9567E+00  0.2257E+02
     12.394  0.1003E+01  0.2272E+02
     12.544  0.1209E+01  0.2288E+02
     12.694  0.1706E+01  0.2310E+02
     12.845  0.1877E+01  0.2337E+02
     12.995  0.1730E+01  0.2365E+02
     13.145  0.1368E+01  0.2388E+02
     13.295  0.1034E+01  0.2407E+02
     13.446  0.8759E+00  0.2421E+02
     13.596  0.9266E+00  0.2434E+02
     13.746  0.8971E+00  0.2448E+02
     13.896  0.8978E+00  0.2461E+02
     14.047  0.9416E+00  0.2475E+02
     14.197  0.1553E+01  0.2491E+02
     14.347  0.1798E+01  0.2518E+02
     14.498  0.2096E+01  0.2547E+02
     14.648  0.1504E+01  0.2575E+02
     14.798  0.1592E+01  0.2597E+02
     14.948  0.1275E+01  0.2620E+02
     15.099  0.8019E+00  0.2635E+02
     15.249  0.7669E+00  0.2646E+02
     15.399  0.2046E+01  0.2666E+02
     15.549  0.2543E+01  0.2700E+02
     15.700  0.2367E+01  0.2740E+02
     15.850  0.1665E+01  0.2770E+02
     16.000  0.1785E+01  0.2795E+02
     16.150  0.1802E+01  0.2822E+02
     16.301  0.1704E+01  0.2847E+02
     16.451  0.2008E+01  0.2875E+02
     16.601  0.1866E+01  0.2904E+02
     16.751  0.1980E+01  0.2933E+02
     16.902  0.2018E+01  0.2964E+02
     17.052  0.1968E+01  0.2993E+02
     17.202  0.1851E+01  0.3022E+02
     17.352  0.1407E+01  0.3048E+02
     17.503  0.1449E+01  0.3068E+02
     17.653  0.2135E+01  0.3094E+02
     17.803  0.2332E+01  0.3129E+02
     17.953  0.1928E+01  0.3162E+02
     18.104  0.1010E+01  0.3184E+02
     18.254  0.3746E+00  0.3194E+02
     18.404  0.1187E+00  0.3197E+02
     18.554  0.6831E-01  0.3199E+02
     18.705  0.3374E-01  0.3200E+02
     18.855  0.1123E-01  0.3200E+02
     19.005  0.7985E-03  0.3200E+02
     19.155  0.0000E+00  0.3200E+02
     19.306  0.0000E+00  0.3200E+02
     19.456  0.0000E+00  0.3200E+02
     19.606  0.0000E+00  0.3200E+02
     19.756  0.0000E+00  0.3200E+02
     19.907  0.0000E+00  0.3200E+02
     20.057  0.0000E+00  0.3200E+02
     20.207  0.0000E+00  0.3200E+02
     20.357  0.0000E+00  0.3200E+02
     20.508  0.0000E+00  0.3200E+02
     20.658  0.0000E+00  0.3200E+02
     20.808  0.0000E+00  0.3200E+02
     20.958  0.0000E+00  0.3200E+02
     21.109  0.0000E+00  0.3200E+02
