   3   3   0   0
  0.2190985E+02  0.4529934E-09  0.4529934E-09  0.4529934E-09  0.5000000E-15
  1.000000000000000E-004
  CAR
 unknown system
     14.68450123    -34.66082720  301     11.61166244      1.00000000
    -34.661  0.0000E+00  0.0000E+00
    -34.496  0.0000E+00  0.0000E+00
    -34.332  0.0000E+00  0.0000E+00
    -34.167  0.0000E+00  0.0000E+00
    -34.003  0.0000E+00  0.0000E+00
    -33.838  0.0000E+00  0.0000E+00
    -33.674  0.0000E+00  0.0000E+00
    -33.509  0.0000E+00  0.0000E+00
    -33.345  0.0000E+00  0.0000E+00
    -33.180  0.0000E+00  0.0000E+00
    -33.016  0.0000E+00  0.0000E+00
    -32.851  0.0000E+00  0.0000E+00
    -32.687  0.0000E+00  0.0000E+00
    -32.523  0.0000E+00  0.0000E+00
    -32.358  0.1216E+02  0.2000E+01
    -32.194  0.0000E+00  0.2000E+01
    -32.029  0.0000E+00  0.2000E+01
    -31.865  0.0000E+00  0.2000E+01
    -31.700  0.0000E+00  0.2000E+01
    -31.536  0.0000E+00  0.2000E+01
    -31.371  0.0000E+00  0.2000E+01
    -31.207  0.0000E+00  0.2000E+01
    -31.042  0.0000E+00  0.2000E+01
    -30.878  0.0000E+00  0.2000E+01
    -30.713  0.0000E+00  0.2000E+01
    -30.549  0.0000E+00  0.2000E+01
    -30.384  0.0000E+00  0.2000E+01
    -30.220  0.0000E+00  0.2000E+01
    -30.055  0.0000E+00  0.2000E+01
    -29.891  0.0000E+00  0.2000E+01
    -29.726  0.0000E+00  0.2000E+01
    -29.562  0.0000E+00  0.2000E+01
    -29.397  0.0000E+00  0.2000E+01
    -29.233  0.0000E+00  0.2000E+01
    -29.068  0.0000E+00  0.2000E+01
    -28.904  0.0000E+00  0.2000E+01
    -28.739  0.0000E+00  0.2000E+01
    -28.575  0.0000E+00  0.2000E+01
    -28.410  0.0000E+00  0.2000E+01
    -28.246  0.0000E+00  0.2000E+01
    -28.081  0.0000E+00  0.2000E+01
    -27.917  0.0000E+00  0.2000E+01
    -27.752  0.0000E+00  0.2000E+01
    -27.588  0.0000E+00  0.2000E+01
    -27.424  0.0000E+00  0.2000E+01
    -27.259  0.0000E+00  0.2000E+01
    -27.095  0.0000E+00  0.2000E+01
    -26.930  0.0000E+00  0.2000E+01
    -26.766  0.0000E+00  0.2000E+01
    -26.601  0.0000E+00  0.2000E+01
    -26.437  0.0000E+00  0.2000E+01
    -26.272  0.0000E+00  0.2000E+01
    -26.108  0.0000E+00  0.2000E+01
    -25.943  0.0000E+00  0.2000E+01
    -25.779  0.0000E+00  0.2000E+01
    -25.614  0.0000E+00  0.2000E+01
    -25.450  0.0000E+00  0.2000E+01
    -25.285  0.0000E+00  0.2000E+01
    -25.121  0.0000E+00  0.2000E+01
    -24.956  0.0000E+00  0.2000E+01
    -24.792  0.0000E+00  0.2000E+01
    -24.627  0.0000E+00  0.2000E+01
    -24.463  0.0000E+00  0.2000E+01
    -24.298  0.0000E+00  0.2000E+01
    -24.134  0.0000E+00  0.2000E+01
    -23.969  0.0000E+00  0.2000E+01
    -23.805  0.0000E+00  0.2000E+01
    -23.640  0.0000E+00  0.2000E+01
    -23.476  0.0000E+00  0.2000E+01
    -23.311  0.0000E+00  0.2000E+01
    -23.147  0.0000E+00  0.2000E+01
    -22.982  0.0000E+00  0.2000E+01
    -22.818  0.0000E+00  0.2000E+01
    -22.653  0.0000E+00  0.2000E+01
    -22.489  0.0000E+00  0.2000E+01
    -22.324  0.0000E+00  0.2000E+01
    -22.160  0.0000E+00  0.2000E+01
    -21.996  0.0000E+00  0.2000E+01
    -21.831  0.0000E+00  0.2000E+01
    -21.667  0.0000E+00  0.2000E+01
    -21.502  0.0000E+00  0.2000E+01
    -21.338  0.0000E+00  0.2000E+01
    -21.173  0.0000E+00  0.2000E+01
    -21.009  0.0000E+00  0.2000E+01
    -20.844  0.0000E+00  0.2000E+01
    -20.680  0.0000E+00  0.2000E+01
    -20.515  0.0000E+00  0.2000E+01
    -20.351  0.0000E+00  0.2000E+01
    -20.186  0.0000E+00  0.2000E+01
    -20.022  0.0000E+00  0.2000E+01
    -19.857  0.0000E+00  0.2000E+01
    -19.693  0.0000E+00  0.2000E+01
    -19.528  0.0000E+00  0.2000E+01
    -19.364  0.0000E+00  0.2000E+01
    -19.199  0.0000E+00  0.2000E+01
    -19.035  0.0000E+00  0.2000E+01
    -18.870  0.0000E+00  0.2000E+01
    -18.706  0.0000E+00  0.2000E+01
    -18.541  0.0000E+00  0.2000E+01
    -18.377  0.0000E+00  0.2000E+01
    -18.212  0.0000E+00  0.2000E+01
    -18.048  0.0000E+00  0.2000E+01
    -17.883  0.0000E+00  0.2000E+01
    -17.719  0.0000E+00  0.2000E+01
    -17.554  0.0000E+00  0.2000E+01
    -17.390  0.0000E+00  0.2000E+01
    -17.225  0.0000E+00  0.2000E+01
    -17.061  0.0000E+00  0.2000E+01
    -16.897  0.0000E+00  0.2000E+01
    -16.732  0.0000E+00  0.2000E+01
    -16.568  0.0000E+00  0.2000E+01
    -16.403  0.0000E+00  0.2000E+01
    -16.239  0.0000E+00  0.2000E+01
    -16.074  0.0000E+00  0.2000E+01
    -15.910  0.0000E+00  0.2000E+01
    -15.745  0.0000E+00  0.2000E+01
    -15.581  0.0000E+00  0.2000E+01
    -15.416  0.0000E+00  0.2000E+01
    -15.252  0.0000E+00  0.2000E+01
    -15.087  0.0000E+00  0.2000E+01
    -14.923  0.0000E+00  0.2000E+01
    -14.758  0.0000E+00  0.2000E+01
    -14.594  0.0000E+00  0.2000E+01
    -14.429  0.0000E+00  0.2000E+01
    -14.265  0.0000E+00  0.2000E+01
    -14.100  0.0000E+00  0.2000E+01
    -13.936  0.0000E+00  0.2000E+01
    -13.771  0.0000E+00  0.2000E+01
    -13.607  0.0000E+00  0.2000E+01
    -13.442  0.0000E+00  0.2000E+01
    -13.278  0.0000E+00  0.2000E+01
    -13.113  0.0000E+00  0.2000E+01
    -12.949  0.0000E+00  0.2000E+01
    -12.784  0.0000E+00  0.2000E+01
    -12.620  0.0000E+00  0.2000E+01
    -12.455  0.0000E+00  0.2000E+01
    -12.291  0.0000E+00  0.2000E+01
    -12.126  0.0000E+00  0.2000E+01
    -11.962  0.0000E+00  0.2000E+01
    -11.797  0.0000E+00  0.2000E+01
    -11.633  0.0000E+00  0.2000E+01
    -11.469  0.4555E+02  0.1037E+02
    -11.304  0.0000E+00  0.1200E+02
    -11.140  0.0000E+00  0.1200E+02
    -10.975  0.0000E+00  0.1200E+02
    -10.811  0.0000E+00  0.1200E+02
    -10.646  0.0000E+00  0.1200E+02
    -10.482  0.0000E+00  0.1200E+02
    -10.317  0.0000E+00  0.1200E+02
    -10.153  0.0000E+00  0.1200E+02
     -9.988  0.0000E+00  0.1200E+02
     -9.824  0.0000E+00  0.1200E+02
     -9.659  0.0000E+00  0.1200E+02
     -9.495  0.0000E+00  0.1200E+02
     -9.330  0.0000E+00  0.1200E+02
     -9.166  0.0000E+00  0.1200E+02
     -9.001  0.0000E+00  0.1200E+02
     -8.837  0.0000E+00  0.1200E+02
     -8.672  0.0000E+00  0.1200E+02
     -8.508  0.0000E+00  0.1200E+02
     -8.343  0.0000E+00  0.1200E+02
     -8.179  0.1247E-01  0.1200E+02
     -8.014  0.7941E+01  0.1371E+02
     -7.850  0.6616E+01  0.1520E+02
     -7.685  0.5247E+01  0.1800E+02
     -7.521  0.0000E+00  0.1800E+02
     -7.356  0.0000E+00  0.1800E+02
     -7.192  0.0000E+00  0.1800E+02
     -7.027  0.0000E+00  0.1800E+02
     -6.863  0.0000E+00  0.1800E+02
     -6.698  0.0000E+00  0.1800E+02
     -6.534  0.0000E+00  0.1800E+02
     -6.370  0.0000E+00  0.1800E+02
     -6.205  0.0000E+00  0.1800E+02
     -6.041  0.0000E+00  0.1800E+02
     -5.876  0.0000E+00  0.1800E+02
     -5.712  0.0000E+00  0.1800E+02
     -5.547  0.0000E+00  0.1800E+02
     -5.383  0.0000E+00  0.1800E+02
     -5.218  0.0000E+00  0.1800E+02
     -5.054  0.0000E+00  0.1800E+02
     -4.889  0.0000E+00  0.1800E+02
     -4.725  0.0000E+00  0.1800E+02
     -4.560  0.0000E+00  0.1800E+02
     -4.396  0.0000E+00  0.1800E+02
     -4.231  0.0000E+00  0.1800E+02
     -4.067  0.0000E+00  0.1800E+02
     -3.902  0.0000E+00  0.1800E+02
     -3.738  0.0000E+00  0.1800E+02
     -3.573  0.0000E+00  0.1800E+02
     -3.409  0.0000E+00  0.1800E+02
     -3.244  0.0000E+00  0.1800E+02
     -3.080  0.0000E+00  0.1800E+02
     -2.915  0.0000E+00  0.1800E+02
     -2.751  0.0000E+00  0.1800E+02
     -2.586  0.0000E+00  0.1800E+02
     -2.422  0.0000E+00  0.1800E+02
     -2.257  0.0000E+00  0.1800E+02
     -2.093  0.0000E+00  0.1800E+02
     -1.928  0.0000E+00  0.1800E+02
     -1.764  0.0000E+00  0.1800E+02
     -1.599  0.4658E-07  0.1800E+02
     -1.435  0.7662E-01  0.1801E+02
     -1.270  0.6842E-01  0.1802E+02
     -1.106  0.3321E-01  0.1806E+02
     -0.942  0.7831E-01  0.1812E+02
     -0.777  0.9370E-01  0.1817E+02
     -0.613  0.6706E+00  0.1837E+02
     -0.448  0.2034E+01  0.1890E+02
     -0.284  0.1979E+01  0.1952E+02
     -0.119  0.4926E+00  0.1987E+02
      0.045  0.1771E+00  0.2000E+02
      0.210  0.0000E+00  0.2000E+02
      0.374  0.0000E+00  0.2000E+02
      0.539  0.0000E+00  0.2000E+02
      0.703  0.0000E+00  0.2000E+02
      0.868  0.0000E+00  0.2000E+02
      1.032  0.0000E+00  0.2000E+02
      1.197  0.0000E+00  0.2000E+02
      1.361  0.0000E+00  0.2000E+02
      1.526  0.0000E+00  0.2000E+02
      1.690  0.0000E+00  0.2000E+02
      1.855  0.0000E+00  0.2000E+02
      2.019  0.0000E+00  0.2000E+02
      2.184  0.0000E+00  0.2000E+02
      2.348  0.0000E+00  0.2000E+02
      2.513  0.0000E+00  0.2000E+02
      2.677  0.0000E+00  0.2000E+02
      2.842  0.0000E+00  0.2000E+02
      3.006  0.0000E+00  0.2000E+02
      3.171  0.0000E+00  0.2000E+02
      3.335  0.0000E+00  0.2000E+02
      3.500  0.0000E+00  0.2000E+02
      3.664  0.0000E+00  0.2000E+02
      3.829  0.0000E+00  0.2000E+02
      3.993  0.0000E+00  0.2000E+02
      4.157  0.0000E+00  0.2000E+02
      4.322  0.0000E+00  0.2000E+02
      4.486  0.0000E+00  0.2000E+02
      4.651  0.0000E+00  0.2000E+02
      4.815  0.4543E-01  0.2001E+02
      4.980  0.1282E+01  0.2031E+02
      5.144  0.5274E+00  0.2072E+02
      5.309  0.5888E+00  0.2108E+02
      5.473  0.8331E+00  0.2131E+02
      5.638  0.1854E+01  0.2179E+02
      5.802  0.2550E+01  0.2281E+02
      5.967  0.2327E+01  0.2360E+02
      6.131  0.2668E+01  0.2451E+02
      6.296  0.2630E+01  0.2538E+02
      6.460  0.1438E+01  0.2591E+02
      6.625  0.4742E+00  0.2607E+02
      6.789  0.5275E+01  0.2697E+02
      6.954  0.2461E+01  0.2835E+02
      7.118  0.3525E+01  0.2943E+02
      7.283  0.1397E+01  0.3007E+02
      7.447  0.3939E+00  0.3027E+02
      7.612  0.4196E+00  0.3055E+02
      7.776  0.9587E+00  0.3104E+02
      7.941  0.1351E+01  0.3141E+02
      8.105  0.2581E+00  0.3157E+02
      8.270  0.9439E+00  0.3181E+02
      8.434  0.5479E+00  0.3195E+02
      8.599  0.4998E+00  0.3213E+02
      8.763  0.7166E+00  0.3244E+02
      8.928  0.4858E+00  0.3262E+02
      9.092  0.1744E+01  0.3301E+02
      9.257  0.2313E+00  0.3313E+02
      9.421  0.9688E+00  0.3343E+02
      9.585  0.5659E+00  0.3365E+02
      9.750  0.2224E+01  0.3413E+02
      9.914  0.2530E+01  0.3543E+02
     10.079  0.8008E+00  0.3593E+02
     10.243  0.1597E+00  0.3600E+02
     10.408  0.0000E+00  0.3600E+02
     10.572  0.0000E+00  0.3600E+02
     10.737  0.1715E+00  0.3603E+02
     10.901  0.1147E+01  0.3623E+02
     11.066  0.1589E+01  0.3676E+02
     11.230  0.1529E+01  0.3738E+02
     11.395  0.1172E+01  0.3795E+02
     11.559  0.1379E+01  0.3825E+02
     11.724  0.5894E+01  0.4086E+02
     11.888  0.3516E+01  0.4220E+02
     12.053  0.6719E+01  0.4480E+02
     12.217  0.7596E+01  0.4727E+02
     12.382  0.5910E+00  0.4798E+02
     12.546  0.0000E+00  0.4800E+02
     12.711  0.0000E+00  0.4800E+02
     12.875  0.0000E+00  0.4800E+02
     13.040  0.0000E+00  0.4800E+02
     13.204  0.0000E+00  0.4800E+02
     13.369  0.0000E+00  0.4800E+02
     13.533  0.0000E+00  0.4800E+02
     13.698  0.0000E+00  0.4800E+02
     13.862  0.0000E+00  0.4800E+02
     14.027  0.0000E+00  0.4800E+02
     14.191  0.0000E+00  0.4800E+02
     14.356  0.0000E+00  0.4800E+02
     14.520  0.0000E+00  0.4800E+02
     14.685  0.0000E+00  0.4800E+02
