    3    3    1    1
  0.2190985E+02  0.4529934E-09  0.4529934E-09  0.4529934E-09  0.5000000E-15
  1.000000000000000E-004
  CAR
 unknown system
     39     84     24

  0.0000000E+00  0.0000000E+00  0.0000000E+00  0.4551661E-03
    1      -32.417858   1.000000
    2      -11.511984   1.000000
    3      -11.511984   1.000000
    4      -11.475736   1.000000
    5      -11.475736   1.000000
    6      -11.475736   1.000000
    7       -7.832698   1.000000
    8       -7.832698   1.000000
    9       -7.832698   1.000000
   10       -1.569029   1.000000
   11        6.516089   1.000000
   12        6.516089   1.000000
   13        6.516089   1.000000
   14        6.646736   1.000000
   15        6.646736   1.000000
   16       10.247447   1.000000
   17       10.247447   1.000000
   18       10.247447   1.000000
   19       10.295987   1.000000
   20       11.470161   1.000000
   21       11.470161   1.000000
   22       11.470161   1.000000
   23       11.924940   0.000000
   24       11.924940   0.000000

  0.7692308E-01 -0.1383751E-17  0.2564730E-17  0.3641329E-02
    1      -32.417336   1.000000
    2      -11.514869   1.000000
    3      -11.514869   1.000000
    4      -11.476278   1.000000
    5      -11.475420   1.000000
    6      -11.475420   1.000000
    7       -7.857475   1.000000
    8       -7.826118   1.000000
    9       -7.826118   1.000000
   10       -1.477303   1.000000
   11        6.315818   1.000000
   12        6.315818   1.000000
   13        6.387701   1.000000
   14        6.835267   1.000000
   15        6.835267   1.000000
   16        9.569105   1.000000
   17       10.180300   1.000000
   18       10.180300   1.000000
   19       10.697549   1.000000
   20       11.484013   1.000000
   21       11.484013   1.000000
   22       11.548132   1.000000
   23       11.940826   0.000000
   24       11.994402   0.000000

  0.1538462E+00 -0.6261561E-17  0.8623518E-17  0.3641329E-02
    1      -32.415898   1.000000
    2      -11.522833   1.000000
    3      -11.522833   1.000000
    4      -11.477970   1.000000
    5      -11.474496   1.000000
    6      -11.474496   1.000000
    7       -7.922392   1.000000
    8       -7.807982   1.000000
    9       -7.807982   1.000000
   10       -1.223301   1.000000
   11        6.053926   1.000000
   12        6.095705   1.000000
   13        6.095705   1.000000
   14        7.006474   1.000000
   15        7.006474   1.000000
   16        8.834339   1.000000
   17       10.043249   1.000000
   18       10.043249   1.000000
   19       10.723012   1.000000
   20       11.514182   1.000000
   21       11.514182   1.000000
   22       11.824421   0.000000
   23       11.931009   0.000000
   24       12.147308   0.000000

  0.2307692E+00 -0.2088738E-17  0.5631673E-17  0.3641329E-02
    1      -32.413872   1.000000
    2      -11.533951   1.000000
    3      -11.533951   1.000000
    4      -11.480854   1.000000
    5      -11.473154   1.000000
    6      -11.473154   1.000000
    7       -8.005407   1.000000
    8       -7.782594   1.000000
    9       -7.782594   1.000000
   10       -0.864757   1.000000
   11        5.628751   1.000000
   12        5.935033   1.000000
   13        5.935033   1.000000
   14        7.056788   1.000000
   15        7.056788   1.000000
   16        8.186818   1.000000
   17        9.940595   1.000000
   18        9.940595   1.000000
   19       10.694599   1.000000
   20       11.554100   1.000000
   21       11.554100   1.000000
   22       11.937557   0.000000
   23       12.001480   0.000000
   24       12.256730   0.000000

  0.3076923E+00 -0.1252312E-16  0.1724704E-16  0.3641329E-02
    1      -32.411724   1.000000
    2      -11.545605   1.000000
    3      -11.545604   1.000000
    4      -11.484592   1.000000
    5      -11.471703   1.000000
    6      -11.471703   1.000000
    7       -8.083899   1.000000
    8       -7.755893   1.000000
    9       -7.755893   1.000000
   10       -0.482650   1.000000
   11        5.226521   1.000000
   12        5.847961   1.000000
   13        5.847961   1.000000
   14        6.979153   1.000000
   15        6.979153   1.000000
   16        7.684783   1.000000
   17        9.915507   1.000000
   18        9.915507   1.000000
   19       10.727862   1.000000
   20       11.606461   0.769023
   21       11.606461   0.769022
   22       11.944005   0.000000
   23       12.096418   0.000000
   24       12.242328   0.000000

  0.3846154E+00  0.2762851E-17  0.3142041E-17  0.3641329E-02
    1      -32.409944   1.000000
    2      -11.555142   1.000000
    3      -11.555142   1.000000
    4      -11.488241   1.000000
    5      -11.470488   1.000000
    6      -11.470488   1.000000
    7       -8.142242   1.000000
    8       -7.733945   1.000000
    9       -7.733945   1.000000
   10       -0.165022   1.000000
   11        4.929357   1.000000
   12        5.827580   1.000000
   13        5.827580   1.000000
   14        6.834724   1.000000
   15        6.834724   1.000000
   16        7.347109   1.000000
   17        9.940686   1.000000
   18        9.940686   1.000000
   19       10.812738   1.000000
   20       11.670622   0.000000
   21       11.670622   0.000000
   22       11.949568   0.000000
   23       12.152772   0.000000
   24       12.163152   0.000000

  0.4615385E+00 -0.7671533E-17  0.1475740E-16  0.3641329E-02
    1      -32.408941   1.000000
    2      -11.560478   1.000000
    3      -11.560478   1.000000
    4      -11.490526   1.000000
    5      -11.469795   1.000000
    6      -11.469795   1.000000
    7       -8.172718   1.000000
    8       -7.721630   1.000000
    9       -7.721630   1.000000
   10        0.014092   1.000000
   11        4.776794   1.000000
   12        5.840714   1.000000
   13        5.840714   1.000000
   14        6.720535   1.000000
   15        6.720535   1.000000
   16        7.177721   1.000000
   17        9.967852   1.000000
   18        9.967852   1.000000
   19       10.891592   1.000000
   20       11.728034   0.000000
   21       11.728034   0.000000
   22       11.952749   0.000000
   23       12.069964   0.000000
   24       12.069964   0.000000

  0.7692308E-01  0.7692308E-01  0.1124936E-17  0.2730997E-02
    1      -32.417166   1.000000
    2      -11.519817   1.000000
    3      -11.511296   1.000000
    4      -11.476541   1.000000
    5      -11.475283   1.000000
    6      -11.475283   1.000000
    7       -7.845528   1.000000
    8       -7.834319   1.000000
    9       -7.834319   1.000000
   10       -1.448726   1.000000
   11        6.027422   1.000000
   12        6.527995   1.000000
   13        6.527995   1.000000
   14        6.660836   1.000000
   15        6.899363   1.000000
   16        9.566410   1.000000
   17       10.069434   1.000000
   18       10.069434   1.000000
   19       10.829734   1.000000
   20       11.458691   1.000000
   21       11.527243   1.000000
   22       11.527243   1.000000
   23       11.938247   0.000000
   24       12.011602   0.000000

  0.1538462E+00  0.7692308E-01  0.5656106E-17  0.1092399E-01
    1      -32.416042   1.000000
    2      -11.528570   1.000000
    3      -11.513618   1.000000
    4      -11.477826   1.000000
    5      -11.474644   1.000000
    6      -11.474468   1.000000
    7       -7.895152   1.000000
    8       -7.829247   1.000000
    9       -7.814244   1.000000
   10       -1.255166   1.000000
   11        5.718036   1.000000
   12        6.367888   1.000000
   13        6.382109   1.000000
   14        6.819517   1.000000
   15        7.033234   1.000000
   16        9.057100   1.000000
   17        9.920828   1.000000
   18        9.929841   1.000000
   19       10.880071   1.000000
   20       11.482740   1.000000
   21       11.555783   1.000000
   22       11.731103   0.000000
   23       11.945525   0.000000
   24       12.124610   0.000000

  0.2307692E+00  0.7692308E-01  0.1098547E-16  0.1092399E-01
    1      -32.414222   1.000000
    2      -11.539070   1.000000
    3      -11.521340   1.000000
    4      -11.480079   1.000000
    5      -11.473723   1.000000
    6      -11.473078   1.000000
    7       -7.972830   1.000000
    8       -7.812192   1.000000
    9       -7.786463   1.000000
   10       -0.943118   1.000000
   11        5.434682   1.000000
   12        6.096810   1.000000
   13        6.199628   1.000000
   14        6.911740   1.000000
   15        7.137207   1.000000
   16        8.446383   1.000000
   17        9.793219   1.000000
   18        9.829468   1.000000
   19       10.848998   1.000000
   20       11.523688   1.000000
   21       11.576978   1.000000
   22       11.940607   0.000000
   23       11.949738   0.000000
   24       12.227825   0.000000

  0.3076923E+00  0.7692308E-01  0.1148769E-16  0.1092399E-01
    1      -32.412125   1.000000
    2      -11.548899   1.000000
    3      -11.532472   1.000000
    4      -11.483211   1.000000
    5      -11.472618   1.000000
    6      -11.471526   1.000000
    7       -8.052669   1.000000
    8       -7.787224   1.000000
    9       -7.760567   1.000000
   10       -0.586426   1.000000
   11        5.182592   1.000000
   12        5.860052   1.000000
   13        6.082495   1.000000
   14        6.873916   1.000000
   15        7.129573   1.000000
   16        7.906074   1.000000
   17        9.729832   1.000000
   18        9.827246   1.000000
   19       10.834845   1.000000
   20       11.587997   0.999591
   21       11.608186   0.688535
   22       11.953485   0.000000
   23       12.042839   0.000000
   24       12.237194   0.000000

  0.3846154E+00  0.7692308E-01  0.1960899E-16  0.1092399E-01
    1      -32.410232   1.000000
    2      -11.555877   1.000000
    3      -11.544323   1.000000
    4      -11.486631   1.000000
    5      -11.471506   1.000000
    6      -11.470236   1.000000
    7       -8.116950   1.000000
    8       -7.760108   1.000000
    9       -7.742308   1.000000
   10       -0.268738   1.000000
   11        4.981289   1.000000
   12        5.752976   1.000000
   13        6.003800   1.000000
   14        6.770315   1.000000
   15        7.020054   1.000000
   16        7.499497   1.000000
   17        9.739475   1.000000
   18        9.874972   1.000000
   19       10.871594   1.000000
   20       11.657181   0.000000
   21       11.659214   0.000000
   22       11.954755   0.000000
   23       12.083945   0.000000
   24       12.196111   0.000000

  0.4615385E+00  0.7692308E-01  0.8998056E-17  0.1092399E-01
    1      -32.408976   1.000000
    2      -11.558524   1.000000
    3      -11.554202   1.000000
    4      -11.489224   1.000000
    5      -11.470652   1.000000
    6      -11.469521   1.000000
    7       -8.155800   1.000000
    8       -7.736959   1.000000
    9       -7.735586   1.000000
   10       -0.061222   1.000000
   11        4.862027   1.000000
   12        5.768057   1.000000
   13        5.920894   1.000000
   14        6.713677   1.000000
   15        6.868909   1.000000
   16        7.256733   1.000000
   17        9.774608   1.000000
   18        9.916310   1.000000
   19       10.936543   1.000000
   20       11.718780   0.000000
   21       11.719068   0.000000
   22       11.949028   0.000000
   23       12.059704   0.000000
   24       12.138795   0.000000

 -0.4615385E+00  0.7692308E-01  0.1709547E-17  0.1092399E-01
    1      -32.408642   1.000000
    2      -11.559984   1.000000
    3      -11.556317   1.000000
    4      -11.489920   1.000000
    5      -11.470263   1.000000
    6      -11.469519   1.000000
    7       -8.165413   1.000000
    8       -7.741655   1.000000
    9       -7.722912   1.000000
   10       -0.004847   1.000000
   11        4.832261   1.000000
   12        5.810293   1.000000
   13        5.858259   1.000000
   14        6.750414   1.000000
   15        6.774267   1.000000
   16        7.196830   1.000000
   17        9.783956   1.000000
   18        9.924502   1.000000
   19       10.964608   1.000000
   20       11.726144   0.000000
   21       11.758513   0.000000
   22       11.937050   0.000000
   23       12.067091   0.000000
   24       12.079690   0.000000

 -0.3846154E+00  0.7692308E-01 -0.8901389E-17  0.1092399E-01
    1      -32.409306   1.000000
    2      -11.560457   1.000000
    3      -11.549725   1.000000
    4      -11.488395   1.000000
    5      -11.470490   1.000000
    6      -11.470210   1.000000
    7       -8.145256   1.000000
    8       -7.758945   1.000000
    9       -7.721098   1.000000
   10       -0.109966   1.000000
   11        4.895961   1.000000
   12        5.710830   1.000000
   13        5.968279   1.000000
   14        6.726423   1.000000
   15        6.923607   1.000000
   16        7.322233   1.000000
   17        9.739669   1.000000
   18        9.908364   1.000000
   19       10.924063   1.000000
   20       11.680521   0.000000
   21       11.722143   0.000000
   22       11.944220   0.000000
   23       12.103088   0.000000
   24       12.123218   0.000000

 -0.3076923E+00  0.7692308E-01  0.4749193E-17  0.1092399E-01
    1      -32.410817   1.000000
    2      -11.555535   1.000000
    3      -11.540084   1.000000
    4      -11.485311   1.000000
    5      -11.471394   1.000000
    6      -11.471285   1.000000
    7       -8.097173   1.000000
    8       -7.783415   1.000000
    9       -7.732010   1.000000
   10       -0.358721   1.000000
   11        5.071435   1.000000
   12        5.670193   1.000000
   13        6.076499   1.000000
   14        6.795564   1.000000
   15        7.087645   1.000000
   16        7.620082   1.000000
   17        9.652541   1.000000
   18        9.902038   1.000000
   19       10.863806   1.000000
   20       11.628388   0.009005
   21       11.648044   0.000000
   22       11.949706   0.000000
   23       12.099702   0.000000
   24       12.174965   0.000000

 -0.2307692E+00  0.7692308E-01 -0.1139102E-16  0.1092399E-01
    1      -32.412830   1.000000
    2      -11.546272   1.000000
    3      -11.529463   1.000000
    4      -11.481853   1.000000
    5      -11.472788   1.000000
    6      -11.472483   1.000000
    7       -8.027163   1.000000
    8       -7.809265   1.000000
    9       -7.753299   1.000000
   10       -0.699097   1.000000
   11        5.357443   1.000000
   12        5.713523   1.000000
   13        6.213181   1.000000
   14        6.869062   1.000000
   15        7.188138   1.000000
   16        8.072228   1.000000
   17        9.579389   1.000000
   18        9.947516   1.000000
   19       10.837280   1.000000
   20       11.573817   1.000000
   21       11.589555   0.999115
   22       11.947296   0.000000
   23       12.028538   0.000000
   24       12.227540   0.000000

 -0.1538462E+00  0.7692308E-01 -0.3269716E-17  0.1092399E-01
    1      -32.414887   1.000000
    2      -11.534675   1.000000
    3      -11.520338   1.000000
    4      -11.479003   1.000000
    5      -11.474071   1.000000
    6      -11.473791   1.000000
    7       -7.948547   1.000000
    8       -7.829749   1.000000
    9       -7.780205   1.000000
   10       -1.051965   1.000000
   11        5.707759   1.000000
   12        5.846021   1.000000
   13        6.399163   1.000000
   14        6.848325   1.000000
   15        7.171823   1.000000
   16        8.638205   1.000000
   17        9.612025   1.000000
   18       10.056024   1.000000
   19       10.852832   1.000000
   20       11.510019   1.000000
   21       11.561838   1.000000
   22       11.905782   0.000000
   23       11.941710   0.000000
   24       12.189040   0.000000

 -0.7692308E-01  0.7692308E-01 -0.2767503E-17  0.5461994E-02
    1      -32.416513   1.000000
    2      -11.523349   1.000000
    3      -11.515021   1.000000
    4      -11.477144   1.000000
    5      -11.474986   1.000000
    6      -11.474852   1.000000
    7       -7.884526   1.000000
    8       -7.836447   1.000000
    9       -7.806542   1.000000
   10       -1.333634   1.000000
   11        6.056440   1.000000
   12        6.057564   1.000000
   13        6.538738   1.000000
   14        6.759184   1.000000
   15        7.039470   1.000000
   16        9.195370   1.000000
   17        9.848101   1.000000
   18       10.167572   1.000000
   19       10.841146   1.000000
   20       11.471680   1.000000
   21       11.528119   1.000000
   22       11.698668   0.000000
   23       11.934410   0.000000
   24       12.073402   0.000000

  0.1538462E+00  0.1538462E+00  0.2249873E-17  0.2730997E-02
    1      -32.415282   1.000000
    2      -11.536006   1.000000
    3      -11.509386   1.000000
    4      -11.479040   1.000000
    5      -11.473889   1.000000
    6      -11.473889   1.000000
    7       -7.881841   1.000000
    8       -7.839040   1.000000
    9       -7.839040   1.000000
   10       -1.141424   1.000000
   11        5.381747   1.000000
   12        6.543435   1.000000
   13        6.543435   1.000000
   14        6.700472   1.000000
   15        6.965897   1.000000
   16        9.026869   1.000000
   17        9.775344   1.000000
   18        9.775344   1.000000
   19       10.876619   1.000000
   20       11.587913   0.999608
   21       11.587913   0.999608
   22       11.681516   0.000000
   23       11.978532   0.000000
   24       12.186303   0.000000

  0.2307692E+00  0.1538462E+00  0.3114389E-17  0.1092399E-01
    1      -32.413799   1.000000
    2      -11.543330   1.000000
    3      -11.511371   1.000000
    4      -11.480898   1.000000
    5      -11.473015   1.000000
    6      -11.472617   1.000000
    7       -7.939161   1.000000
    8       -7.835170   1.000000
    9       -7.818914   1.000000
   10       -0.915680   1.000000
   11        5.125109   1.000000
   12        6.374921   1.000000
   13        6.437356   1.000000
   14        6.787544   1.000000
   15        7.030526   1.000000
   16        8.697850   1.000000
   17        9.607095   1.000000
   18        9.695275   1.000000
   19       10.911425   1.000000
   20       11.557244   1.000000
   21       11.605979   0.789242
   22       11.853540   0.000000
   23       11.994524   0.000000
   24       12.260227   0.000000

  0.3076923E+00  0.1538462E+00  0.1334743E-16  0.1092399E-01
    1      -32.411927   1.000000
    2      -11.548893   1.000000
    3      -11.519066   1.000000
    4      -11.483065   1.000000
    5      -11.472416   1.000000
    6      -11.470974   1.000000
    7       -8.013960   1.000000
    8       -7.818673   1.000000
    9       -7.793784   1.000000
   10       -0.639971   1.000000
   11        4.981567   1.000000
   12        6.089941   1.000000
   13        6.312696   1.000000
   14        6.797317   1.000000
   15        7.108953   1.000000
   16        8.248262   1.000000
   17        9.450779   1.000000
   18        9.709369   1.000000
   19       10.964814   1.000000
   20       11.578441   0.999999
   21       11.627072   0.014655
   22       11.958140   0.000000
   23       11.996185   0.000000
   24       12.271355   0.000000

  0.3846154E+00  0.1538462E+00  0.2007076E-17  0.1092399E-01
    1      -32.410103   1.000000
    2      -11.551472   1.000000
    3      -11.530359   1.000000
    4      -11.485336   1.000000
    5      -11.472076   1.000000
    6      -11.469552   1.000000
    7       -8.078416   1.000000
    8       -7.793466   1.000000
    9       -7.778983   1.000000
   10       -0.384214   1.000000
   11        4.958497   1.000000
   12        5.867537   1.000000
   13        6.187908   1.000000
   14        6.751660   1.000000
   15        7.102205   1.000000
   16        7.807331   1.000000
   17        9.388497   1.000000
   18        9.771663   1.000000
   19       10.989896   1.000000
   20       11.642559   0.000006
   21       11.664006   0.000000
   22       11.989654   0.000000
   23       12.001944   0.000000
   24       12.239543   0.000000

  0.4615385E+00  0.1538462E+00 -0.2553492E-18  0.1092399E-01
    1      -32.408738   1.000000
    2      -11.550650   1.000000
    3      -11.542521   1.000000
    4      -11.487173   1.000000
    5      -11.471888   1.000000
    6      -11.468759   1.000000
    7       -8.120576   1.000000
    8       -7.777990   1.000000
    9       -7.765291   1.000000
   10       -0.201270   1.000000
   11        5.013301   1.000000
   12        5.769536   1.000000
   13        6.025151   1.000000
   14        6.757954   1.000000
   15        7.013781   1.000000
   16        7.477923   1.000000
   17        9.385850   1.000000
   18        9.817458   1.000000
   19       11.029043   1.000000
   20       11.697066   0.000000
   21       11.720647   0.000000
   22       11.971747   0.000000
   23       12.024063   0.000000
   24       12.210169   0.000000

 -0.4615385E+00  0.1538462E+00 -0.2977016E-16  0.1092399E-01
    1      -32.408146   1.000000
    2      -11.552861   1.000000
    3      -11.546787   1.000000
    4      -11.487751   1.000000
    5      -11.471819   1.000000
    6      -11.468737   1.000000
    7       -8.135815   1.000000
    8       -7.790240   1.000000
    9       -7.740465   1.000000
   10       -0.115200   1.000000
   11        5.052913   1.000000
   12        5.810689   1.000000
   13        5.836886   1.000000
   14        6.856289   1.000000
   15        6.886123   1.000000
   16        7.342084   1.000000
   17        9.380040   1.000000
   18        9.820803   1.000000
   19       11.069399   1.000000
   20       11.701598   0.000000
   21       11.784734   0.000000
   22       11.934623   0.000000
   23       12.062227   0.000000
   24       12.147243   0.000000

 -0.3846154E+00  0.1538462E+00  0.1513006E-16  0.1092399E-01
    1      -32.408462   1.000000
    2      -11.559174   1.000000
    3      -11.540763   1.000000
    4      -11.486657   1.000000
    5      -11.471918   1.000000
    6      -11.469420   1.000000
    7       -8.124105   1.000000
    8       -7.811732   1.000000
    9       -7.724530   1.000000
   10       -0.134666   1.000000
   11        5.033417   1.000000
   12        5.674370   1.000000
   13        5.956137   1.000000
   14        6.783832   1.000000
   15        7.014056   1.000000
   16        7.430390   1.000000
   17        9.318983   1.000000
   18        9.799997   1.000000
   19       11.070258   1.000000
   20       11.665520   0.000000
   21       11.797892   0.000000
   22       11.915777   0.000000
   23       12.101711   0.000000
   24       12.116023   0.000000

 -0.3076923E+00  0.1538462E+00 -0.1003349E-16  0.1092399E-01
    1      -32.409613   1.000000
    2      -11.560158   1.000000
    3      -11.533678   1.000000
    4      -11.484426   1.000000
    5      -11.472182   1.000000
    6      -11.470593   1.000000
    7       -8.088583   1.000000
    8       -7.835720   1.000000
    9       -7.721115   1.000000
   10       -0.266244   1.000000
   11        5.028095   1.000000
   12        5.578570   1.000000
   13        6.149224   1.000000
   14        6.741467   1.000000
   15        7.174354   1.000000
   16        7.705055   1.000000
   17        9.194453   1.000000
   18        9.797242   1.000000
   19       11.036182   1.000000
   20       11.629208   0.006544
   21       11.727917   0.000000
   22       11.944411   0.000000
   23       12.088056   0.000000
   24       12.136100   0.000000

 -0.2307692E+00  0.1538462E+00  0.1581872E-17  0.1092399E-01
    1      -32.411336   1.000000
    2      -11.555603   1.000000
    3      -11.526823   1.000000
    4      -11.482119   1.000000
    5      -11.472576   1.000000
    6      -11.471951   1.000000
    7       -8.036912   1.000000
    8       -7.853174   1.000000
    9       -7.731135   1.000000
   10       -0.499539   1.000000
   11        5.132351   1.000000
   12        5.572517   1.000000
   13        6.353697   1.000000
   14        6.732285   1.000000
   15        7.274443   1.000000
   16        8.097691   1.000000
   17        9.070620   1.000000
   18        9.852088   1.000000
   19       10.997114   1.000000
   20       11.606850   0.751933
   21       11.642449   0.000007
   22       11.957730   0.000000
   23       12.046053   0.000000
   24       12.182818   0.000000

 -0.1538462E+00  0.1538462E+00 -0.1252312E-16  0.5461994E-02
    1      -32.413240   1.000000
    2      -11.546467   1.000000
    3      -11.521860   1.000000
    4      -11.480348   1.000000
    5      -11.473187   1.000000
    6      -11.473105   1.000000
    7       -7.984708   1.000000
    8       -7.852697   1.000000
    9       -7.752439   1.000000
   10       -0.786559   1.000000
   11        5.373211   1.000000
   12        5.663930   1.000000
   13        6.521929   1.000000
   14        6.710733   1.000000
   15        7.272655   1.000000
   16        8.459134   1.000000
   17        9.151034   1.000000
   18        9.962117   1.000000
   19       10.953693   1.000000
   20       11.562171   1.000000
   21       11.590285   0.998749
   22       11.954451   0.000000
   23       11.985184   0.000000
   24       12.211586   0.000000

  0.2307692E+00  0.2307692E+00  0.3374809E-17  0.2730997E-02
    1      -32.412699   1.000000
    2      -11.545591   1.000000
    3      -11.506665   1.000000
    4      -11.482805   1.000000
    5      -11.471626   1.000000
    6      -11.471626   1.000000
    7       -7.936198   1.000000
    8       -7.846234   1.000000
    9       -7.846234   1.000000
   10       -0.801018   1.000000
   11        4.923394   1.000000
   12        6.518379   1.000000
   13        6.518379   1.000000
   14        6.757788   1.000000
   15        6.840435   1.000000
   16        8.670010   1.000000
   17        9.625302   1.000000
   18        9.625302   1.000000
   19       10.847082   1.000000
   20       11.625805   0.022746
   21       11.625805   0.022746
   22       11.810782   0.000000
   23       12.046258   0.000000
   24       12.332879   0.000000

  0.3076923E+00  0.2307692E+00 -0.7331293E-18  0.1092399E-01
    1      -32.411178   1.000000
    2      -11.545287   1.000000
    3      -11.508590   1.000000
    4      -11.484764   1.000000
    5      -11.470670   1.000000
    6      -11.470099   1.000000
    7       -7.987522   1.000000
    8       -7.842967   1.000000
    9       -7.835915   1.000000
   10       -0.642925   1.000000
   11        4.875193   1.000000
   12        6.309610   1.000000
   13        6.441618   1.000000
   14        6.785758   1.000000
   15        6.891440   1.000000
   16        8.445111   1.000000
   17        9.484462   1.000000
   18        9.650278   1.000000
   19       10.956945   1.000000
   20       11.608379   0.678800
   21       11.644501   0.000002
   22       11.867115   0.000000
   23       12.069587   0.000000
   24       12.344491   0.000000

  0.3846154E+00  0.2307692E+00  0.4596239E-17  0.1092399E-01
    1      -32.409585   1.000000
    2      -11.542545   1.000000
    3      -11.516430   1.000000
    4      -11.486234   1.000000
    5      -11.470612   1.000000
    6      -11.468588   1.000000
    7       -8.043993   1.000000
    8       -7.826259   1.000000
    9       -7.826193   1.000000
   10       -0.488148   1.000000
   11        4.984983   1.000000
   12        6.041133   1.000000
   13        6.310077   1.000000
   14        6.790283   1.000000
   15        6.987294   1.000000
   16        8.119254   1.000000
   17        9.263537   1.000000
   18        9.720195   1.000000
   19       11.078122   1.000000
   20       11.619984   0.119635
   21       11.673899   0.000000
   22       11.917980   0.000000
   23       12.064023   0.000000
   24       12.297552   0.000000

  0.4615385E+00  0.2307692E+00  0.1621160E-16  0.1092399E-01
    1      -32.408282   1.000000
    2      -11.538180   1.000000
    3      -11.528035   1.000000
    4      -11.486795   1.000000
    5      -11.471441   1.000000
    6      -11.467679   1.000000
    7       -8.081833   1.000000
    8       -7.831544   1.000000
    9       -7.800004   1.000000
   10       -0.365082   1.000000
   11        5.198667   1.000000
   12        5.864224   1.000000
   13        6.124116   1.000000
   14        6.831768   1.000000
   15        7.013141   1.000000
   16        7.781658   1.000000
   17        9.102242   1.000000
   18        9.759995   1.000000
   19       11.129157   1.000000
   20       11.660714   0.000000
   21       11.720748   0.000000
   22       11.968619   0.000000
   23       12.036730   0.000000
   24       12.239859   0.000000

 -0.4615385E+00  0.2307692E+00 -0.1330321E-16  0.1092399E-01
    1      -32.407570   1.000000
    2      -11.540686   1.000000
    3      -11.533560   1.000000
    4      -11.485996   1.000000
    5      -11.472819   1.000000
    6      -11.467603   1.000000
    7       -8.094598   1.000000
    8       -7.851490   1.000000
    9       -7.770140   1.000000
   10       -0.280034   1.000000
   11        5.383025   1.000000
   12        5.800901   1.000000
   13        5.910924   1.000000
   14        6.935215   1.000000
   15        6.949894   1.000000
   16        7.583733   1.000000
   17        8.991218   1.000000
   18        9.742857   1.000000
   19       11.166125   1.000000
   20       11.660829   0.000000
   21       11.781309   0.000000
   22       11.986451   0.000000
   23       12.043895   0.000000
   24       12.192728   0.000000

 -0.3846154E+00  0.2307692E+00 -0.2391414E-16  0.1092399E-01
    1      -32.407608   1.000000
    2      -11.551626   1.000000
    3      -11.529861   1.000000
    4      -11.483907   1.000000
    5      -11.474184   1.000000
    6      -11.468261   1.000000
    7       -8.084369   1.000000
    8       -7.878534   1.000000
    9       -7.743349   1.000000
   10       -0.234814   1.000000
   11        5.365765   1.000000
   12        5.717078   1.000000
   13        5.864948   1.000000
   14        6.854958   1.000000
   15        7.076796   1.000000
   16        7.635521   1.000000
   17        8.883015   1.000000
   18        9.699296   1.000000
   19       11.189363   1.000000
   20       11.622645   0.060198
   21       11.838648   0.000000
   22       11.921351   0.000000