 vasp.6.0.8 29Jun18 (build Jun 13 2019 12:54:44) complex

 executed on      IFC18_CrayMPICH date 2021.12.05  14:21:50
 running   64 mpi-ranks, with    1 threads/rank
 distrk:  each k-point on   16 cores,    4 groups
 distr:  one band on NCORES_PER_BAND=   4 cores,    4 groups


--------------------------------------------------------------------------------------------------------


 INCAR:
 POTCAR:    PAW_PBE U 06Sep2000
 POTCAR:    PAW_PBE Bi_d 06Sep2000
 POTCAR:    PAW_PBE Pt 04Feb2005
 POTCAR:    PAW_PBE U 06Sep2000
   VRHFIN =U:  [Xe,5d,4f]
   LEXCH  = PE
   EATOM  =  1405.3058 eV,  103.2871 Ry

   TITEL  = PAW_PBE U 06Sep2000
   LULTRA =        F    use ultrasoft PP ?
   IUNSCR =        1    unscreen: 0-lin 1-nonlin 2-no
   RPACOR =    2.200    partial core radius
   POMASS =  238.029; ZVAL   =   14.000    mass and valenz
   RCORE  =    2.800    outmost cutoff radius
   RWIGS  =    3.000; RWIGS  =    1.588    wigner-seitz radius (au A)
   ENMAX  =  252.502; ENMIN  =  189.376 eV
   RCLOC  =    1.811    cutoff for local pot
   LCOR   =        T    correct aug charges
   LPAW   =        T    paw PP
   EAUG   =  526.410
   DEXC   =    0.000
   RMAX   =    2.863    core radius for proj-oper
   RAUG   =    1.300    factor for augmentation sphere
   RDEP   =    2.950    radius for radial grids
   RDEPT  =    2.270    core radius for aug-charge

   Atomic configuration
   18 entries
     n  l   j            E        occ.
     1  0  0.50   -116038.1941   2.0000
     2  0  0.50    -21694.8835   2.0000
     2  1  1.50    -18009.1553   6.0000
     3  0  0.50     -5481.2929   2.0000
     3  1  1.50     -4458.9283   6.0000
     3  2  2.50     -3575.9978  10.0000
     4  0  0.50     -1400.5351   2.0000
     4  1  1.50     -1066.7807   6.0000
     4  2  2.50      -732.1336  10.0000
     4  3  3.50      -377.4393  14.0000
     5  0  0.50      -314.7366   2.0000
     5  1  1.50      -211.6057   6.0000
     5  2  2.50      -103.2045  10.0000
     6  0  0.50       -50.6026   2.0000
     7  0  0.50        -4.5896   2.0000
     6  1  1.50       -25.2884   6.0000
     6  2  1.50        -3.1039   2.0000
     5  3  2.50        -6.3670   2.0000
   Description
     l       E           TYP  RCUT    TYP  RCUT
     0    -50.6026097     23  2.600
     0     -4.5896371     23  2.600
     1    -25.2883770     23  2.500
     1     27.2116520     23  2.500
     2     -3.1038686     23  2.500
     2      0.8290654     23  2.500
     3     -6.3670133     23  2.800
     3     -7.7275959     23  2.800
  local pseudopotential read in
  partial core-charges read in
  partial kinetic energy density read in
  atomic valenz-charges read in
  non local Contribution for L=           0  read in
    real space projection operators read in
  non local Contribution for L=           0  read in
    real space projection operators read in
  non local Contribution for L=           1  read in
    real space projection operators read in
  non local Contribution for L=           1  read in
    real space projection operators read in
  non local Contribution for L=           2  read in
    real space projection operators read in
  non local Contribution for L=           2  read in
    real space projection operators read in
  non local Contribution for L=           3  read in
    real space projection operators read in
  non local Contribution for L=           3  read in
    real space projection operators read in
    PAW grid and wavefunctions read in

   number of l-projection  operators is LMAX  =           8
   number of lm-projection operators is LMMAX =          32

 POTCAR:    PAW_PBE Bi_d 06Sep2000
   VRHFIN =Bi:
   LEXCH  = PE
   EATOM  =  1959.2045 eV,  143.9975 Ry

   TITEL  = PAW_PBE Bi_d 06Sep2000
   LULTRA =        F    use ultrasoft PP ?
   IUNSCR =        1    unscreen: 0-lin 1-nonlin 2-no
   RPACOR =    2.200    partial core radius
   POMASS =  208.980; ZVAL   =   15.000    mass and valenz
   RCORE  =    2.500    outmost cutoff radius
   RWIGS  =    3.090; RWIGS  =    1.635    wigner-seitz radius (au A)
   ENMAX  =  242.839; ENMIN  =  182.129 eV
   ICORE  =        3    local potential
   LCOR   =        T    correct aug charges
   LPAW   =        T    paw PP
   EAUG   =  442.899
   DEXC   =    0.000
   RMAX   =    2.551    core radius for proj-oper
   RAUG   =    1.300    factor for augmentation sphere
   RDEP   =    2.650    radius for radial grids
   RDEPT  =    2.039    core radius for aug-charge

   Atomic configuration
   16 entries
     n  l   j            E        occ.
     1  0  0.50    -90639.6581   2.0000
     2  0  0.50    -16282.4666   2.0000
     2  1  1.50    -13922.8286   6.0000
     3  0  0.50     -3930.4763   2.0000
     3  1  1.50     -3256.7013   6.0000
     3  2  2.50     -2581.6168  10.0000
     4  0  0.50      -902.2614   2.0000
     4  1  1.50      -681.5915   6.0000
     4  2  2.50      -429.8249  10.0000
     4  3  3.50      -152.6004  14.0000
     5  0  0.50      -157.7156   2.0000
     5  1  1.50       -95.8054   6.0000
     5  2  2.50       -27.0806  10.0000
     6  0  0.50       -14.4732   2.0000
     6  1  1.50        -4.5702   3.0000
     5  3  2.50        -2.7212   0.0000
   Description
     l       E           TYP  RCUT    TYP  RCUT
     2    -27.0805982     23  2.500
     2     -1.3605826     23  2.500
     0    -14.4732271     23  2.500
     0      6.8029130     23  2.500
     1     -4.5701651     23  2.500
     1     13.6058260     23  2.500
     3     -1.3605826      7  2.500
  local pseudopotential read in
  partial core-charges read in
  partial kinetic energy density read in
  atomic valenz-charges read in
  non local Contribution for L=           2  read in
    real space projection operators read in
  non local Contribution for L=           2  read in
    real space projection operators read in
  non local Contribution for L=           0  read in
    real space projection operators read in
  non local Contribution for L=           0  read in
    real space projection operators read in
  non local Contribution for L=           1  read in
    real space projection operators read in
  non local Contribution for L=           1  read in
    real space projection operators read in
    PAW grid and wavefunctions read in

   number of l-projection  operators is LMAX  =           6
   number of lm-projection operators is LMMAX =          18

 POTCAR:    PAW_PBE Pt 04Feb2005
   VRHFIN =Pt: s1d9
   LEXCH  = PE
   EATOM  =   729.1176 eV,   53.5886 Ry

   TITEL  = PAW_PBE Pt 04Feb2005
   LULTRA =        F    use ultrasoft PP ?
   IUNSCR =        1    unscreen: 0-lin 1-nonlin 2-no
   RPACOR =    2.330    partial core radius
   POMASS =  195.080; ZVAL   =   10.000    mass and valenz
   RCORE  =    2.600    outmost cutoff radius
   RWIGS  =    2.750; RWIGS  =    1.455    wigner-seitz radius (au A)
   ENMAX  =  230.283; ENMIN  =  172.712 eV
   ICORE  =        3    local potential
   LCOR   =        T    correct aug charges
   LPAW   =        T    paw PP
   EAUG   =  358.966
   DEXC   =    0.000
   RMAX   =    2.658    core radius for proj-oper
   RAUG   =    1.300    factor for augmentation sphere
   RDEP   =    2.761    radius for radial grids
   RDEPT  =    2.203    core radius for aug-charge

   Atomic configuration
   16 entries
     n  l   j            E        occ.
     1  0  0.50    -78401.1885   2.0000
     2  0  0.50    -13770.7750   2.0000
     2  1  1.50    -11931.0468   6.0000
     3  0  0.50     -3234.7234   2.0000
     3  1  1.50     -2699.2216   6.0000
     3  2  2.50     -2119.5714  10.0000
     4  0  0.50      -695.1528   2.0000
     4  1  1.50      -519.6034   6.0000
     4  2  2.50      -306.6786  10.0000
     4  3  3.50       -70.1041  14.0000
     5  0  0.50      -101.7747   2.0000
     5  1  1.50       -55.9873   6.0000
     5  2  2.50        -6.1423   9.0000
     6  0  0.50        -5.6573   1.0000
     6  1  1.50        -6.8029   0.0000
     5  3  2.50        -1.3606   0.0000
   Description
     l       E           TYP  RCUT    TYP  RCUT
     2     -6.1423404     23  2.500
     2     -7.5029230     23  2.500
     0     -5.6573207     23  2.500
     0      0.7416693     23  2.500
     1     -2.7211652     23  2.600
     1     20.4087390     23  2.600
     3     -1.3605826     23  2.500
  local pseudopotential read in
  partial core-charges read in
  partial kinetic energy density read in
  atomic valenz-charges read in
  non local Contribution for L=           2  read in
    real space projection operators read in
  non local Contribution for L=           2  read in
    real space projection operators read in
  non local Contribution for L=           0  read in
    real space projection operators read in
  non local Contribution for L=           0  read in
    real space projection operators read in
  non local Contribution for L=           1  read in
    real space projection operators read in
  non local Contribution for L=           1  read in
    real space projection operators read in
    PAW grid and wavefunctions read in

   number of l-projection  operators is LMAX  =           6
   number of lm-projection operators is LMMAX =          18

 WARNING: PSMAXN for non-local potential too small
          PSMAXN should be >   13.5545592237991       NTYP=           1

 -----------------------------------------------------------------------------
|                                                                             |
|  ADVICE TO THIS USER RUNNING 'VASP/VAMP'   (HEAR YOUR MASTER'S VOICE ...):  |
|                                                                             |
|      You enforced a specific xc-type in the INCAR file,                     |
|      a different type was found on the POTCAR file                          |
|          I HOPE YOU KNOW, WHAT YOU ARE  DOING                               |
|                                                                             |
 -----------------------------------------------------------------------------

  PAW_PBE U 06Sep2000                   :
 energy of atom  1       EATOM=-1405.3058
 kinetic energy error for atom=    0.0006 (will be added to EATOM!!)
  PAW_PBE Bi_d 06Sep2000                :
 energy of atom  2       EATOM=-1959.2045
 kinetic energy error for atom=    0.0012 (will be added to EATOM!!)
  PAW_PBE Pt 04Feb2005                  :
 energy of atom  3       EATOM= -729.1176
 kinetic energy error for atom=    0.0010 (will be added to EATOM!!)


 POSCAR: U1 Bi1 Pt1
  positions in direct lattice
  No initial velocities read in
 exchange correlation table for  LEXCH =       14
   RHO(1)=    0.500       N(1)  =     2000
   RHO(2)=  100.500       N(2)  =     4000



--------------------------------------------------------------------------------------------------------


 ion  position               nearest neighbor table
   1  0.250  0.250  0.250-   3 2.77   3 2.77   3 2.77   3 2.77   2 3.20   2 3.20   2 3.20   2 3.20
                             2 3.20   2 3.20
   2  0.750  0.750  0.750-   3 2.77   3 2.77   3 2.77   3 2.77   1 3.20   1 3.20   1 3.20   1 3.20
                             1 3.20   1 3.20
   3  0.000  0.000  0.000-   2 2.77   2 2.77   2 2.77   1 2.77   2 2.77   1 2.77   1 2.77   1 2.77


  LATTYP: Found a face centered cubic cell.
 ALAT       =     6.4062943349

  Lattice vectors:

 A1 = (   0.0000000000,   3.2031471674,   3.2031471674)
 A2 = (   3.2031471674,   0.0000000000,   3.2031471674)
 A3 = (   3.2031471674,   3.2031471674,   0.0000000000)


Analysis of symmetry for initial positions (statically):
=====================================================================
 Subroutine PRICEL returns:
 Original cell was already a primitive cell.


 Routine SETGRP: Setting up the symmetry group for a
 face centered cubic supercell.


 Subroutine GETGRP returns: Found 24 space group operations
 (whereof 24 operations were pure point group operations)
 out of a pool of 48 trial point group operations.


The static configuration has the point symmetry T_d .


Analysis of symmetry for dynamics (positions and initial velocities):
=====================================================================
 Subroutine PRICEL returns:
 Original cell was already a primitive cell.


 Routine SETGRP: Setting up the symmetry group for a
 face centered cubic supercell.


 Subroutine GETGRP returns: Found 24 space group operations
 (whereof 24 operations were pure point group operations)
 out of a pool of 48 trial point group operations.


The dynamic configuration has the point symmetry T_d .


 Subroutine INISYM returns: Found 24 space group operations
 (whereof 24 operations are pure point group operations),
 and found     1 'primitive' translations


----------------------------------------------------------------------------------------

                                     Primitive cell

  volume of cell :      65.7296

  direct lattice vectors                    reciprocal lattice vectors
     0.000000000  3.203147167  3.203147167    -0.156096481  0.156096481  0.156096481
     3.203147167  0.000000000  3.203147167     0.156096481 -0.156096481  0.156096481
     3.203147167  3.203147167  0.000000000     0.156096481  0.156096481 -0.156096481

  length of vectors
     4.529934166  4.529934166  4.529934166     0.270367035  0.270367035  0.270367035

  position of ions in fractional coordinates (direct lattice)
     0.250000000  0.250000000  0.250000000
     0.750000000  0.750000000  0.750000000
     0.000000000  0.000000000  0.000000000

  ion indices of the primitive-cell ions
   primitive index   ion index
                 1           1
                 2           2
                 3           3

----------------------------------------------------------------------------------------



 KPOINTS: KPOINTS

Automatic generation of k-mesh.
Space group operators:
 irot       det(A)        alpha          n_x          n_y          n_z        tau_x        tau_y        tau_z
    1     1.000000     0.000001     1.000000     0.000000     0.000000     0.000000     0.000000     0.000000
    2     1.000000   120.000000    -0.577350    -0.577350    -0.577350     0.000000     0.000000     0.000000
    3     1.000000   120.000000     0.577350     0.577350     0.577350     0.000000     0.000000     0.000000
    4    -1.000000    90.000000    -0.000000    -0.000000    -1.000000     0.000000     0.000000     0.000000
    5    -1.000000   180.000000    -0.000000     0.707107     0.707107     0.000000     0.000000     0.000000
    6    -1.000000    90.000000    -0.000000     1.000000    -0.000000     0.000000     0.000000     0.000000
    7     1.000000   180.000000    -0.000000    -0.000000     1.000000     0.000000     0.000000     0.000000
    8     1.000000   120.000000    -0.577350     0.577350     0.577350     0.000000     0.000000     0.000000
    9     1.000000   120.000000    -0.577350     0.577350    -0.577350     0.000000     0.000000     0.000000
   10    -1.000000    90.000000     0.000000     0.000000     1.000000     0.000000     0.000000     0.000000
   11    -1.000000    90.000000    -1.000000     0.000000    -0.000000     0.000000     0.000000     0.000000
   12    -1.000000   180.000000     0.707107     0.000000     0.707107     0.000000     0.000000     0.000000
   13     1.000000   120.000000     0.577350    -0.577350     0.577350     0.000000     0.000000     0.000000
   14     1.000000   120.000000    -0.577350    -0.577350     0.577350     0.000000     0.000000     0.000000
   15     1.000000   180.000000     1.000000     0.000000     0.000000     0.000000     0.000000     0.000000
   16    -1.000000    90.000000     0.000000    -1.000000     0.000000     0.000000     0.000000     0.000000
   17    -1.000000   180.000000     0.707107     0.707107    -0.000000     0.000000     0.000000     0.000000
   18    -1.000000    90.000000     1.000000     0.000000     0.000000     0.000000     0.000000     0.000000
   19     1.000000   120.000000     0.577350    -0.577350    -0.577350     0.000000     0.000000     0.000000
   20     1.000000   180.000000     0.000000     1.000000     0.000000     0.000000     0.000000     0.000000
   21     1.000000   120.000000     0.577350     0.577350    -0.577350     0.000000     0.000000     0.000000
   22    -1.000000   180.000000    -0.000000    -0.707107     0.707107     0.000000     0.000000     0.000000
   23    -1.000000   180.000000     0.707107    -0.707107     0.000000     0.000000     0.000000     0.000000
   24    -1.000000   180.000000    -0.707107     0.000000     0.707107     0.000000     0.000000     0.000000

 Subroutine IBZKPT returns following result:
 ===========================================

 Found     84 irreducible k-points:

 Following reciprocal coordinates:
            Coordinates               Weight
  0.000000  0.000000  0.000000      1.000000
  0.076923 -0.000000  0.000000      8.000000
  0.153846 -0.000000  0.000000      8.000000
  0.230769 -0.000000  0.000000      8.000000
  0.307692 -0.000000  0.000000      8.000000
  0.384615  0.000000  0.000000      8.000000
  0.461538 -0.000000  0.000000      8.000000
  0.076923  0.076923  0.000000      6.000000
  0.153846  0.076923  0.000000     24.000000
  0.230769  0.076923  0.000000     24.000000
  0.307692  0.076923  0.000000     24.000000
  0.384615  0.076923  0.000000     24.000000
  0.461538  0.076923  0.000000     24.000000
 -0.461538  0.076923  0.000000     24.000000
 -0.384615  0.076923 -0.000000     24.000000
 -0.307692  0.076923  0.000000     24.000000
 -0.230769  0.076923 -0.000000     24.000000
 -0.153846  0.076923 -0.000000     24.000000
 -0.076923  0.076923 -0.000000     12.000000
  0.153846  0.153846  0.000000      6.000000
  0.230769  0.153846  0.000000     24.000000
  0.307692  0.153846  0.000000     24.000000
  0.384615  0.153846  0.000000     24.000000
  0.461538  0.153846 -0.000000     24.000000
 -0.461538  0.153846 -0.000000     24.000000
 -0.384615  0.153846  0.000000     24.000000
 -0.307692  0.153846 -0.000000     24.000000
 -0.230769  0.153846  0.000000     24.000000
 -0.153846  0.153846 -0.000000     12.000000
  0.230769  0.230769  0.000000      6.000000
  0.307692  0.230769 -0.000000     24.000000
  0.384615  0.230769  0.000000     24.000000
  0.461538  0.230769  0.000000     24.000000
 -0.461538  0.230769 -0.000000     24.000000
 -0.384615  0.230769 -0.000000     24.000000
 -0.307692  0.230769  0.000000     24.000000
 -0.230769  0.230769 -0.000000     12.000000
  0.307692  0.307692  0.000000      6.000000
  0.384615  0.307692 -0.000000     24.000000
  0.461538  0.307692  0.000000     24.000000
 -0.461538  0.307692 -0.000000     24.000000
 -0.384615  0.307692 -0.000000     24.000000
 -0.307692  0.307692 -0.000000     12.000000
  0.384615  0.384615  0.000000      6.000000
  0.461538  0.384615 -0.000000     24.000000
 -0.461538  0.384615 -0.000000     24.000000
 -0.384615  0.384615  0.000000     12.000000
  0.461538  0.461538  0.000000      6.000000
 -0.461538  0.461538 -0.000000     12.000000
  0.230769  0.153846  0.076923     24.000000
  0.307692  0.153846  0.076923     48.000000
  0.384615  0.153846  0.076923     48.000000
  0.461538  0.153846  0.076923     48.000000
 -0.461538  0.153846  0.076923     48.000000
  0.307692  0.230769  0.076923     24.000000
  0.384615  0.230769  0.076923     48.000000
  0.461538  0.230769  0.076923     48.000000
 -0.461538  0.230769  0.076923     48.000000
 -0.384615  0.230769  0.076923     48.000000
 -0.307692  0.230769  0.076923     48.000000
 -0.230769  0.230769  0.076923     48.000000
 -0.153846  0.230769  0.076923     24.000000
  0.384615  0.307692  0.076923     24.000000
  0.461538  0.307692  0.076923     48.000000
 -0.461538  0.307692  0.076923     48.000000
 -0.384615  0.307692  0.076923     48.000000
 -0.307692  0.307692  0.076923     48.000000
 -0.230769  0.307692  0.076923     24.000000
  0.461538  0.384615  0.076923     24.000000
 -0.461538  0.384615  0.076923     48.000000
 -0.384615  0.384615  0.076923     48.000000
 -0.307692  0.384615  0.076923     24.000000
 -0.461538  0.461538  0.076923     24.000000
 -0.384615  0.461538  0.076923     24.000000
  0.461538  0.307692  0.153846     24.000000
 -0.461538  0.307692  0.153846     48.000000
 -0.384615  0.307692  0.153846     48.000000
 -0.461538  0.384615  0.153846     24.000000
 -0.384615  0.384615  0.153846     48.000000
 -0.307692  0.384615  0.153846     48.000000
 -0.230769  0.384615  0.153846     24.000000
 -0.384615  0.461538  0.153846     24.000000
 -0.307692  0.461538  0.153846     24.000000
 -0.307692  0.461538  0.230769     24.000000

 Following cartesian coordinates:
            Coordinates               Weight
  0.000000  0.000000  0.000000      1.000000
 -0.011593  0.011593  0.011593      8.000000
 -0.023186  0.023186  0.023186      8.000000
 -0.034779  0.034779  0.034779      8.000000
 -0.046372  0.046372  0.046372      8.000000
 -0.057965  0.057965  0.057965      8.000000
 -0.069558  0.069558  0.069558      8.000000
  0.000000 -0.000000  0.023186      6.000000
 -0.011593  0.011593  0.034779     24.000000
 -0.023186  0.023186  0.046372     24.000000
 -0.034779  0.034779  0.057965     24.000000
 -0.046372  0.046372  0.069558     24.000000
 -0.057965  0.057965  0.081151     24.000000
  0.081151 -0.081151 -0.057965     24.000000
  0.069558 -0.069558 -0.046372     24.000000
  0.057965 -0.057965 -0.034779     24.000000
  0.046372 -0.046372 -0.023186     24.000000
  0.034779 -0.034779 -0.011593     24.000000
  0.023186 -0.023186  0.000000     12.000000
  0.000000 -0.000000  0.046372      6.000000
 -0.011593  0.011593  0.057965     24.000000
 -0.023186  0.023186  0.069558     24.000000
 -0.034779  0.034779  0.081151     24.000000
 -0.046372  0.046372  0.092744     24.000000
  0.092744 -0.092744 -0.046372     24.000000
  0.081151 -0.081151 -0.034779     24.000000
  0.069558 -0.069558 -0.023186     24.000000
  0.057965 -0.057965 -0.011593     24.000000
  0.046372 -0.046372  0.000000     12.000000
 -0.000000  0.000000  0.069558      6.000000
 -0.011593  0.011593  0.081151     24.000000
 -0.023186  0.023186  0.092744     24.000000
 -0.034779  0.034779  0.104337     24.000000
  0.104337 -0.104337 -0.034779     24.000000
  0.092744 -0.092744 -0.023186     24.000000
  0.081151 -0.081151 -0.011593     24.000000
  0.069558 -0.069558  0.000000     12.000000
  0.000000 -0.000000  0.092744      6.000000
 -0.011593  0.011593  0.104337     24.000000
 -0.023186  0.023186  0.115930     24.000000
  0.115930 -0.115930 -0.023186     24.000000
  0.104337 -0.104337 -0.011593     24.000000
  0.092744 -0.092744  0.000000     12.000000
  0.000000  0.000000  0.115930      6.000000
 -0.011593  0.011593  0.127523     24.000000
  0.127523 -0.127523 -0.011593     24.000000
  0.115930 -0.115930 -0.000000     12.000000
  0.000000 -0.000000  0.139116      6.000000
  0.139116 -0.139116  0.000000     12.000000
 -0.000000  0.023186  0.046372     24.000000
 -0.011593  0.034779  0.057965     48.000000
 -0.023186  0.046372  0.069558     48.000000
 -0.034779  0.057965  0.081151     48.000000
  0.104337 -0.081151 -0.057965     48.000000
  0.000000  0.023186  0.069558     24.000000
 -0.011593  0.034779  0.081151     48.000000
 -0.023186  0.046372  0.092744     48.000000
  0.115930 -0.092744 -0.046372     48.000000
  0.104337 -0.081151 -0.034779     48.000000
  0.092744 -0.069558 -0.023186     48.000000
  0.081151 -0.057965 -0.011593     48.000000
  0.069558 -0.046372  0.000000     24.000000
  0.000000  0.023186  0.092744     24.000000
 -0.011593  0.034779  0.104337     48.000000
  0.127523 -0.104337 -0.034779     48.000000
  0.115930 -0.092744 -0.023186     48.000000
  0.104337 -0.081151 -0.011593     48.000000
  0.092744 -0.069558 -0.000000     24.000000
  0.000000  0.023186  0.115930     24.000000
  0.139116 -0.115930 -0.023186     48.000000
  0.127523 -0.104337 -0.011593     48.000000
  0.115930 -0.092744  0.000000     24.000000
  0.150709 -0.127523 -0.011593     24.000000
  0.139116 -0.115930 -0.000000     24.000000
 -0.000000  0.046372  0.092744     24.000000
  0.139116 -0.092744 -0.046372     48.000000
  0.127523 -0.081151 -0.034779     48.000000
  0.150709 -0.104337 -0.034779     24.000000
  0.139116 -0.092744 -0.023186     48.000000
  0.127523 -0.081151 -0.011593     48.000000
  0.115930 -0.069558  0.000000     24.000000
  0.150709 -0.104337 -0.011593     24.000000
  0.139116 -0.092744  0.000000     24.000000
  0.150709 -0.081151 -0.011593     24.000000



--------------------------------------------------------------------------------------------------------




 Dimension of arrays:
   k-points           NKPTS =     84   k-points in BZ     NKDIM =     84   number of bands    NBANDS=     24
   number of dos      NEDOS =    301   number of ions     NIONS =      3
   non local maximal  LDIM  =      8   non local SUM 2l+1 LMDIM =     32
   total plane-waves  NPLWV =  64000
   max r-space proj   IRMAX =      1   max aug-charges    IRDMAX= 475239
   dimension x,y,z NGX =    40 NGY =   40 NGZ =   40
   dimension x,y,z NGXF=    80 NGYF=   80 NGZF=   80
   support grid    NGXF=   160 NGYF=  160 NGZF=  160
   ions per type =               1   1   1
   NGX,Y,Z   is equivalent  to a cutoff of  14.68, 14.68, 14.68 a.u.
   NGXF,Y,Z  is equivalent  to a cutoff of  29.36, 29.36, 29.36 a.u.

 SYSTEM =  unknown system
 POSCAR =  U1 Bi1 Pt1

 Startparameter for this run:
   NWRITE =      2    write-flag & timer
   PREC   = acc       normal or accurate (medium, high low for compatibility)
   ISTART =      0    job   : 0-new  1-cont  2-samecut
   ICHARG =      2    charge: 1-file 2-atom 10-const
   ISPIN  =      1    spin polarized calculation?
   LNONCOLLINEAR =      F non collinear calculations
   LSORBIT =      F    spin-orbit coupling
   INIWAV =      1    electr: 0-lowe 1-rand  2-diag
   LASPH  =      F    aspherical Exc in radial PAW
   METAGGA=      F    non-selfconsistent MetaGGA calc.

 Electronic Relaxation 1
   ENCUT  =  700.0 eV  51.45 Ry    7.17 a.u.   9.77  9.77  9.77*2*pi/ulx,y,z
   ENINI  =  700.0     initial cutoff
   ENAUG  =  526.4 eV  augmentation charge cutoff
   NELM   =     60;   NELMIN=  5; NELMDL= -5     # of ELM steps
   EDIFF  = 0.1E-06   stopping-criterion for ELM
   LREAL  =      F    real-space projection
   NLSPLINE    = F    spline interpolate recip. space projectors
   LCOMPAT=      F    compatible to vasp.4.4
   GGA_COMPAT  = T    GGA compatible to vasp.4.4-vasp.4.6
   LMAXPAW     = -100 max onsite density
   LMAXMIX     =    2 max onsite mixed and CHGCAR
   VOSKOWN=      0    Vosko Wilk Nusair interpolation
   ROPT   =    0.00000   0.00000   0.00000
 Ionic relaxation
   EDIFFG = 0.1E-05   stopping-criterion for IOM
   NSW    =      0    number of steps for IOM
   NBLOCK =      1;   KBLOCK =      1    inner block; outer block
   IBRION =     -1    ionic relax: 0-MD 1-quasi-New 2-CG
   NFREE  =      0    steps in history (QN), initial steepest desc. (CG)
   ISIF   =      3    stress and relaxation
   IWAVPR =     10    prediction:  0-non 1-charg 2-wave 3-comb
   ISYM   =      2    0-nonsym 1-usesym 2-fastsym
   LCORR  =      T    Harris-Foulkes like correction to forces

   POTIM  = 0.5000    time-step for ionic-motion
   TEIN   =    0.0    initial temperature
   TEBEG  =    0.0;   TEEND  =   0.0 temperature during run
   SMASS  =  -3.00    Nose mass-parameter (am)
   estimated Nose-frequenzy (Omega)   =  0.10E-29 period in steps = 0.13E+47 mass=  -0.469E-27a.u.
   SCALEE = 1.0000    scale energy and forces
   NPACO  =    256;   APACO  = 16.0  distance and # of slots for P.C.
   PSTRESS=    0.0 pullay stress

  Mass of Ions in am
   POMASS = 238.03208.98195.08
  Ionic Valenz
   ZVAL   =  14.00 15.00 10.00
  Atomic Wigner-Seitz radii
   RWIGS  =  -1.00 -1.00 -1.00
  virtual crystal weights
   VCA    =   1.00  1.00  1.00
   NELECT =      39.0000    total number of electrons
   NUPDOWN=      -1.0000    fix difference up-down

 DOS related values:
   EMIN   =  10.00;   EMAX   =-10.00  energy-range for DOS
   EFERMI =   0.00
   ISMEAR =     0;   SIGMA  =   0.01  broadening in eV -4-tet -1-fermi 0-gaus

 Electronic relaxation 2 (details)
   IALGO  =     38    algorithm
   LDIAG  =      T    sub-space diagonalisation (order eigenvalues)
   LSUBROT=      F    optimize rotation matrix (better conditioning)
   TURBO    =      0    0=normal 1=particle mesh
   IRESTART =      0    0=no restart 2=restart with 2 vectors
   NREBOOT  =      0    no. of reboots
   NMIN     =      0    reboot dimension
   EREF     =   0.00    reference energy to select bands
   IMIX   =      4    mixing-type and parameters
     AMIX     =   0.40;   BMIX     =  1.00
     AMIX_MAG =   1.60;   BMIX_MAG =  1.00
     AMIN     =   0.10
     WC   =   100.;   INIMIX=   1;  MIXPRE=   1;  MAXMIX= -45

 Intra band minimization:
   WEIMIN = 0.0000     energy-eigenvalue tresh-hold
   EBREAK =  0.10E-08  absolut break condition
   DEPER  =   0.30     relativ break condition

   TIME   =   0.40     timestep for ELM

  volume/ion in A,a.u.               =      21.91       147.85
  Fermi-wavevector in a.u.,A,eV,Ry     =   1.375655  2.599611 25.748022  1.892426
  Thomas-Fermi vector in A             =   2.500971

 Write flags
   LWAVE        =      F    write WAVECAR
   LDOWNSAMPLE  =      F    k-point downsampling of WAVECAR
   LCHARG       =      F    write CHGCAR
   LVTOT        =      F    write LOCPOT, total local potential
   LVHAR        =      F    write LOCPOT, Hartree potential only
   LELF         =      F    write electronic localiz. function (ELF)
   LORBIT       =      0    0 simple, 1 ext, 2 COOP (PROOUT), +10 PAW based schemes


 Dipole corrections
   LMONO  =      F    monopole corrections only (constant potential shift)
   LDIPOL =      F    correct potential (dipole corrections)
   IDIPOL =      0    1-x, 2-y, 3-z, 4-all directions
   EPSILON=  1.0000000 bulk dielectric constant

 Exchange correlation treatment:
   GGA     =    PS    GGA type
   LEXCH   =    14    internal setting for exchange type
   VOSKOWN=      0    Vosko Wilk Nusair interpolation
   LHFCALC =     F    Hartree Fock is set to
   LHFONE  =     F    Hartree Fock one center treatment
   AEXX    =    0.0000 exact exchange contribution

 Linear response parameters
   LEPSILON=     F    determine dielectric tensor
   LRPA    =     F    only Hartree local field effects (RPA)
   LNABLA  =     F    use nabla operator in PAW spheres
   LVEL    =     F    velocity operator in full k-point grid
   LINTERFAST=   F  fast interpolation
   KINTER  =     0    interpolate to denser k-point grid
   CSHIFT  =0.1000    complex shift for real part using Kramers Kronig
   OMEGAMAX=  -1.0    maximum frequency
   DEG_THRESHOLD= 0.2000000E-02 threshold for treating states as degnerate
   RTIME   =   -0.100 relaxation time in fs
  (WPLASMAI=    0.000 imaginary part of plasma frequency in eV, 0.658/RTIME)
   DFIELD  = 0.0000000 0.0000000 0.0000000 field for delta impulse in time

 Orbital magnetization related:
   ORBITALMAG=     F  switch on orbital magnetization
   LCHIMAG   =     F  perturbation theory with respect to B field
   DQ        =  0.001000  dq finite difference perturbation B field
   LLRAUG    =     F  two centre corrections for induced B field



--------------------------------------------------------------------------------------------------------


 Static calculation
 charge density and potential will be updated during run
 non-spin polarized calculation
 Variant of blocked Davidson
 Davidson routine will perform the subspace rotation
 perform sub-space diagonalisation
    after iterative eigenvector-optimisation
 modified Broyden-mixing scheme, WC =      100.0
 initial mixing is a Kerker type mixing with AMIX =  0.4000 and BMIX =      1.0000
 Hartree-type preconditioning will be used
 using additional bands            4
 reciprocal scheme for non local part
 use partial core corrections
 calculate Harris-corrections to forces
   (improved forces if not selfconsistent)
 use gradient corrections
 use of overlap-Matrix (Vanderbilt PP)
 Gauss-broadening in eV      SIGMA  =   0.01


--------------------------------------------------------------------------------------------------------


  energy-cutoff  :      700.00
  volume of cell :       65.73
      direct lattice vectors                 reciprocal lattice vectors
     0.000000000  3.203147167  3.203147167    -0.156096481  0.156096481  0.156096481
     3.203147167  0.000000000  3.203147167     0.156096481 -0.156096481  0.156096481
     3.203147167  3.203147167  0.000000000     0.156096481  0.156096481 -0.156096481

  length of vectors
     4.529934166  4.529934166  4.529934166     0.270367035  0.270367035  0.270367035



 k-points in units of 2pi/SCALE and weight: KPOINTS
   0.00000000  0.00000000  0.00000000       0.000
  -0.01159304  0.01159304  0.01159304       0.004
  -0.02318608  0.02318608  0.02318608       0.004
  -0.03477911  0.03477911  0.03477911       0.004
  -0.04637215  0.04637215  0.04637215       0.004
  -0.05796519  0.05796519  0.05796519       0.004
  -0.06955823  0.06955823  0.06955823       0.004
   0.00000000 -0.00000000  0.02318608       0.003
  -0.01159304  0.01159304  0.03477911       0.011
  -0.02318608  0.02318608  0.04637215       0.011
  -0.03477911  0.03477911  0.05796519       0.011
  -0.04637215  0.04637215  0.06955823       0.011
  -0.05796519  0.05796519  0.08115127       0.011
   0.08115127 -0.08115127 -0.05796519       0.011
   0.06955823 -0.06955823 -0.04637215       0.011
   0.05796519 -0.05796519 -0.03477911       0.011
   0.04637215 -0.04637215 -0.02318608       0.011
   0.03477911 -0.03477911 -0.01159304       0.011
   0.02318608 -0.02318608  0.00000000       0.005
   0.00000000 -0.00000000  0.04637215       0.003
  -0.01159304  0.01159304  0.05796519       0.011
  -0.02318608  0.02318608  0.06955823       0.011
  -0.03477911  0.03477911  0.08115127       0.011
  -0.04637215  0.04637215  0.09274430       0.011
   0.09274430 -0.09274430 -0.04637215       0.011
   0.08115127 -0.08115127 -0.03477911       0.011
   0.06955823 -0.06955823 -0.02318608       0.011
   0.05796519 -0.05796519 -0.01159304       0.011
   0.04637215 -0.04637215  0.00000000       0.005
  -0.00000000  0.00000000  0.06955823       0.003
  -0.01159304  0.01159304  0.08115127       0.011
  -0.02318608  0.02318608  0.09274430       0.011
  -0.03477911  0.03477911  0.10433734       0.011
   0.10433734 -0.10433734 -0.03477911       0.011
   0.09274430 -0.09274430 -0.02318608       0.011
   0.08115127 -0.08115127 -0.01159304       0.011
   0.06955823 -0.06955823  0.00000000       0.005
   0.00000000 -0.00000000  0.09274430       0.003
  -0.01159304  0.01159304  0.10433734       0.011
  -0.02318608  0.02318608  0.11593038       0.011
   0.11593038 -0.11593038 -0.02318608       0.011
   0.10433734 -0.10433734 -0.01159304       0.011
   0.09274430 -0.09274430  0.00000000       0.005
   0.00000000  0.00000000  0.11593038       0.003
  -0.01159304  0.01159304  0.12752342       0.011
   0.12752342 -0.12752342 -0.01159304       0.011
   0.11593038 -0.11593038 -0.00000000       0.005
   0.00000000 -0.00000000  0.13911646       0.003
   0.13911646 -0.13911646  0.00000000       0.005
  -0.00000000  0.02318608  0.04637215       0.011
  -0.01159304  0.03477911  0.05796519       0.022
  -0.02318608  0.04637215  0.06955823       0.022
  -0.03477911  0.05796519  0.08115127       0.022
   0.10433734 -0.08115127 -0.05796519       0.022
   0.00000000  0.02318608  0.06955823       0.011
  -0.01159304  0.03477911  0.08115127       0.022
  -0.02318608  0.04637215  0.09274430       0.022
   0.11593038 -0.09274430 -0.04637215       0.022
   0.10433734 -0.08115127 -0.03477911       0.022
   0.09274430 -0.06955823 -0.02318608       0.022
   0.08115127 -0.05796519 -0.01159304       0.022
   0.06955823 -0.04637215  0.00000000       0.011
   0.00000000  0.02318608  0.09274430       0.011
  -0.01159304  0.03477911  0.10433734       0.022
   0.12752342 -0.10433734 -0.03477911       0.022
   0.11593038 -0.09274430 -0.02318608       0.022
   0.10433734 -0.08115127 -0.01159304       0.022
   0.09274430 -0.06955823 -0.00000000       0.011
   0.00000000  0.02318608  0.11593038       0.011
   0.13911646 -0.11593038 -0.02318608       0.022
   0.12752342 -0.10433734 -0.01159304       0.022
   0.11593038 -0.09274430  0.00000000       0.011
   0.15070950 -0.12752342 -0.01159304       0.011
   0.13911646 -0.11593038 -0.00000000       0.011
  -0.00000000  0.04637215  0.09274430       0.011
   0.13911646 -0.09274430 -0.04637215       0.022
   0.12752342 -0.08115127 -0.03477911       0.022
   0.15070950 -0.10433734 -0.03477911       0.011
   0.13911646 -0.09274430 -0.02318608       0.022
   0.12752342 -0.08115127 -0.01159304       0.022
   0.11593038 -0.06955823  0.00000000       0.011
   0.15070950 -0.10433734 -0.01159304       0.011
   0.13911646 -0.09274430  0.00000000       0.011
   0.15070950 -0.08115127 -0.01159304       0.011

 k-points in reciprocal lattice and weights: KPOINTS
   0.00000000  0.00000000  0.00000000       0.000
   0.07692308 -0.00000000  0.00000000       0.004
   0.15384615 -0.00000000  0.00000000       0.004
   0.23076923 -0.00000000  0.00000000       0.004
   0.30769231 -0.00000000  0.00000000       0.004
   0.38461538  0.00000000  0.00000000       0.004
   0.46153846 -0.00000000  0.00000000       0.004
   0.07692308  0.07692308  0.00000000       0.003
   0.15384615  0.07692308  0.00000000       0.011
   0.23076923  0.07692308  0.00000000       0.011
   0.30769231  0.07692308  0.00000000       0.011
   0.38461538  0.07692308  0.00000000       0.011
   0.46153846  0.07692308  0.00000000       0.011
  -0.46153846  0.07692308  0.00000000       0.011
  -0.38461538  0.07692308 -0.00000000       0.011
  -0.30769231  0.07692308  0.00000000       0.011
  -0.23076923  0.07692308 -0.00000000       0.011
  -0.15384615  0.07692308 -0.00000000       0.011
  -0.07692308  0.07692308 -0.00000000       0.005
   0.15384615  0.15384615  0.00000000       0.003
   0.23076923  0.15384615  0.00000000       0.011
   0.30769231  0.15384615  0.00000000       0.011
   0.38461538  0.15384615  0.00000000       0.011
   0.46153846  0.15384615 -0.00000000       0.011
  -0.46153846  0.15384615 -0.00000000       0.011
  -0.38461538  0.15384615  0.00000000       0.011
  -0.30769231  0.15384615 -0.00000000       0.011
  -0.23076923  0.15384615  0.00000000       0.011
  -0.15384615  0.15384615 -0.00000000       0.005
   0.23076923  0.23076923  0.00000000       0.003
   0.30769231  0.23076923 -0.00000000       0.011
   0.38461538  0.23076923  0.00000000       0.011
   0.46153846  0.23076923  0.00000000       0.011
  -0.46153846  0.23076923 -0.00000000       0.011
  -0.38461538  0.23076923 -0.00000000       0.011
  -0.30769231  0.23076923  0.00000000       0.011
  -0.23076923  0.23076923 -0.00000000       0.005
   0.30769231  0.30769231  0.00000000       0.003
   0.38461538  0.30769231 -0.00000000       0.011
   0.46153846  0.30769231  0.00000000       0.011
  -0.46153846  0.30769231 -0.00000000       0.011
  -0.38461538  0.30769231 -0.00000000       0.011
  -0.30769231  0.30769231 -0.00000000       0.005
   0.38461538  0.38461538  0.00000000       0.003
   0.46153846  0.38461538 -0.00000000       0.011
  -0.46153846  0.38461538 -0.00000000       0.011
  -0.38461538  0.38461538  0.00000000       0.005
   0.46153846  0.46153846  0.00000000       0.003
  -0.46153846  0.46153846 -0.00000000       0.005
   0.23076923  0.15384615  0.07692308       0.011
   0.30769231  0.15384615  0.07692308       0.022
   0.38461538  0.15384615  0.07692308       0.022
   0.46153846  0.15384615  0.07692308       0.022
  -0.46153846  0.15384615  0.07692308       0.022
   0.30769231  0.23076923  0.07692308       0.011
   0.38461538  0.23076923  0.07692308       0.022
   0.46153846  0.23076923  0.07692308       0.022
  -0.46153846  0.23076923  0.07692308       0.022
  -0.38461538  0.23076923  0.07692308       0.022
  -0.30769231  0.23076923  0.07692308       0.022
  -0.23076923  0.23076923  0.07692308       0.022
  -0.15384615  0.23076923  0.07692308       0.011
   0.38461538  0.30769231  0.07692308       0.011
   0.46153846  0.30769231  0.07692308       0.022
  -0.46153846  0.30769231  0.07692308       0.022
  -0.38461538  0.30769231  0.07692308       0.022
  -0.30769231  0.30769231  0.07692308       0.022
  -0.23076923  0.30769231  0.07692308       0.011
   0.46153846  0.38461538  0.07692308       0.011
  -0.46153846  0.38461538  0.07692308       0.022
  -0.38461538  0.38461538  0.07692308       0.022
  -0.30769231  0.38461538  0.07692308       0.011
  -0.46153846  0.46153846  0.07692308       0.011
  -0.38461538  0.46153846  0.07692308       0.011
   0.46153846  0.30769231  0.15384615       0.011
  -0.46153846  0.30769231  0.15384615       0.022
  -0.38461538  0.30769231  0.15384615       0.022
  -0.46153846  0.38461538  0.15384615       0.011
  -0.38461538  0.38461538  0.15384615       0.022
  -0.30769231  0.38461538  0.15384615       0.022
  -0.23076923  0.38461538  0.15384615       0.011
  -0.38461538  0.46153846  0.15384615       0.011
  -0.30769231  0.46153846  0.15384615       0.011
  -0.30769231  0.46153846  0.23076923       0.011

 position of ions in fractional coordinates (direct lattice)
   0.25000000  0.25000000  0.25000000
   0.75000000  0.75000000  0.75000000
   0.00000000  0.00000000  0.00000000

 position of ions in cartesian coordinates  (Angst):
   1.60157358  1.60157358  1.60157358
   4.80472075  4.80472075  4.80472075
   0.00000000  0.00000000  0.00000000



--------------------------------------------------------------------------------------------------------


 k-point  1 :   0.0000 0.0000 0.0000  plane waves:    2733
 k-point  2 :   0.0769-0.0000 0.0000  plane waves:    2737
 k-point  3 :   0.1538-0.0000 0.0000  plane waves:    2746
 k-point  4 :   0.2308-0.0000 0.0000  plane waves:    2758
 k-point  5 :   0.3077-0.0000 0.0000  plane waves:    2779
 k-point  6 :   0.3846 0.0000 0.0000  plane waves:    2770
 k-point  7 :   0.4615-0.0000 0.0000  plane waves:    2776
 k-point  8 :   0.0769 0.0769 0.0000  plane waves:    2733
 k-point  9 :   0.1538 0.0769 0.0000  plane waves:    2761
 k-point 10 :   0.2308 0.0769 0.0000  plane waves:    2768
 k-point 11 :   0.3077 0.0769 0.0000  plane waves:    2754
 k-point 12 :   0.3846 0.0769 0.0000  plane waves:    2769
 k-point 13 :   0.4615 0.0769 0.0000  plane waves:    2772
 k-point 14 :  -0.4615 0.0769 0.0000  plane waves:    2777
 k-point 15 :  -0.3846 0.0769-0.0000  plane waves:    2777
 k-point 16 :  -0.3077 0.0769 0.0000  plane waves:    2765
 k-point 17 :  -0.2308 0.0769-0.0000  plane waves:    2763
 k-point 18 :  -0.1538 0.0769-0.0000  plane waves:    2755
 k-point 19 :  -0.0769 0.0769-0.0000  plane waves:    2745
 k-point 20 :   0.1538 0.1538 0.0000  plane waves:    2750
 k-point 21 :   0.2308 0.1538 0.0000  plane waves:    2763
 k-point 22 :   0.3077 0.1538 0.0000  plane waves:    2765
 k-point 23 :   0.3846 0.1538 0.0000  plane waves:    2767
 k-point 24 :   0.4615 0.1538-0.0000  plane waves:    2769
 k-point 25 :  -0.4615 0.1538-0.0000  plane waves:    2762
 k-point 26 :  -0.3846 0.1538 0.0000  plane waves:    2769
 k-point 27 :  -0.3077 0.1538-0.0000  plane waves:    2774
 k-point 28 :  -0.2308 0.1538 0.0000  plane waves:    2760
 k-point 29 :  -0.1538 0.1538-0.0000  plane waves:    2764
 k-point 30 :   0.2308 0.2308 0.0000  plane waves:    2774
 k-point 31 :   0.3077 0.2308-0.0000  plane waves:    2762
 k-point 32 :   0.3846 0.2308 0.0000  plane waves:    2759
 k-point 33 :   0.4615 0.2308 0.0000  plane waves:    2761
 k-point 34 :  -0.4615 0.2308-0.0000  plane waves:    2761
 k-point 35 :  -0.3846 0.2308-0.0000  plane waves:    2766
 k-point 36 :  -0.3077 0.2308 0.0000  plane waves:    2759
 k-point 37 :  -0.2308 0.2308-0.0000  plane waves:    2754
 k-point 38 :   0.3077 0.3077 0.0000  plane waves:    2766
 k-point 39 :   0.3846 0.3077-0.0000  plane waves:    2773
 k-point 40 :   0.4615 0.3077 0.0000  plane waves:    2756
 k-point 41 :  -0.4615 0.3077-0.0000  plane waves:    2779
 k-point 42 :  -0.3846 0.3077-0.0000  plane waves:    2755
 k-point 43 :  -0.3077 0.3077-0.0000  plane waves:    2760
 k-point 44 :   0.3846 0.3846 0.0000  plane waves:    2778
 k-point 45 :   0.4615 0.3846-0.0000  plane waves:    2772
 k-point 46 :  -0.4615 0.3846-0.0000  plane waves:    2778
 k-point 47 :  -0.3846 0.3846 0.0000  plane waves:    2776
 k-point 48 :   0.4615 0.4615 0.0000  plane waves:    2762
 k-point 49 :  -0.4615 0.4615-0.0000  plane waves:    2766
 k-point 50 :   0.2308 0.1538 0.0769  plane waves:    2760
 k-point 51 :   0.3077 0.1538 0.0769  plane waves:    2776
 k-point 52 :   0.3846 0.1538 0.0769  plane waves:    2756
 k-point 53 :   0.4615 0.1538 0.0769  plane waves:    2770
 k-point 54 :  -0.4615 0.1538 0.0769  plane waves:    2766
 k-point 55 :   0.3077 0.2308 0.0769  plane waves:    2770
 k-point 56 :   0.3846 0.2308 0.0769  plane waves:    2759
 k-point 57 :   0.4615 0.2308 0.0769  plane waves:    2761
 k-point 58 :  -0.4615 0.2308 0.0769  plane waves:    2772
 k-point 59 :  -0.3846 0.2308 0.0769  plane waves:    2764
 k-point 60 :  -0.3077 0.2308 0.0769  plane waves:    2758
 k-point 61 :  -0.2308 0.2308 0.0769  plane waves:    2766
 k-point 62 :  -0.1538 0.2308 0.0769  plane waves:    2763
 k-point 63 :   0.3846 0.3077 0.0769  plane waves:    2770
 k-point 64 :   0.4615 0.3077 0.0769  plane waves:    2762
 k-point 65 :  -0.4615 0.3077 0.0769  plane waves:    2760
 k-point 66 :  -0.3846 0.3077 0.0769  plane waves:    2751
 k-point 67 :  -0.3077 0.3077 0.0769  plane waves:    2759
 k-point 68 :  -0.2308 0.3077 0.0769  plane waves:    2768
 k-point 69 :   0.4615 0.3846 0.0769  plane waves:    2763
 k-point 70 :  -0.4615 0.3846 0.0769  plane waves:    2768
 k-point 71 :  -0.3846 0.3846 0.0769  plane waves:    2766
 k-point 72 :  -0.3077 0.3846 0.0769  plane waves:    2763
 k-point 73 :  -0.4615 0.4615 0.0769  plane waves:    2772
 k-point 74 :  -0.3846 0.4615 0.0769  plane waves:    2773
 k-point 75 :   0.4615 0.3077 0.1538  plane waves:    2763
 k-point 76 :  -0.4615 0.3077 0.1538  plane waves:    2764
 k-point 77 :  -0.3846 0.3077 0.1538  plane waves:    2762
 k-point 78 :  -0.4615 0.3846 0.1538  plane waves:    2753
 k-point 79 :  -0.3846 0.3846 0.1538  plane waves:    2752
 k-point 80 :  -0.3077 0.3846 0.1538  plane waves:    2761
 k-point 81 :  -0.2308 0.3846 0.1538  plane waves:    2754
 k-point 82 :  -0.3846 0.4615 0.1538  plane waves:    2759
 k-point 83 :  -0.3077 0.4615 0.1538  plane waves:    2759
 k-point 84 :  -0.3077 0.4615 0.2308  plane waves:    2758

 maximum and minimum number of plane-waves per node :       706      668

 maximum number of plane-waves:      2779
 maximum index in each direction:
   IXMAX=   10   IYMAX=    9   IZMAX=    9
   IXMIN=  -10   IYMIN=  -10   IZMIN=   -9


 parallel 3D FFT for wavefunctions:
    minimum data exchange during FFTs selected (reduces bandwidth)
 parallel 3D FFT for charge:
    minimum data exchange during FFTs selected (reduces bandwidth)


 total amount of memory used by VASP MPI-rank0    89370. kBytes
=======================================================================

   base      :      30000. kBytes
   nonl-proj :      45450. kBytes
   fftplans  :       5204. kBytes
   grid      :       2732. kBytes
   one-center:         49. kBytes
   wavefun   :       5935. kBytes

     INWAV:  cpu time    0.0002: real time    0.0004
 Broyden mixing: mesh for mixing (old mesh)
   NGX = 19   NGY = 19   NGZ = 19
  (NGX  = 80   NGY  = 80   NGZ  = 80)
  gives a total of   6859 points

 initial charge density was supplied:
 charge density of overlapping atoms calculated
 number of electron      39.0000000 magnetization
 keeping initial charge density in first step


--------------------------------------------------------------------------------------------------------


 Maximum index for augmentation-charges        28827 (set IRDMAX)


--------------------------------------------------------------------------------------------------------


 First call to EWALD:  gamma=   0.439
 Maximum number of real-space cells 3x 3x 3
 Maximum number of reciprocal cells 3x 3x 3

    FEWALD:  cpu time    0.0053: real time    0.0062


--------------------------------------- Iteration      1(   1)  ---------------------------------------


    POTLOK:  cpu time    0.0455: real time    0.1399
    SETDIJ:  cpu time    0.0944: real time    0.0983
     EDDAV:  cpu time    1.4134: real time    1.4162
       DOS:  cpu time    0.0038: real time    0.0053
    --------------------------------------------
      LOOP:  cpu time    1.5575: real time    1.6613

 eigenvalue-minimisations  :  4032
 total energy-change (2. order) : 0.4372261E+03  (-0.2256483E+04)
 number of electron      39.0000000 magnetization
 augmentation part       39.0000000 magnetization

 Free energy of the ion-electron system (eV)
  ---------------------------------------------------
  alpha Z        PSCENC =       239.23462350
  Ewald energy   TEWEN  =     -3721.74899143
  -Hartree energ DENC   =      -731.20167031
  -exchange      EXHF   =         0.00000000
  -V(xc)+E(xc)   XCENC  =        91.70004551
  PAW double counting   =      3513.29252893    -3436.88002192
  entropy T*S    EENTRO =        -0.00003216
  eigenvalues    EBANDS =       387.47750099
  atomic energy  EATOM  =      4095.35208632
  Solvation  Ediel_sol  =         0.00000000
  ---------------------------------------------------
  free energy    TOTEN  =       437.22606942 eV

  energy without entropy =      437.22610157  energy(sigma->0) =      437.22608550


--------------------------------------------------------------------------------------------------------




--------------------------------------- Iteration      1(   2)  ---------------------------------------


     EDDAV:  cpu time    1.4638: real time    1.4965
       DOS:  cpu time    0.0029: real time    0.0032
    --------------------------------------------
      LOOP:  cpu time    1.4669: real time    1.5000

 eigenvalue-minimisations  :  4312
 total energy-change (2. order) :-0.4060322E+03  (-0.3974118E+03)
 number of electron      39.0000000 magnetization
 augmentation part       39.0000000 magnetization

 Free energy of the ion-electron system (eV)
  ---------------------------------------------------
  alpha Z        PSCENC =       239.23462350
  Ewald energy   TEWEN  =     -3721.74899143
  -Hartree energ DENC   =      -731.20167031
  -exchange      EXHF   =         0.00000000
  -V(xc)+E(xc)   XCENC  =        91.70004551
  PAW double counting   =      3513.29252893    -3436.88002192
  entropy T*S    EENTRO =        -0.00066225
  eigenvalues    EBANDS =       -18.55402755
  atomic energy  EATOM  =      4095.35208632
  Solvation  Ediel_sol  =         0.00000000
  ---------------------------------------------------
  free energy    TOTEN  =        31.19391078 eV

  energy without entropy =       31.19457303  energy(sigma->0) =       31.19424191


--------------------------------------------------------------------------------------------------------




--------------------------------------- Iteration      1(   3)  ---------------------------------------


     EDDAV:  cpu time    1.6390: real time    1.6610
       DOS:  cpu time    0.0031: real time    0.0034
    --------------------------------------------
      LOOP:  cpu time    1.6419: real time    1.6642

 eigenvalue-minimisations  :  4944
 total energy-change (2. order) :-0.5133254E+02  (-0.5034496E+02)
 number of electron      39.0000000 magnetization
 augmentation part       39.0000000 magnetization

 Free energy of the ion-electron system (eV)
  ---------------------------------------------------
  alpha Z        PSCENC =       239.23462350
  Ewald energy   TEWEN  =     -3721.74899143
  -Hartree energ DENC   =      -731.20167031
  -exchange      EXHF   =         0.00000000
  -V(xc)+E(xc)   XCENC  =        91.70004551
  PAW double counting   =      3513.29252893    -3436.88002192
  entropy T*S    EENTRO =        -0.00043789
  eigenvalues    EBANDS =       -69.88679132
  atomic energy  EATOM  =      4095.35208632
  Solvation  Ediel_sol  =         0.00000000
  ---------------------------------------------------
  free energy    TOTEN  =       -20.13862863 eV

  energy without entropy =      -20.13819073  energy(sigma->0) =      -20.13840968


--------------------------------------------------------------------------------------------------------




--------------------------------------- Iteration      1(   4)  ---------------------------------------


     EDDAV:  cpu time    2.2781: real time    2.3163
       DOS:  cpu time    0.0031: real time    0.0034
    --------------------------------------------
      LOOP:  cpu time    2.2812: real time    2.3198

 eigenvalue-minimisations  :  7536
 total energy-change (2. order) :-0.5602111E+01  (-0.5575463E+01)
 number of electron      39.0000000 magnetization
 augmentation part       39.0000000 magnetization

 Free energy of the ion-electron system (eV)
  ---------------------------------------------------
  alpha Z        PSCENC =       239.23462350
  Ewald energy   TEWEN  =     -3721.74899143
  -Hartree energ DENC   =      -731.20167031
  -exchange      EXHF   =         0.00000000
  -V(xc)+E(xc)   XCENC  =        91.70004551
  PAW double counting   =      3513.29252893    -3436.88002192
  entropy T*S    EENTRO =        -0.00091333
  eigenvalues    EBANDS =       -75.48842658
  atomic energy  EATOM  =      4095.35208632
  Solvation  Ediel_sol  =         0.00000000
  ---------------------------------------------------
  free energy    TOTEN  =       -25.74073932 eV

  energy without entropy =      -25.73982599  energy(sigma->0) =      -25.74028265


--------------------------------------------------------------------------------------------------------




--------------------------------------- Iteration      1(   5)  ---------------------------------------


     EDDAV:  cpu time    1.7038: real time    1.7348
       DOS:  cpu time    0.0032: real time    0.0037
    CHARGE:  cpu time    0.3355: real time    0.3357
    MIXING:  cpu time    0.0071: real time    0.0076
    --------------------------------------------
      LOOP:  cpu time    2.0496: real time    2.0842

 eigenvalue-minimisations  :  5288
 total energy-change (2. order) :-0.1574273E+00  (-0.1572315E+00)
 number of electron      39.0000001 magnetization
 augmentation part        8.6556995 magnetization

 Broyden mixing:
  rms(total) = 0.16177E+01    rms(broyden)= 0.16177E+01
  rms(prec ) = 0.43921E+01
  weight for this iteration     100.00

 Free energy of the ion-electron system (eV)
  ---------------------------------------------------
  alpha Z        PSCENC =       239.23462350
  Ewald energy   TEWEN  =     -3721.74899143
  -Hartree energ DENC   =      -731.20167031
  -exchange      EXHF   =         0.00000000
  -V(xc)+E(xc)   XCENC  =        91.70004551
  PAW double counting   =      3513.29252893    -3436.88002192
  entropy T*S    EENTRO =        -0.00082611
  eigenvalues    EBANDS =       -75.64594111
  atomic energy  EATOM  =      4095.35208632
  Solvation  Ediel_sol  =         0.00000000
  ---------------------------------------------------
  free energy    TOTEN  =       -25.89816664 eV

  energy without entropy =      -25.89734053  energy(sigma->0) =      -25.89775358


--------------------------------------------------------------------------------------------------------




--------------------------------------- Iteration      1(   6)  ---------------------------------------


    POTLOK:  cpu time    0.0325: real time    0.0675
    SETDIJ:  cpu time    0.1090: real time    0.1092
     EDDAV:  cpu time    1.9179: real time    1.9183
       DOS:  cpu time    0.0031: real time    0.0035
    CHARGE:  cpu time    0.2970: real time    0.2974
    MIXING:  cpu time    0.0049: real time    0.0052
    --------------------------------------------
      LOOP:  cpu time    2.3644: real time    2.4003

 eigenvalue-minimisations  :  6160
 total energy-change (2. order) :-0.5310337E+01  (-0.1661621E+02)
 number of electron      39.0000000 magnetization
 augmentation part        7.0415497 magnetization

 Broyden mixing:
  rms(total) = 0.22541E+01    rms(broyden)= 0.22541E+01
  rms(prec ) = 0.57121E+01
  weight for this iteration     100.00

 eigenvalues of (default mixing * dielectric matrix)
  average eigenvalue GAMMA=   0.3402
  0.3402

 Free energy of the ion-electron system (eV)
  ---------------------------------------------------
  alpha Z        PSCENC =       239.23462350
  Ewald energy   TEWEN  =     -3721.74899143
  -Hartree energ DENC   =      -735.10375951
  -exchange      EXHF   =         0.00000000
  -V(xc)+E(xc)   XCENC  =        92.10402136
  PAW double counting   =      3930.89316561    -3855.79946950
  entropy T*S    EENTRO =        -0.00025970
  eigenvalues    EBANDS =       -76.13991989
  atomic energy  EATOM  =      4095.35208632
  Solvation  Ediel_sol  =         0.00000000
  ---------------------------------------------------
  free energy    TOTEN  =       -31.20850325 eV

  energy without entropy =      -31.20824354  energy(sigma->0) =      -31.20837340


--------------------------------------------------------------------------------------------------------




--------------------------------------- Iteration      1(   7)  ---------------------------------------


    POTLOK:  cpu time    0.0331: real time    0.0595
    SETDIJ:  cpu time    0.0981: real time    0.0983
     EDDAV:  cpu time    1.8171: real time    1.8174
       DOS:  cpu time    0.0032: real time    0.0037
    CHARGE:  cpu time    0.2781: real time    0.2782
    MIXING:  cpu time    0.0050: real time    0.0052
    --------------------------------------------
      LOOP:  cpu time    2.2345: real time    2.2603

 eigenvalue-minimisations  :  5784
 total energy-change (2. order) : 0.7195885E+01  (-0.2525856E+01)
 number of electron      39.0000000 magnetization
 augmentation part        7.6335293 magnetization

 Broyden mixing:
  rms(total) = 0.90191E+00    rms(broyden)= 0.90191E+00
  rms(prec ) = 0.23344E+01
  weight for this iteration     100.00

 eigenvalues of (default mixing * dielectric matrix)
  average eigenvalue GAMMA=   0.8063
  0.8063  0.8063

 Free energy of the ion-electron system (eV)
  ---------------------------------------------------
  alpha Z        PSCENC =       239.23462350
  Ewald energy   TEWEN  =     -3721.74899143
  -Hartree energ DENC   =      -723.32041199
  -exchange      EXHF   =         0.00000000
  -V(xc)+E(xc)   XCENC  =        91.52754291
  PAW double counting   =      4071.81987325    -4000.96914378
  entropy T*S    EENTRO =        -0.00075899
  eigenvalues    EBANDS =       -75.90743810
  atomic energy  EATOM  =      4095.35208632
  Solvation  Ediel_sol  =         0.00000000
  ---------------------------------------------------
  free energy    TOTEN  =       -24.01261830 eV

  energy without entropy =      -24.01185931  energy(sigma->0) =      -24.01223881


--------------------------------------------------------------------------------------------------------




--------------------------------------- Iteration      1(   8)  ---------------------------------------


    POTLOK:  cpu time    0.0311: real time    0.0667
    SETDIJ:  cpu time    0.0970: real time    0.0973
     EDDAV:  cpu time    1.8465: real time    1.8468
       DOS:  cpu time    0.0033: real time    0.0035
    CHARGE:  cpu time    0.2817: real time    0.2818
    MIXING:  cpu time    0.0052: real time    0.0053
    --------------------------------------------
      LOOP:  cpu time    2.2648: real time    2.3024

 eigenvalue-minimisations  :  5944
 total energy-change (2. order) :-0.1288086E-01  (-0.2156375E+01)
 number of electron      39.0000001 magnetization
 augmentation part        8.5709974 magnetization

 Broyden mixing:
  rms(total) = 0.66742E+00    rms(broyden)= 0.66742E+00
  rms(prec ) = 0.22170E+01
  weight for this iteration     100.00

 eigenvalues of (default mixing * dielectric matrix)
  average eigenvalue GAMMA=   1.0360
  1.9473  0.5803  0.5803

 Free energy of the ion-electron system (eV)
  ---------------------------------------------------
  alpha Z        PSCENC =       239.23462350
  Ewald energy   TEWEN  =     -3721.74899143
  -Hartree energ DENC   =      -713.69515977
  -exchange      EXHF   =         0.00000000
  -V(xc)+E(xc)   XCENC  =        91.12475728
  PAW double counting   =      4252.65910785    -4185.56817379
  entropy T*S    EENTRO =        -0.00121993
  eigenvalues    EBANDS =       -81.38252918
  atomic energy  EATOM  =      4095.35208632
  Solvation  Ediel_sol  =         0.00000000
  ---------------------------------------------------
  free energy    TOTEN  =       -24.02549916 eV

  energy without entropy =      -24.02427923  energy(sigma->0) =      -24.02488919


--------------------------------------------------------------------------------------------------------




--------------------------------------- Iteration      1(   9)  ---------------------------------------


    POTLOK:  cpu time    0.0328: real time    0.0618
    SETDIJ:  cpu time    0.0978: real time    0.0979
     EDDAV:  cpu time    1.9172: real time    1.9175
       DOS:  cpu time    0.0032: real time    0.0034
    CHARGE:  cpu time    0.2819: real time    0.2821
    MIXING:  cpu time    0.0054: real time    0.0055
    --------------------------------------------
      LOOP:  cpu time    2.3382: real time    2.3699

 eigenvalue-minimisations  :  6136
 total energy-change (2. order) : 0.6036117E+00  (-0.6657801E+00)
 number of electron      39.0000000 magnetization
 augmentation part        7.9114088 magnetization

 Broyden mixing:
  rms(total) = 0.11540E+00    rms(broyden)= 0.11540E+00
  rms(prec ) = 0.25037E+00
  weight for this iteration     100.00

 eigenvalues of (default mixing * dielectric matrix)
  average eigenvalue GAMMA=   1.0213
  2.2704  0.5852  0.5852  0.6446

 Free energy of the ion-electron system (eV)
  ---------------------------------------------------
  alpha Z        PSCENC =       239.23462350
  Ewald energy   TEWEN  =     -3721.74899143
  -Hartree energ DENC   =      -715.97423006
  -exchange      EXHF   =         0.00000000
  -V(xc)+E(xc)   XCENC  =        91.27006250
  PAW double counting   =      4437.45468372    -4371.73153628
  entropy T*S    EENTRO =        -0.00152825
  eigenvalues    EBANDS =       -77.27705748
  atomic energy  EATOM  =      4095.35208632
  Solvation  Ediel_sol  =         0.00000000
  ---------------------------------------------------
  free energy    TOTEN  =       -23.42188746 eV

  energy without entropy =      -23.42035921  energy(sigma->0) =      -23.42112333


--------------------------------------------------------------------------------------------------------




--------------------------------------- Iteration      1(  10)  ---------------------------------------


    POTLOK:  cpu time    0.0434: real time    0.0974
    SETDIJ:  cpu time    0.0965: real time    0.0966
     EDDAV:  cpu time    1.9299: real time    1.9302
       DOS:  cpu time    0.0033: real time    0.0036
    CHARGE:  cpu time    0.2804: real time    0.2805
    MIXING:  cpu time    0.0056: real time    0.0060
    --------------------------------------------
      LOOP:  cpu time    2.3590: real time    2.4147

 eigenvalue-minimisations  :  6152
 total energy-change (2. order) :-0.9607076E-02  (-0.2015963E-01)
 number of electron      39.0000000 magnetization
 augmentation part        7.9243600 magnetization

 Broyden mixing:
  rms(total) = 0.71887E-01    rms(broyden)= 0.71887E-01
  rms(prec ) = 0.22790E+00
  weight for this iteration     100.00

 eigenvalues of (default mixing * dielectric matrix)
  average eigenvalue GAMMA=   0.9794
  1.9533  0.5699  0.5699  0.9019  0.9019

 Free energy of the ion-electron system (eV)
  ---------------------------------------------------
  alpha Z        PSCENC =       239.23462350
  Ewald energy   TEWEN  =     -3721.74899143
  -Hartree energ DENC   =      -714.67500809
  -exchange      EXHF   =         0.00000000
  -V(xc)+E(xc)   XCENC  =        91.22608659
  PAW double counting   =      4497.07805689    -4431.98397889
  entropy T*S    EENTRO =        -0.00154387
  eigenvalues    EBANDS =       -77.91282555
  atomic energy  EATOM  =      4095.35208632
  Solvation  Ediel_sol  =         0.00000000
  ---------------------------------------------------
  free energy    TOTEN  =       -23.43149453 eV

  energy without entropy =      -23.42995067  energy(sigma->0) =      -23.43072260


--------------------------------------------------------------------------------------------------------




--------------------------------------- Iteration      1(  11)  ---------------------------------------


    POTLOK:  cpu time    0.0382: real time    0.0742
    SETDIJ:  cpu time    0.0975: real time    0.0976
     EDDAV:  cpu time    1.9270: real time    1.9272
       DOS:  cpu time    0.0033: real time    0.0036
    CHARGE:  cpu time    0.2827: real time    0.2829
    MIXING:  cpu time    0.0048: real time    0.0049
    --------------------------------------------
      LOOP:  cpu time    2.3535: real time    2.3882

 eigenvalue-minimisations  :  6272
 total energy-change (2. order) : 0.8169190E-02  (-0.1037117E-01)
 number of electron      39.0000000 magnetization
 augmentation part        7.9946263 magnetization

 Broyden mixing:
  rms(total) = 0.33491E-01    rms(broyden)= 0.33491E-01
  rms(prec ) = 0.74015E-01
  weight for this iteration     100.00

 eigenvalues of (default mixing * dielectric matrix)
  average eigenvalue GAMMA=   1.2650
  2.4829  2.4193  0.5683  0.5683  0.8368  0.7143

 Free energy of the ion-electron system (eV)
  ---------------------------------------------------
  alpha Z        PSCENC =       239.23462350
  Ewald energy   TEWEN  =     -3721.74899143
  -Hartree energ DENC   =      -714.31045846
  -exchange      EXHF   =         0.00000000
  -V(xc)+E(xc)   XCENC  =        91.20182272
  PAW double counting   =      4490.47680745    -4425.38832463
  entropy T*S    EENTRO =        -0.00150286
  eigenvalues    EBANDS =       -78.23938795
  atomic energy  EATOM  =      4095.35208632
  Solvation  Ediel_sol  =         0.00000000
  ---------------------------------------------------
  free energy    TOTEN  =       -23.42332534 eV

  energy without entropy =      -23.42182249  energy(sigma->0) =      -23.42257392


--------------------------------------------------------------------------------------------------------




--------------------------------------- Iteration      1(  12)  ---------------------------------------


    POTLOK:  cpu time    0.0416: real time    0.0674
    SETDIJ:  cpu time    0.0982: real time    0.0984
     EDDAV:  cpu time    2.0466: real time    2.0470
       DOS:  cpu time    0.0030: real time    0.0033
    CHARGE:  cpu time    0.2826: real time    0.2827
    MIXING:  cpu time    0.0045: real time    0.0046
    --------------------------------------------
      LOOP:  cpu time    2.4764: real time    2.5045

 eigenvalue-minimisations  :  6696
 total energy-change (2. order) : 0.2753353E-03  (-0.5644063E-03)
 number of electron      39.0000000 magnetization
 augmentation part        7.9830636 magnetization

 Broyden mixing:
  rms(total) = 0.53064E-02    rms(broyden)= 0.53063E-02
  rms(prec ) = 0.14073E-01
  weight for this iteration     100.00

 eigenvalues of (default mixing * dielectric matrix)
  average eigenvalue GAMMA=   1.2297
  2.7230  2.0612  0.5707  0.5707  1.0011  1.0011  0.6798

 Free energy of the ion-electron system (eV)
  ---------------------------------------------------
  alpha Z        PSCENC =       239.23462350
  Ewald energy   TEWEN  =     -3721.74899143
  -Hartree energ DENC   =      -714.40744994
  -exchange      EXHF   =         0.00000000
  -V(xc)+E(xc)   XCENC  =        91.20235226
  PAW double counting   =      4506.75649289    -4441.63068024
  entropy T*S    EENTRO =        -0.00152195
  eigenvalues    EBANDS =       -78.17996141
  atomic energy  EATOM  =      4095.35208632
  Solvation  Ediel_sol  =         0.00000000
  ---------------------------------------------------
  free energy    TOTEN  =       -23.42305001 eV

  energy without entropy =      -23.42152806  energy(sigma->0) =      -23.42228903


--------------------------------------------------------------------------------------------------------




--------------------------------------- Iteration      1(  13)  ---------------------------------------


    POTLOK:  cpu time    0.0318: real time    0.0602
    SETDIJ:  cpu time    0.0967: real time    0.0968
     EDDAV:  cpu time    1.9288: real time    1.9293
       DOS:  cpu time    0.0033: real time    0.0036
    CHARGE:  cpu time    0.2825: real time    0.2826
    MIXING:  cpu time    0.0053: real time    0.0054
    --------------------------------------------
      LOOP:  cpu time    2.3486: real time    2.3776

 eigenvalue-minimisations  :  6232
 total energy-change (2. order) :-0.1080193E-04  (-0.1145128E-03)
 number of electron      39.0000000 magnetization
 augmentation part        7.9749369 magnetization

 Broyden mixing:
  rms(total) = 0.53037E-02    rms(broyden)= 0.53036E-02
  rms(prec ) = 0.17699E-01
  weight for this iteration     100.00

 eigenvalues of (default mixing * dielectric matrix)
  average eigenvalue GAMMA=   1.2248
  2.5380  1.9365  1.6114  0.5708  0.5708  0.9401  0.9401  0.6908

 Free energy of the ion-electron system (eV)
  ---------------------------------------------------
  alpha Z        PSCENC =       239.23462350
  Ewald energy   TEWEN  =     -3721.74899143
  -Hartree energ DENC   =      -714.45599079
  -exchange      EXHF   =         0.00000000
  -V(xc)+E(xc)   XCENC  =        91.20444507
  PAW double counting   =      4507.73601356    -4442.56447285
  entropy T*S    EENTRO =        -0.00152451
  eigenvalues    EBANDS =       -78.17924967
  atomic energy  EATOM  =      4095.35208632
  Solvation  Ediel_sol  =         0.00000000
  ---------------------------------------------------
  free energy    TOTEN  =       -23.42306081 eV

  energy without entropy =      -23.42153630  energy(sigma->0) =      -23.42229856


--------------------------------------------------------------------------------------------------------




--------------------------------------- Iteration      1(  14)  ---------------------------------------


    POTLOK:  cpu time    0.0328: real time    0.0650
    SETDIJ:  cpu time    0.0971: real time    0.0972
     EDDAV:  cpu time    1.8301: real time    1.8306
       DOS:  cpu time    0.0033: real time    0.0035
    CHARGE:  cpu time    0.2795: real time    0.2797
    MIXING:  cpu time    0.0072: real time    0.0073
    --------------------------------------------
      LOOP:  cpu time    2.2499: real time    2.2832

 eigenvalue-minimisations  :  5872
 total energy-change (2. order) : 0.4064737E-04  (-0.6410950E-04)
 number of electron      39.0000000 magnetization
 augmentation part        7.9796669 magnetization

 Broyden mixing:
  rms(total) = 0.17748E-02    rms(broyden)= 0.17748E-02
  rms(prec ) = 0.52937E-02
  weight for this iteration     100.00

 eigenvalues of (default mixing * dielectric matrix)
  average eigenvalue GAMMA=   1.2784
  2.7110  2.0813  1.4527  1.4527  0.5708  0.5708  0.9879  0.9879  0.6904

 Free energy of the ion-electron system (eV)
  ---------------------------------------------------
  alpha Z        PSCENC =       239.23462350
  Ewald energy   TEWEN  =     -3721.74899143
  -Hartree energ DENC   =      -714.41793824
  -exchange      EXHF   =         0.00000000
  -V(xc)+E(xc)   XCENC  =        91.20246555
  PAW double counting   =      4507.65506561    -4442.46921587
  entropy T*S    EENTRO =        -0.00152604
  eigenvalues    EBANDS =       -78.22958955
  atomic energy  EATOM  =      4095.35208632
  Solvation  Ediel_sol  =         0.00000000
  ---------------------------------------------------
  free energy    TOTEN  =       -23.42302016 eV

  energy without entropy =      -23.42149412  energy(sigma->0) =      -23.42225714


--------------------------------------------------------------------------------------------------------




--------------------------------------- Iteration      1(  15)  ---------------------------------------


    POTLOK:  cpu time    0.0325: real time    0.0732
    SETDIJ:  cpu time    0.0952: real time    0.0954
     EDDAV:  cpu time    1.9139: real time    1.9142
       DOS:  cpu time    0.0032: real time    0.0034
    CHARGE:  cpu time    0.2817: real time    0.2818
    MIXING:  cpu time    0.0067: real time    0.0068
    --------------------------------------------
      LOOP:  cpu time    2.3332: real time    2.3748

 eigenvalue-minimisations  :  6168
 total energy-change (2. order) : 0.2115948E-05  (-0.6880793E-05)
 number of electron      39.0000000 magnetization
 augmentation part        7.9785154 magnetization

 Broyden mixing:
  rms(total) = 0.54242E-03    rms(broyden)= 0.54236E-03
  rms(prec ) = 0.16456E-02
  weight for this iteration     100.00

 eigenvalues of (default mixing * dielectric matrix)
  average eigenvalue GAMMA=   1.2991
  2.6430  2.3387  1.9111  0.5708  0.5708  1.3138  1.0251  1.0251  0.6936  0.8989

 Free energy of the ion-electron system (eV)
  ---------------------------------------------------
  alpha Z        PSCENC =       239.23462350
  Ewald energy   TEWEN  =     -3721.74899143
  -Hartree energ DENC   =      -714.43039935
  -exchange      EXHF   =         0.00000000
  -V(xc)+E(xc)   XCENC  =        91.20294783
  PAW double counting   =      4508.02692946    -4442.83677127
  entropy T*S    EENTRO =        -0.00152588
  eigenvalues    EBANDS =       -78.22191721
  atomic energy  EATOM  =      4095.35208632
  Solvation  Ediel_sol  =         0.00000000
  ---------------------------------------------------
  free energy    TOTEN  =       -23.42301805 eV

  energy without entropy =      -23.42149216  energy(sigma->0) =      -23.42225511


--------------------------------------------------------------------------------------------------------




--------------------------------------- Iteration      1(  16)  ---------------------------------------


    POTLOK:  cpu time    0.0328: real time    0.0611
    SETDIJ:  cpu time    0.0969: real time    0.0970
     EDDAV:  cpu time    1.9160: real time    1.9163
       DOS:  cpu time    0.0033: real time    0.0046
    CHARGE:  cpu time    0.2810: real time    0.2811
    MIXING:  cpu time    0.0071: real time    0.0153
    --------------------------------------------
      LOOP:  cpu time    2.3369: real time    2.3741

 eigenvalue-minimisations  :  6000
 total energy-change (2. order) : 0.4328413E-06  (-0.2243129E-06)
 number of electron      39.0000000 magnetization
 augmentation part        7.9787129 magnetization

 Broyden mixing:
  rms(total) = 0.28631E-03    rms(broyden)= 0.28620E-03
  rms(prec ) = 0.85047E-03
  weight for this iteration     100.00

 eigenvalues of (default mixing * dielectric matrix)
  average eigenvalue GAMMA=   1.3139
  2.7580  2.2289  2.2289  0.5708  0.5708  1.4033  0.6918  1.0797  1.0797  0.9203
  0.9203

 Free energy of the ion-electron system (eV)
  ---------------------------------------------------
  alpha Z        PSCENC =       239.23462350
  Ewald energy   TEWEN  =     -3721.74899143
  -Hartree energ DENC   =      -714.43117976
  -exchange      EXHF   =         0.00000000
  -V(xc)+E(xc)   XCENC  =        91.20297821
  PAW double counting   =      4508.00206593    -4442.80903384
  entropy T*S    EENTRO =        -0.00152618
  eigenvalues    EBANDS =       -78.22404035
  atomic energy  EATOM  =      4095.35208632
  Solvation  Ediel_sol  =         0.00000000
  ---------------------------------------------------
  free energy    TOTEN  =       -23.42301761 eV

  energy without entropy =      -23.42149144  energy(sigma->0) =      -23.42225453


--------------------------------------------------------------------------------------------------------




--------------------------------------- Iteration      1(  17)  ---------------------------------------


    POTLOK:  cpu time    0.0328: real time    0.0707
    SETDIJ:  cpu time    0.0972: real time    0.0974
     EDDAV:  cpu time    1.5300: real time    1.5303
       DOS:  cpu time    0.0033: real time    0.0035
    --------------------------------------------
      LOOP:  cpu time    1.6634: real time    1.7005

 eigenvalue-minimisations  :  4520
 total energy-change (2. order) : 0.8584720E-07  (-0.3904748E-07)
 number of electron      39.0000000 magnetization
 augmentation part        7.9787129 magnetization

 Free energy of the ion-electron system (eV)
  ---------------------------------------------------
  alpha Z        PSCENC =       239.23462350
  Ewald energy   TEWEN  =     -3721.74899143
  -Hartree energ DENC   =      -714.43101136
  -exchange      EXHF   =         0.00000000
  -V(xc)+E(xc)   XCENC  =        91.20299109
  PAW double counting   =      4508.04251861    -4442.84976960
  entropy T*S    EENTRO =        -0.00152631
  eigenvalues    EBANDS =       -78.22393834
  atomic energy  EATOM  =      4095.35208632
  Solvation  Ediel_sol  =         0.00000000
  ---------------------------------------------------
  free energy    TOTEN  =       -23.42301753 eV

  energy without entropy =      -23.42149122  energy(sigma->0) =      -23.42225437


--------------------------------------------------------------------------------------------------------




 average (electrostatic) potential at core
  the test charge radii are     1.2087  1.0856  1.2059
  (the norm of the test charge is              1.0000)
       1 -81.9067       2 -99.2911       3 -63.3533



 E-fermi :  11.6117     XC(G=0): -12.0777     alpha+bet :-17.8260


 k-point     1 :       0.0000    0.0000    0.0000
  band No.  band energies     occupation
      1     -32.4179      2.00000
      2     -11.5120      2.00000
      3     -11.5120      2.00000
      4     -11.4757      2.00000
      5     -11.4757      2.00000
      6     -11.4757      2.00000
      7      -7.8327      2.00000
      8      -7.8327      2.00000
      9      -7.8327      2.00000
     10      -1.5690      2.00000
     11       6.5161      2.00000
     12       6.5161      2.00000
     13       6.5161      2.00000
     14       6.6467      2.00000
     15       6.6467      2.00000
     16      10.2474      2.00000
     17      10.2474      2.00000
     18      10.2474      2.00000
     19      10.2960      2.00000
     20      11.4702      2.00000
     21      11.4702      2.00000
     22      11.4702      2.00000
     23      11.9249      0.00000
     24      11.9249      0.00000

 k-point     2 :       0.0769   -0.0000    0.0000
  band No.  band energies     occupation
      1     -32.4173      2.00000
      2     -11.5149      2.00000
      3     -11.5149      2.00000
      4     -11.4763      2.00000
      5     -11.4754      2.00000
      6     -11.4754      2.00000
      7      -7.8575      2.00000
      8      -7.8261      2.00000
      9      -7.8261      2.00000
     10      -1.4773      2.00000
     11       6.3158      2.00000
     12       6.3158      2.00000
     13       6.3877      2.00000
     14       6.8353      2.00000
     15       6.8353      2.00000
     16       9.5691      2.00000
     17      10.1803      2.00000
     18      10.1803      2.00000
     19      10.6975      2.00000
     20      11.4840      2.00000
     21      11.4840      2.00000
     22      11.5481      2.00000
     23      11.9408      0.00000
     24      11.9944      0.00000

 k-point     3 :       0.1538   -0.0000    0.0000
  band No.  band energies     occupation
      1     -32.4159      2.00000
      2     -11.5228      2.00000
      3     -11.5228      2.00000
      4     -11.4780      2.00000
      5     -11.4745      2.00000
      6     -11.4745      2.00000
      7      -7.9224      2.00000
      8      -7.8080      2.00000
[...]
  212              fftbas_plan_mpi                       0.067705                     12   6
  213                dfftw_execute                         0.026971                   36   7
  214                map_backward                          0.004364                   12   7
  215                  map_gather                            0.000840                  6   8
  216                  m_alltoallv_z                         0.002028                  6   8
  217                  map_scatter                           0.001150                  6   8
  218                map_forward                           0.033529                   12   7
  219                  map_gather                            0.016512                  6   8
  220                  m_alltoallv_z                         0.008262                  6   8
  221                  map_scatter                           0.008456                  6   8
  222            M_sumb_d                              0.008274                        6   5
  223          M_sumb_d                              0.000023                          1   4
  224        setdij_                               1.543463                           20   3
  225          fft3d_mpi                             0.239557                         40   4
  226            fftbas_plan_mpi                       0.222426                       40   5
  227              dfftw_execute                         0.088900                    120   6
  228              map_backward                          0.013736                     40   6
  229                map_gather                            0.002804                   20   7
  230                m_alltoallv_z                         0.006230                   20   7
  231                map_scatter                           0.003778                   20   7
  232              map_forward                           0.108909                     40   6
  233                map_gather                            0.057378                   20   7
  234                m_alltoallv_z                         0.025641                   20   7
  235                map_scatter                           0.024889                   20   7
  236          M_sumb_d                              0.015123                         20   4
  237        set_dd_magatom                        0.000004                            1   3
  238        set_dd_paw                            0.016896                            1   3
  239          set_rsgf_all                          0.000004                          1   4
  240          M_sumb_d                              0.016751                          8   4
  241        strkin                                0.001607                            1   3
  242          M_sumb_d                              0.001008                          1   4
  243        strelo                                0.002714                            1   3
  244          M_sumb_d                              0.000481                          2   4
  245        strenl                                0.976580                            1   3
  246          spher                                 0.722739                         19   4
  247          phase                                 0.011524                        189   4
  248          proj1                                 0.216721                       1134   4
  249            crexp_mul_wave                        0.030325                     3402   5
  250            M_sumb_d                              0.060950                     1134   5
  251          M_sumb_d                              0.003694                          1   4
  252        M_sumb_d                              0.000251                            6   3
  253        fft3d_mpi                             0.015278                           11   3
  254          fftbas_plan_mpi                       0.014281                         11   4
  255            dfftw_execute                         0.004988                       33   5
  256            map_forward                           0.002959                       10   5
  257              map_gather                            0.000694                      5   6
  258              m_alltoallv_z                         0.001273                      5   6
  259              map_scatter                           0.000660                      5   6
  260            map_backward                          0.003707                       12   5
  261              map_gather                            0.000708                      6   6
  262              m_alltoallv_z                         0.001683                      6   6
  263              map_scatter                           0.001034                      6   6
  264        ggaall_grid                           0.001507                            1   3
  265        forhar                                0.006253                            2   3
  266          M_sumb_d                              0.000356                          2   4
  267        strehar                               0.002642                            1   3
  268          M_sumb_d                              0.000190                          1   4
  269        chggra                                0.006185                            1   3
  270          fft3d_mpi                             0.004130                          3   4
  271            fftbas_plan_mpi                       0.003855                        3   5
  272              dfftw_execute                         0.001442                      9   6
  273              map_backward                          0.000606                      2   6
  274                map_gather                            0.000120                    1   7
  275                m_alltoallv_z                         0.000245                    1   7
  276                map_scatter                           0.000188                    1   7
  277              map_forward                           0.001039                      4   6
  278                map_gather                            0.000240                    2   7
  279                m_alltoallv_z                         0.000451                    2   7
  280                map_scatter                           0.000252                    2   7
  281          M_sumb_d                              0.000141                          3   4
  282        brmix                                 0.006078                            1   3
  283          M_sumb_d                              0.000262                          6   4
  284          brpre                                 0.000046                          1   4
  285          setg0                                 0.001381                          1   4
  286          broyd                                 0.002546                          1   4
  287            M_sumb_d                              0.000715                       19   5
  288            brget                                 0.000326                       69   5
  289            brsav                                 0.000142                       17   5
  290          M_bcast_z                             0.000879                          1   4
  291          M_bcast_d                             0.000055                          1   4
  292        M_bcast_d                             0.000281                            2   3
  293      potlok                                0.027875                              1   2
  294        fft3d_mpi                             0.019587                           13   3
  295          fftbas_plan_mpi                       0.018248                         13   4
  296            dfftw_execute                         0.005811                       39   5
  297            map_forward                           0.003924                       14   5
  298              map_gather                            0.000829                      8   6
  299              m_alltoallv_z                         0.001928                      8   6
  300              map_scatter                           0.000834                      8   6
  301            map_backward                          0.005383                       12   5
  302              map_gather                            0.001256                      6   6
  303              m_alltoallv_z                         0.002218                      6   6
  304              map_scatter                           0.001521                      6   6
  305        ggaall_grid                           0.001508                            1   3
  306        M_sumb_d                              0.000240                            6   3
  307        M_bcast_d                             0.000107                            1   3
  308      potlok_metagga                        0.000004                              1   2
  309      set_dd_magatom                        0.000003                              1   2
  310      set_dd_paw                            0.000479                              1   2
  311        set_rsgf_all                          0.000004                            1   3
  312        M_sumb_d                              0.000292                            8   3
  313      densta                                0.002624                              1   2
  314        M_sumb_d                              0.000887                           45   3
  315      lprj_proall                           0.000008                              1   2

 Flat profile
 ============

             routine name                   CPU           calls
 ---------------------------------------------------------------
 total_time                             13.227860           1
 eddav                                   5.584305          17
 dfftw_execute                           5.311992       54939
 fftbas_plan_mpi                         3.682888       18315
 M_sumb_d                                2.972052       50569
 setdij_                                 2.830094          41
 set_charge                              2.243437          13
 m_alltoallv_z                           2.054504       18340
 pdssyex_zheevx                          1.582949         357
 elmin                                   1.317849           1
 M_alltoall_d                            1.264253       60746
 orth1                                   0.983987       12444
 proj1                                   0.947731        7400
 vhamil                                  0.839241        8282
 gemm                                    0.834363       24846
 spher                                   0.831344          20
 crpa_reader                             0.745537           1
 fftwav_mpi                              0.718196        9726
 map_forward                             0.697624       19746
 map_gather                              0.678935       18340
 map_scatter                             0.609706       18340
 vnlac0                                  0.550680        8282
 M_bcast_z                               0.537271        6694
 redis_pw                                0.512075       23460
 hamiltmu                                0.451504        4141
 redis_proj                              0.450957       29621
 w1_copy                                 0.351074       24846
 map_backward                            0.293435       16880
 fft3d_mpi                               0.291061       18313
 work_mul_crexp                          0.278365       24846
 fftext_mpi                              0.262491        8282
 crexp_mul_wave                          0.213310       22200
 eccp                                    0.192615        2142
 overl                                   0.164273       14443
 kinhamil                                0.161462        8282
 M_bcast_d                               0.134361        4175
 overl1                                  0.103901        8282
 pw_charge                               0.092214        1444
 potlok                                  0.091044          14
 apply_precond                           0.083748        6140
 setup_precond                           0.071676        2142
 w1_projall                              0.067161        3070
 lincom                                  0.058450         378
 force_and_stress                        0.055026           1
 fornl                                   0.043090           1
 phase                                   0.036315         589
 soft_charge                             0.035836          13
 truncate_high_frequency_w1              0.035393       10424
 densta                                  0.028824          18
 brmix                                   0.026441          13
 ggaall_grid                             0.023209          15
 strenl                                  0.021902           1
 broyd                                   0.018040          13
 setg0                                   0.015781          14
 forhar                                  0.005897           2
 depsum                                  0.005768          13
 forloc                                  0.002943           1
 set_dd_paw                              0.002848          15
 strehar                                 0.002452           1
 brget                                   0.002261         501
 strelo                                  0.002233           1
 orthch                                  0.002187           1
 chggra                                  0.001914           1
 choleski                                0.001806          21
 brgrid                                  0.001801           1
 proj                                    0.001615          21
 brsav                                   0.001182         145
 brpre                                   0.000897          13
 strkin                                  0.000599           1
 fordep                                  0.000122           1
 vectorpot                               0.000068          14
 set_rsgf_all                            0.000067          15
 potlok_metagga                          0.000058          14
 set_dd_magatom                          0.000051          15
 set_kineden                             0.000041          12
 rotate_active_occupied_orbital          0.000015           1
 lprj_proall                             0.000008           1
 redis_pw_over_bands                     0.000004           1
 ---------------------------------------------------------------
  summed up times    55.7486708164215

 Accumulative profile
 ====================

             routine name                   CPU           calls
 ---------------------------------------------------------------
 total_time                             55.748671           1
 elmin                                  37.476044           1
 eddav                                  30.987580          17
 fft3d_mpi                              13.582127       18313
 fftbas_plan_mpi                        13.329084       18315
 hamiltmu                                9.611442        4141
 fftwav_mpi                              7.687868        9726
 kinhamil                                6.031298        8282
 fftext_mpi                              5.869836        8282
 dfftw_execute                           5.311992       54939
 set_charge                              3.719504          13
 force_and_stress                        3.455834           1
 setdij_                                 3.376205          41
 M_sumb_d                                2.972052       50569
 map_forward                             2.521668       19746
 vnlac0                                  2.185498        8282
 m_alltoallv_z                           2.054504       18340
 map_backward                            1.812536       16880
 proj1                                   1.640417        7400
 pdssyex_zheevx                          1.582949         357
 w1_projall                              1.466685        3070
 M_alltoall_d                            1.264253       60746
 soft_charge                             1.242517          13
 redis_pw                                1.224305       23460
 redis_proj                              1.002980       29621
 orth1                                   0.983987       12444
 strenl                                  0.976580           1
 vhamil                                  0.839241        8282
 gemm                                    0.834363       24846
 spher                                   0.831344          20
 crpa_reader                             0.745537           1
 map_gather                              0.678935       18340
 map_scatter                             0.609706       18340
 M_bcast_z                               0.537271        6694
 fordep                                  0.480566           1
 potlok                                  0.368961          14
 w1_copy                                 0.351074       24846
 eccp                                    0.317962        2142
 work_mul_crexp                          0.278365       24846
 crexp_mul_wave                          0.213310       22200
 set_dd_paw                              0.179152          15
 overl                                   0.164273       14443
 M_bcast_d                               0.134361        4175
 setup_precond                           0.121359        2142
 overl1                                  0.103901        8282
 pw_charge                               0.092214        1444
 apply_precond                           0.083748        6140
 brmix                                   0.080220          13
 lincom                                  0.058450         378
 fornl                                   0.057521           1
 densta                                  0.043377          18
 phase                                   0.036315         589
 truncate_high_frequency_w1              0.035393       10424
 orthch                                  0.030271           1
 broyd                                   0.027343          13
 proj                                    0.025786          21
 ggaall_grid                             0.023209          15
 setg0                                   0.015781          14
 depsum                                  0.011285          13
 forhar                                  0.006253           2
 chggra                                  0.006185           1
 forloc                                  0.003007           1
 strelo                                  0.002714           1
 strehar                                 0.002642           1
 brget                                   0.002261         501
 choleski                                0.001806          21
 brgrid                                  0.001801           1
 strkin                                  0.001607           1
 brsav                                   0.001182         145
 brpre                                   0.000897          13
 vectorpot                               0.000068          14
 set_rsgf_all                            0.000067          15
 potlok_metagga                          0.000058          14
 set_dd_magatom                          0.000051          15
 set_kineden                             0.000041          12
 rotate_active_occupied_orbital          0.000015           1
 lprj_proall                             0.000008           1
 redis_pw_over_bands                     0.000004           1
 ---------------------------------------------------------------

Profiling took   1.431495  1.735762  0.006147  0.004711 seconds
Profiling took   1.384247 seconds
