 ----------------------------------------------------
    OOO  PPPP  EEEEE N   N M   M PPPP
   O   O P   P E     NN  N MM MM P   P
   O   O PPPP  EEEEE N N N M M M PPPP   -- VERSION
   O   O P     E     N  NN M   M P
    OOO  P     EEEEE N   N M   M P
 ----------------------------------------------------
 running   64 mpi-ranks, with    1 threads/rank
 distrk:  each k-point on   16 cores,    4 groups
 distr:  one band on    4 cores,    4 groups
 using from now: INCAR
 vasp.6.0.8 29Jun18 (build Jun 13 2019 12:54:44) complex

 POSCAR found type information on POSCAR  U  Bi Pt
 POSCAR found :  3 types and       3 ions
 scaLAPACK will be used
 WARNING: PSMAXN for non-local potential too small

 -----------------------------------------------------------------------------
|                                                                             |
|  ADVICE TO THIS USER RUNNING 'VASP/VAMP'   (HEAR YOUR MASTER'S VOICE ...):  |
|                                                                             |
|      You enforced a specific xc-type in the INCAR file,                     |
|      a different type was found on the POTCAR file                          |
|          I HOPE YOU KNOW, WHAT YOU ARE  DOING                               |
|                                                                             |
 -----------------------------------------------------------------------------

 LDA part: xc-table for Pade appr. of Perdew
 POSCAR, INCAR and KPOINTS ok, starting setup
 FFT: planning ...
 WAVECAR not read
 entering main loop
       N       E                     dE             d eps       ncg     rms          rms(c)
 ELPA: falling back to scaLAPACK
 ELPA: falling back to scaLAPACK
 ELPA: falling back to scaLAPACK
 ELPA: falling back to scaLAPACK
DAV:   1     0.437226069419E+03    0.43723E+03   -0.22565E+04  4032   0.238E+03
DAV:   2     0.311939107805E+02   -0.40603E+03   -0.39741E+03  4312   0.510E+02
DAV:   3    -0.201386286264E+02   -0.51333E+02   -0.50345E+02  4944   0.184E+02
DAV:   4    -0.257407393216E+02   -0.56021E+01   -0.55755E+01  7536   0.475E+01
DAV:   5    -0.258981666390E+02   -0.15743E+00   -0.15723E+00  5288   0.705E+00    0.162E+01
DAV:   6    -0.312085032488E+02   -0.53103E+01   -0.16616E+02  6160   0.881E+01    0.225E+01
DAV:   7    -0.240126183034E+02    0.71959E+01   -0.25259E+01  5784   0.288E+01    0.902E+00
DAV:   8    -0.240254991599E+02   -0.12881E-01   -0.21564E+01  5944   0.219E+01    0.667E+00
DAV:   9    -0.234218874581E+02    0.60361E+00   -0.66578E+00  6136   0.159E+01    0.115E+00
DAV:  10    -0.234314945336E+02   -0.96071E-02   -0.20160E-01  6152   0.257E+00    0.719E-01
DAV:  11    -0.234233253441E+02    0.81692E-02   -0.10371E-01  6272   0.186E+00    0.335E-01
DAV:  12    -0.234230500088E+02    0.27534E-03   -0.56441E-03  6696   0.510E-01    0.531E-02
DAV:  13    -0.234230608107E+02   -0.10802E-04   -0.11451E-03  6232   0.204E-01    0.530E-02
DAV:  14    -0.234230201634E+02    0.40647E-04   -0.64110E-04  5872   0.139E-01    0.177E-02
DAV:  15    -0.234230180474E+02    0.21159E-05   -0.68808E-05  6168   0.504E-02    0.542E-03
DAV:  16    -0.234230176146E+02    0.43284E-06   -0.22431E-06  6000   0.101E-02    0.286E-03
DAV:  17    -0.234230175287E+02    0.85847E-07   -0.39047E-07  4520   0.341E-03
   1 F= -.23423018E+02 E0= -.23422254E+02  d E =-.152631E-02
