<?xml version="1.0" encoding="ISO-8859-1"?>
<modeling>
 <generator>
  <i name="program" type="string">vasp </i>
  <i name="version" type="string">6.0.8  </i>
  <i name="subversion" type="string">29Jun18 (build Jun 13 2019 12:54:44) complex                          parallel </i>
  <i name="platform" type="string">IFC18_CrayMPICH </i>
  <i name="date" type="string">2021 12 05 </i>
  <i name="time" type="string">14:21:50 </i>
 </generator>
 <incar>
  <i type="int" name="KPAR">     4</i>
  <i type="int" name="NPAR">     4</i>
  <i type="int" name="ISTART">     0</i>
  <i type="string" name="PREC"> ACC</i>
  <i type="string" name="ALGO"> Normal</i>
  <i type="logical" name="ADDGRID"> T  </i>
  <i type="int" name="ISPIN">     1</i>
  <i type="int" name="NELMIN">     5</i>
  <i type="int" name="IBRION">    -1</i>
  <i name="EDIFF">      0.00000010</i>
  <i type="int" name="NSW">     0</i>
  <i type="int" name="ISIF">     3</i>
  <i name="ENCUT">    700.00000000</i>
  <i type="logical" name="LREAL"> F  </i>
  <i type="int" name="ISMEAR">     0</i>
  <i name="SIGMA">      0.01000000</i>
  <i type="logical" name="LWAVE"> F  </i>
  <i type="logical" name="LCHARG"> F  </i>
  <i type="logical" name="LVTOT"> F  </i>
  <i type="string" name="ALGO"> Normal</i>
  <i type="string" name="GGA"> PS</i>
  <i name="EDIFF">      0.00000010</i>
  <i type="int" name="ISPIN">     1</i>
 </incar>
 <structure name="primitive_cell" >
  <crystal>
   <varray name="basis" >
    <v>       0.00000000       3.20314717       3.20314717 </v>
    <v>       3.20314717       0.00000000       3.20314717 </v>
    <v>       3.20314717       3.20314717       0.00000000 </v>
   </varray>
   <i name="volume">     65.72955220 </i>
   <varray name="rec_basis" >
    <v>      -0.15609648       0.15609648       0.15609648 </v>
    <v>       0.15609648      -0.15609648       0.15609648 </v>
    <v>       0.15609648       0.15609648      -0.15609648 </v>
   </varray>
  </crystal>
  <varray name="positions" >
   <v>       0.25000000       0.25000000       0.25000000 </v>
   <v>       0.75000000       0.75000000       0.75000000 </v>
   <v>       0.00000000       0.00000000       0.00000000 </v>
  </varray>
 </structure>
 <varray name="primitive_index" >
  <v type="int" >        1 </v>
  <v type="int" >        2 </v>
  <v type="int" >        3 </v>
 </varray>
 <kpoints>
  <generation param="Gamma">
   <v type="int" name="divisions">      13       13       13 </v>
   <v name="usershift">      0.00000000       0.00000000       0.00000000 </v>
   <v name="genvec1">      0.07692308      -0.00000000       0.00000000 </v>
   <v name="genvec2">     -0.00000000       0.07692308      -0.00000000 </v>
   <v name="genvec3">      0.00000000       0.00000000       0.07692308 </v>
   <v name="shift">      0.00000000       0.00000000       0.00000000 </v>
  </generation>
  <varray name="kpointlist" >
   <v>       0.00000000       0.00000000       0.00000000 </v>
   <v>       0.07692308      -0.00000000       0.00000000 </v>
   <v>       0.15384615      -0.00000000       0.00000000 </v>
   <v>       0.23076923      -0.00000000       0.00000000 </v>
   <v>       0.30769231      -0.00000000       0.00000000 </v>
   <v>       0.38461538       0.00000000       0.00000000 </v>
   <v>       0.46153846      -0.00000000       0.00000000 </v>
   <v>       0.07692308       0.07692308       0.00000000 </v>
   <v>       0.15384615       0.07692308       0.00000000 </v>
   <v>       0.23076923       0.07692308       0.00000000 </v>
   <v>       0.30769231       0.07692308       0.00000000 </v>
   <v>       0.38461538       0.07692308       0.00000000 </v>
   <v>       0.46153846       0.07692308       0.00000000 </v>
   <v>      -0.46153846       0.07692308       0.00000000 </v>
   <v>      -0.38461538       0.07692308      -0.00000000 </v>
   <v>      -0.30769231       0.07692308       0.00000000 </v>
   <v>      -0.23076923       0.07692308      -0.00000000 </v>
   <v>      -0.15384615       0.07692308      -0.00000000 </v>
   <v>      -0.07692308       0.07692308      -0.00000000 </v>
   <v>       0.15384615       0.15384615       0.00000000 </v>
   <v>       0.23076923       0.15384615       0.00000000 </v>
   <v>       0.30769231       0.15384615       0.00000000 </v>
   <v>       0.38461538       0.15384615       0.00000000 </v>
   <v>       0.46153846       0.15384615      -0.00000000 </v>
   <v>      -0.46153846       0.15384615      -0.00000000 </v>
   <v>      -0.38461538       0.15384615       0.00000000 </v>
   <v>      -0.30769231       0.15384615      -0.00000000 </v>
   <v>      -0.23076923       0.15384615       0.00000000 </v>
   <v>      -0.15384615       0.15384615      -0.00000000 </v>
   <v>       0.23076923       0.23076923       0.00000000 </v>
   <v>       0.30769231       0.23076923      -0.00000000 </v>
   <v>       0.38461538       0.23076923       0.00000000 </v>
   <v>       0.46153846       0.23076923       0.00000000 </v>
   <v>      -0.46153846       0.23076923      -0.00000000 </v>
   <v>      -0.38461538       0.23076923      -0.00000000 </v>
   <v>      -0.30769231       0.23076923       0.00000000 </v>
   <v>      -0.23076923       0.23076923      -0.00000000 </v>
   <v>       0.30769231       0.30769231       0.00000000 </v>
   <v>       0.38461538       0.30769231      -0.00000000 </v>
   <v>       0.46153846       0.30769231       0.00000000 </v>
   <v>      -0.46153846       0.30769231      -0.00000000 </v>
   <v>      -0.38461538       0.30769231      -0.00000000 </v>
   <v>      -0.30769231       0.30769231      -0.00000000 </v>
   <v>       0.38461538       0.38461538       0.00000000 </v>
   <v>       0.46153846       0.38461538      -0.00000000 </v>
   <v>      -0.46153846       0.38461538      -0.00000000 </v>
   <v>      -0.38461538       0.38461538       0.00000000 </v>
   <v>       0.46153846       0.46153846       0.00000000 </v>
   <v>      -0.46153846       0.46153846      -0.00000000 </v>
   <v>       0.23076923       0.15384615       0.07692308 </v>
   <v>       0.30769231       0.15384615       0.07692308 </v>
   <v>       0.38461538       0.15384615       0.07692308 </v>
   <v>       0.46153846       0.15384615       0.07692308 </v>
   <v>      -0.46153846       0.15384615       0.07692308 </v>
   <v>       0.30769231       0.23076923       0.07692308 </v>
   <v>       0.38461538       0.23076923       0.07692308 </v>
   <v>       0.46153846       0.23076923       0.07692308 </v>
   <v>      -0.46153846       0.23076923       0.07692308 </v>
   <v>      -0.38461538       0.23076923       0.07692308 </v>
   <v>      -0.30769231       0.23076923       0.07692308 </v>
   <v>      -0.23076923       0.23076923       0.07692308 </v>
   <v>      -0.15384615       0.23076923       0.07692308 </v>
   <v>       0.38461538       0.30769231       0.07692308 </v>
   <v>       0.46153846       0.30769231       0.07692308 </v>
   <v>      -0.46153846       0.30769231       0.07692308 </v>
   <v>      -0.38461538       0.30769231       0.07692308 </v>
   <v>      -0.30769231       0.30769231       0.07692308 </v>
   <v>      -0.23076923       0.30769231       0.07692308 </v>
   <v>       0.46153846       0.38461538       0.07692308 </v>
   <v>      -0.46153846       0.38461538       0.07692308 </v>
   <v>      -0.38461538       0.38461538       0.07692308 </v>
   <v>      -0.30769231       0.38461538       0.07692308 </v>
   <v>      -0.46153846       0.46153846       0.07692308 </v>
   <v>      -0.38461538       0.46153846       0.07692308 </v>
   <v>       0.46153846       0.30769231       0.15384615 </v>
   <v>      -0.46153846       0.30769231       0.15384615 </v>
   <v>      -0.38461538       0.30769231       0.15384615 </v>
   <v>      -0.46153846       0.38461538       0.15384615 </v>
   <v>      -0.38461538       0.38461538       0.15384615 </v>
   <v>      -0.30769231       0.38461538       0.15384615 </v>
   <v>      -0.23076923       0.38461538       0.15384615 </v>
   <v>      -0.38461538       0.46153846       0.15384615 </v>
   <v>      -0.30769231       0.46153846       0.15384615 </v>
   <v>      -0.30769231       0.46153846       0.23076923 </v>
  </varray>
  <varray name="weights" >
   <v>       0.00045517 </v>
   <v>       0.00364133 </v>
   <v>       0.00364133 </v>
   <v>       0.00364133 </v>
   <v>       0.00364133 </v>
   <v>       0.00364133 </v>
   <v>       0.00364133 </v>
   <v>       0.00273100 </v>
   <v>       0.01092399 </v>
   <v>       0.01092399 </v>
   <v>       0.01092399 </v>
   <v>       0.01092399 </v>
   <v>       0.01092399 </v>
   <v>       0.01092399 </v>
   <v>       0.01092399 </v>
   <v>       0.01092399 </v>
   <v>       0.01092399 </v>
   <v>       0.01092399 </v>
   <v>       0.00546199 </v>
   <v>       0.00273100 </v>
   <v>       0.01092399 </v>
   <v>       0.01092399 </v>
   <v>       0.01092399 </v>
   <v>       0.01092399 </v>
   <v>       0.01092399 </v>
   <v>       0.01092399 </v>
   <v>       0.01092399 </v>
   <v>       0.01092399 </v>
   <v>       0.00546199 </v>
   <v>       0.00273100 </v>
   <v>       0.01092399 </v>
   <v>       0.01092399 </v>
   <v>       0.01092399 </v>
   <v>       0.01092399 </v>
   <v>       0.01092399 </v>
   <v>       0.01092399 </v>
   <v>       0.00546199 </v>
   <v>       0.00273100 </v>
   <v>       0.01092399 </v>
   <v>       0.01092399 </v>
   <v>       0.01092399 </v>
   <v>       0.01092399 </v>
   <v>       0.00546199 </v>
   <v>       0.00273100 </v>
   <v>       0.01092399 </v>
   <v>       0.01092399 </v>
   <v>       0.00546199 </v>
   <v>       0.00273100 </v>
   <v>       0.00546199 </v>
   <v>       0.01092399 </v>
   <v>       0.02184797 </v>
   <v>       0.02184797 </v>
   <v>       0.02184797 </v>
   <v>       0.02184797 </v>
   <v>       0.01092399 </v>
   <v>       0.02184797 </v>
   <v>       0.02184797 </v>
   <v>       0.02184797 </v>
   <v>       0.02184797 </v>
   <v>       0.02184797 </v>
   <v>       0.02184797 </v>
   <v>       0.01092399 </v>
   <v>       0.01092399 </v>
   <v>       0.02184797 </v>
   <v>       0.02184797 </v>
   <v>       0.02184797 </v>
   <v>       0.02184797 </v>
   <v>       0.01092399 </v>
   <v>       0.01092399 </v>
   <v>       0.02184797 </v>
   <v>       0.02184797 </v>
   <v>       0.01092399 </v>
   <v>       0.01092399 </v>
   <v>       0.01092399 </v>
   <v>       0.01092399 </v>
   <v>       0.02184797 </v>
   <v>       0.02184797 </v>
   <v>       0.01092399 </v>
   <v>       0.02184797 </v>
   <v>       0.02184797 </v>
   <v>       0.01092399 </v>
   <v>       0.01092399 </v>
   <v>       0.01092399 </v>
   <v>       0.01092399 </v>
  </varray>
 </kpoints>
 <parameters>
  <separator name="general" >
   <i type="string" name="SYSTEM">unknown system</i>
   <i type="logical" name="LCOMPAT"> F  </i>
  </separator>
  <separator name="electronic" >
   <i type="string" name="PREC">acc</i>
   <i name="ENMAX">    700.00000000</i>
   <i name="ENAUG">    526.41000000</i>
   <i name="EDIFF">      0.00000010</i>
   <i type="int" name="IALGO">    38</i>
   <i type="int" name="IWAVPR">    10</i>
   <i type="int" name="NBANDS">    24</i>
   <i type="int" name="NBANDSLOW">    -1</i>
   <i type="int" name="NBANDSHIGH">    -1</i>
   <i name="NELECT">     39.00000000</i>
   <i type="int" name="TURBO">     0</i>
   <i type="int" name="IRESTART">     0</i>
   <i type="int" name="NREBOOT">     0</i>
   <i type="int" name="NMIN">     0</i>
   <i name="EREF">      0.00000000</i>
   <separator name="electronic smearing" >
    <i type="int" name="ISMEAR">     0</i>
    <i name="SIGMA">      0.01000000</i>
    <i name="KSPACING">      0.50000000</i>
    <i type="logical" name="KGAMMA"> T  </i>
    <i type="logical" name="KBLOWUP"> T  </i>
   </separator>
   <separator name="electronic projectors" >
    <i type="logical" name="LREAL"> F  </i>
    <v name="ROPT">      0.00000000      0.00000000      0.00000000</v>
    <i type="int" name="LMAXPAW">  -100</i>
    <i type="int" name="LMAXMIX">     2</i>
    <i type="logical" name="NLSPLINE"> F  </i>
   </separator>
   <separator name="electronic startup" >
    <i type="int" name="ISTART">     0</i>
    <i type="int" name="ICHARG">     2</i>
    <i type="int" name="INIWAV">     1</i>
   </separator>
   <separator name="electronic spin" >
    <i type="int" name="ISPIN">     1</i>
    <i type="logical" name="LNONCOLLINEAR"> F  </i>
    <v name="MAGMOM">      1.00000000      1.00000000      1.00000000</v>
    <i name="NUPDOWN">     -1.00000000</i>
    <i type="logical" name="LSORBIT"> F  </i>
    <v name="SAXIS">      0.00000000      0.00000000      1.00000000</v>
    <i type="logical" name="LSPIRAL"> F  </i>
    <v name="QSPIRAL">      0.00000000      0.00000000      0.00000000</v>
    <i type="logical" name="LZEROZ"> F  </i>
   </separator>
   <separator name="electronic exchange-correlation" >
    <i type="logical" name="LASPH"> F  </i>
    <i type="logical" name="LMETAGGA"> F  </i>
   </separator>
   <separator name="electronic convergence" >
    <i type="int" name="NELM">    60</i>
    <i type="int" name="NELMDL">    -5</i>
    <i type="int" name="NELMIN">     5</i>
    <i name="ENINI">    700.00000000</i>
    <separator name="electronic convergence detail" >
     <i type="logical" name="LDIAG"> T  </i>
     <i type="logical" name="LSUBROT"> F  </i>
     <i name="WEIMIN">      0.00000000</i>
     <i name="EBREAK">      0.00000000</i>
     <i name="DEPER">      0.30000000</i>
     <i type="int" name="NRMM">     4</i>
     <i name="TIME">      0.40000000</i>
    </separator>
   </separator>
   <separator name="electronic mixer" >
    <i name="AMIX">      0.40000000</i>
    <i name="BMIX">      1.00000000</i>
    <i name="AMIN">      0.10000000</i>
    <i name="AMIX_MAG">      1.60000000</i>
    <i name="BMIX_MAG">      1.00000000</i>
    <separator name="electronic mixer details" >
     <i type="int" name="IMIX">     4</i>
     <i type="logical" name="MIXFIRST"> F  </i>
     <i type="int" name="MAXMIX">   -45</i>
     <i name="WC">    100.00000000</i>
     <i type="int" name="INIMIX">     1</i>
     <i type="int" name="MIXPRE">     1</i>
     <i type="int" name="MREMOVE">     5</i>
    </separator>
   </separator>
   <separator name="electronic dipolcorrection" >
    <i type="logical" name="LDIPOL"> F  </i>
    <i type="logical" name="LMONO"> F  </i>
    <i type="int" name="IDIPOL">     0</i>
    <i name="EPSILON">      1.00000000</i>
    <v name="DIPOL">   -100.00000000   -100.00000000   -100.00000000</v>
    <i name="EFIELD">      0.00000000</i>
   </separator>
  </separator>
  <separator name="grids" >
   <i type="int" name="NGX">    40</i>
   <i type="int" name="NGY">    40</i>
   <i type="int" name="NGZ">    40</i>
   <i type="int" name="NGXF">    80</i>
   <i type="int" name="NGYF">    80</i>
   <i type="int" name="NGZF">    80</i>
   <i type="logical" name="ADDGRID"> T  </i>
  </separator>
  <separator name="ionic" >
   <i type="int" name="NSW">     0</i>
   <i type="int" name="IBRION">    -1</i>
   <i type="int" name="MDALGO">     0</i>
   <i type="int" name="ISIF">     3</i>
   <i name="PSTRESS">      0.00000000</i>
   <i name="EDIFFG">      0.00000100</i>
   <i type="int" name="NFREE">     0</i>
   <i name="POTIM">      0.50000000</i>
   <i name="SMASS">     -3.00000000</i>
   <i name="SCALEE">      1.00000000</i>
  </separator>
  <separator name="ionic md" >
   <i name="TEBEG">      0.00010000</i>
   <i name="TEEND">      0.00010000</i>
   <i type="int" name="NBLOCK">     1</i>
   <i type="int" name="KBLOCK">     1</i>
   <i type="int" name="NPACO">   256</i>
   <i name="APACO">     16.00000000</i>
  </separator>
  <separator name="symmetry" >
   <i type="int" name="ISYM">     2</i>
   <i name="SYMPREC">      0.00001000</i>
  </separator>
  <separator name="dos" >
   <i type="int" name="LORBIT">     0</i>
   <v name="RWIGS">     -1.00000000     -1.00000000     -1.00000000</v>
   <i type="int" name="NEDOS">   301</i>
   <i name="EMIN">     10.00000000</i>
   <i name="EMAX">    -10.00000000</i>
   <i name="EFERMI">      0.00000000</i>
  </separator>
  <separator name="writing" >
   <i type="int" name="NWRITE">     2</i>
   <i type="logical" name="LWAVE"> F  </i>
   <i type="logical" name="LDOWNSAMPLE"> F  </i>
   <i type="logical" name="LCHARG"> F  </i>
   <i type="logical" name="LPARD"> F  </i>
   <i type="logical" name="LVTOT"> F  </i>
   <i type="logical" name="LVHAR"> F  </i>
   <i type="logical" name="LELF"> F  </i>
   <i type="logical" name="LOPTICS"> F  </i>
   <v name="STM">      0.00000000      0.00000000      0.00000000      0.00000000      0.00000000      0.00000000      0.00000000</v>
  </separator>
  <separator name="performance" >
   <i type="int" name="NPAR">     4</i>
   <i type="int" name="NSIM">     4</i>
   <i type="int" name="NBLK">    -1</i>
   <i type="logical" name="LPLANE"> T  </i>
   <i type="logical" name="LSCALAPACK"> T  </i>
   <i type="logical" name="LSCAAWARE"> F  </i>
   <i type="logical" name="LSCALU"> F  </i>
   <i type="logical" name="LASYNC"> F  </i>
   <i type="logical" name="LORBITALREAL"> F  </i>
  </separator>
  <separator name="miscellaneous" >
   <i type="int" name="IDIOT">     3</i>
   <i type="int" name="PHON_NSTRUCT">    -1</i>
   <i type="logical" name="LMUSIC"> F  </i>
   <v name="POMASS">    238.02900000    208.98000000    195.08000000</v>
   <v name="DARWINR">      0.00000000      0.00000000      0.00000000</v>
   <v name="DARWINV">      1.00000000      1.00000000      1.00000000</v>
   <i type="logical" name="LCORR"> T  </i>
  </separator>
  <i type="logical" name="GGA_COMPAT"> T  </i>
  <i type="logical" name="LBERRY"> F  </i>
  <i type="int" name="ICORELEVEL">     0</i>
  <i type="logical" name="LDAU"> F  </i>
  <i type="int" name="I_CONSTRAINED_M">     0</i>
  <separator name="electronic exchange-correlation" >
   <i type="string" name="GGA">PS</i>
   <i type="int" name="VOSKOWN">     0</i>
   <i type="logical" name="LHFCALC"> F  </i>
   <i type="string" name="PRECFOCK"></i>
   <i type="logical" name="LSYMGRAD"> F  </i>
   <i type="logical" name="LHFONE"> F  </i>
   <i type="logical" name="LRHFCALC"> F  </i>
   <i type="logical" name="LTHOMAS"> F  </i>
   <i type="logical" name="LMODELHF"> F  </i>
   <i type="logical" name="LFOCKACE"> F  </i>
   <i name="ENCUT4O">     -1.00000000</i>
   <i type="int" name="EXXOEP">     0</i>
   <i type="int" name="FOURORBIT">     0</i>
   <i name="AEXX">      0.00000000</i>
   <i name="HFALPHA">      0.00000000</i>
   <i name="MCALPHA">      0.00000000</i>
   <i name="ALDAX">      1.00000000</i>
   <i name="AGGAX">      1.00000000</i>
   <i name="ALDAC">      1.00000000</i>
   <i name="AGGAC">      1.00000000</i>
   <i type="int" name="NKREDX">     1</i>
   <i type="int" name="NKREDY">     1</i>
   <i type="int" name="NKREDZ">     1</i>
   <i type="logical" name="SHIFTRED"> F  </i>
   <i type="logical" name="ODDONLY"> F  </i>
   <i type="logical" name="EVENONLY"> F  </i>
   <i type="int" name="LMAXFOCK">     0</i>
   <i type="int" name="NMAXFOCKAE">     0</i>
   <i type="logical" name="LFOCKAEDFT"> F  </i>
   <i name="HFSCREEN">      0.00000000</i>
   <i name="HFSCREENC">      0.00000000</i>
   <i type="int" name="NBANDSGWLOW">     0</i>
  </separator>
  <separator name="vdW DFT" >
   <i type="logical" name="LUSE_VDW"> F  </i>
   <i name="Zab_VDW">     -0.84910000</i>
   <i name="PARAM1">      0.12340000</i>
   <i name="PARAM2">      1.00000000</i>
   <i name="PARAM3">      0.00000000</i>
  </separator>
  <separator name="model GW" >
   <i type="int" name="MODEL_GW">     0</i>
   <i name="MODEL_EPS0">     13.14591044</i>
   <i name="MODEL_ALPHA">      1.00000000</i>
  </separator>
  <separator name="linear response parameters" >
   <i type="logical" name="LEPSILON"> F  </i>
   <i type="logical" name="LRPA"> F  </i>
   <i type="logical" name="LNABLA"> F  </i>
   <i type="logical" name="LVEL"> F  </i>
   <i type="int" name="KINTER">     0</i>
   <i name="CSHIFT">      0.10000000</i>
   <i name="OMEGAMAX">     -1.00000000</i>
   <i name="DEG_THRESHOLD">      0.00200000</i>
   <i name="RTIME">     -0.10000000</i>
   <i name="WPLASMAI">      0.00000000</i>
   <v name="DFIELD">      0.00000000      0.00000000      0.00000000</v>
   <v name="WPLASMA">      0.00000000      0.00000000      0.00000000      0.00000000      0.00000000      0.00000000      0.00000000      0.00000000      0.00000000</v>
  </separator>
  <separator name="orbital magnetization" >
   <i type="logical" name="NUCIND"> F  </i>
   <v name="MAGPOS">      0.00000000      0.00000000      0.00000000</v>
   <i type="logical" name="LNICSALL"> T  </i>
   <i type="logical" name="ORBITALMAG"> F  </i>
   <i type="logical" name="LMAGBLOCH"> F  </i>
   <i type="logical" name="LCHIMAG"> F  </i>
   <i type="logical" name="LGAUGE"> T  </i>
   <i type="int" name="MAGATOM">     0</i>
   <v name="MAGDIPOL">      0.00000000      0.00000000      0.00000000</v>
   <v name="AVECCONST">      0.00000000      0.00000000      0.00000000</v>
  </separator>
  <separator name="response functions" >
   <i type="logical" name="LFINITE_TEMPERATURE"> F  </i>
   <i type="logical" name="LADDER"> F  </i>
   <i type="logical" name="LRPAFORCE"> F  </i>
   <i type="logical" name="LFXC"> F  </i>
   <i type="logical" name="LHARTREE"> T  </i>
   <i type="int" name="IBSE">     0</i>
   <v type="int" name="KPOINT">    -1     0     0     0</v>
   <i type="logical" name="LTCTC"> F  </i>
   <i type="logical" name="LTCTE"> F  </i>
   <i type="logical" name="LTETE"> F  </i>
   <i type="logical" name="LTRIPLET"> F  </i>
   <i type="logical" name="LFXCEPS"> F  </i>
   <i type="logical" name="LFXHEG"> F  </i>
   <i type="int" name="NATURALO">     2</i>
   <i type="logical" name="L2ORDER"> F  </i>
   <i type="logical" name="LDMP1"> F  </i>
   <i type="logical" name="LMP2LT"> F  </i>
   <i type="logical" name="LSMP2LT"> F  </i>
   <i type="logical" name="LUSEW"> F  </i>
   <i name="ENCUTGW">     -2.00000000</i>
   <i name="ENCUTGWSOFT">     -2.00000000</i>
   <i name="ENCUTLF">     -1.00000000</i>
   <i type="int" name="LMAXMP2">    -1</i>
   <i name="SCISSOR">      0.00000000</i>
   <i type="int" name="NOMEGA">     0</i>
   <i type="int" name="NOMEGAR">     0</i>
   <i type="int" name="NBANDSGW">    -1</i>
   <i type="int" name="NBANDSO">    -1</i>
   <i type="int" name="NBANDSV">    -1</i>
   <i type="int" name="NELM">     1</i>
   <i type="int" name="NELMHF">     1</i>
   <i type="int" name="DIM">     3</i>
   <i type="int" name="IESPILON">     4</i>
   <i type="int" name="ANTIRES">     0</i>
   <i name="OMEGAMAX">    -30.00000000</i>
   <i name="OMEGAMIN">    -30.00000000</i>
   <i name="OMEGATL">   -200.00000000</i>
   <i type="int" name="OMEGAGRID">   145</i>
   <i name="CSHIFT">     -0.10000000</i>
   <i type="logical" name="LSELFENERGY"> F  </i>
   <i type="logical" name="LSPECTRAL"> F  </i>
   <i type="logical" name="LSPECTRALGW"> F  </i>
   <i type="logical" name="LSINGLES"> F  </i>
   <i type="logical" name="LFERMIGW"> F  </i>
   <i type="logical" name="ODDONLYGW"> F  </i>
   <i type="logical" name="EVENONLYGW"> F  </i>
   <i type="int" name="NKREDLFX">     1</i>
   <i type="int" name="NKREDLFY">     1</i>
   <i type="int" name="NKREDLFZ">     1</i>
   <i type="int" name="MAXMEM">  2800</i>
   <i type="int" name="TELESCOPE">     0</i>
   <i type="int" name="NTAUPAR">     1</i>
   <i type="int" name="NOMEGAPAR">    -1</i>
   <i name="LAMBDA">      1.00000000</i>
  </separator>
  <separator name="External order field" >
   <i name="OFIELD_KAPPA">      0.00000000</i>
   <v name="OFIELD_K">      0.00000000      0.00000000      0.00000000</v>
   <i name="OFIELD_Q6_NEAR">      0.00000000</i>
   <i name="OFIELD_Q6_FAR">      0.00000000</i>
   <i name="OFIELD_A">      0.00000000</i>
  </separator>
 </parameters>
 <atominfo>
  <atoms>       3 </atoms>
  <types>       3 </types>
  <array name="atoms" >
   <dimension dim="1">ion</dimension>
   <field type="string">element</field>
   <field type="int">atomtype</field>
   <set>
    <rc><c>U </c><c>   1</c></rc>
    <rc><c>Bi</c><c>   2</c></rc>
    <rc><c>Pt</c><c>   3</c></rc>
   </set>
  </array>
  <array name="atomtypes" >
   <dimension dim="1">type</dimension>
   <field type="int">atomspertype</field>
   <field type="string">element</field>
   <field>mass</field>
   <field>valence</field>
   <field type="string">pseudopotential</field>
   <set>
    <rc><c>   1</c><c>U </c><c>    238.02900000</c><c>     14.00000000</c><c>  PAW_PBE U 06Sep2000                   </c></rc>
    <rc><c>   1</c><c>Bi</c><c>    208.98000000</c><c>     15.00000000</c><c>  PAW_PBE Bi_d 06Sep2000                </c></rc>
    <rc><c>   1</c><c>Pt</c><c>    195.08000000</c><c>     10.00000000</c><c>  PAW_PBE Pt 04Feb2005                  </c></rc>
   </set>
  </array>
 </atominfo>
 <structure name="initialpos" >
  <crystal>
   <varray name="basis" >
    <v>       0.00000000       3.20314717       3.20314717 </v>
    <v>       3.20314717       0.00000000       3.20314717 </v>
    <v>       3.20314717       3.20314717       0.00000000 </v>
   </varray>
   <i name="volume">     65.72955220 </i>
   <varray name="rec_basis" >
    <v>      -0.15609648       0.15609648       0.15609648 </v>
    <v>       0.15609648      -0.15609648       0.15609648 </v>
    <v>       0.15609648       0.15609648      -0.15609648 </v>
   </varray>
  </crystal>
  <varray name="positions" >
   <v>       0.25000000       0.25000000       0.25000000 </v>
   <v>       0.75000000       0.75000000       0.75000000 </v>
   <v>       0.00000000       0.00000000       0.00000000 </v>
  </varray>
 </structure>
 <calculation>
  <scstep>
   <time name="dav">    1.41    1.42</time>
   <time name="total">    1.56    1.66</time>
   <energy>
    <i name="alphaZ">    239.23462350 </i>
    <i name="ewald">  -3721.74899143 </i>
    <i name="hartreedc">   -731.20167031 </i>
    <i name="XCdc">     91.70004551 </i>
    <i name="pawpsdc">   3513.29252893 </i>
    <i name="pawaedc">  -3436.88002192 </i>
    <i name="eentropy">     -0.00003216 </i>
    <i name="bandstr">    387.47750099 </i>
    <i name="atom">   4095.35208632 </i>
    <i name="e_fr_energy">    437.22606942 </i>
    <i name="e_wo_entrp">    437.22610157 </i>
    <i name="e_0_energy">    437.22608550 </i>
   </energy>
  </scstep>
  <scstep>
   <time name="dav">    1.46    1.50</time>
   <time name="total">    1.47    1.50</time>
   <energy>
    <i name="e_fr_energy">     31.19391078 </i>
    <i name="e_wo_entrp">     31.19457303 </i>
    <i name="e_0_energy">     31.19424191 </i>
   </energy>
  </scstep>
  <scstep>
   <time name="dav">    1.64    1.66</time>
   <time name="total">    1.64    1.66</time>
   <energy>
    <i name="e_fr_energy">    -20.13862863 </i>
    <i name="e_wo_entrp">    -20.13819073 </i>
    <i name="e_0_energy">    -20.13840968 </i>
   </energy>
  </scstep>
  <scstep>
   <time name="dav">    2.28    2.32</time>
   <time name="total">    2.28    2.32</time>
   <energy>
    <i name="e_fr_energy">    -25.74073932 </i>
    <i name="e_wo_entrp">    -25.73982599 </i>
    <i name="e_0_energy">    -25.74028265 </i>
   </energy>
  </scstep>
  <scstep>
   <time name="dav">    1.70    1.73</time>
   <time name="total">    2.05    2.08</time>
   <energy>
    <i name="e_fr_energy">    -25.89816664 </i>
    <i name="e_wo_entrp">    -25.89734053 </i>
    <i name="e_0_energy">    -25.89775358 </i>
   </energy>
  </scstep>
  <scstep>
   <time name="dav">    1.92    1.92</time>
   <time name="total">    2.36    2.40</time>
   <energy>
    <i name="e_fr_energy">    -31.20850325 </i>
    <i name="e_wo_entrp">    -31.20824354 </i>
    <i name="e_0_energy">    -31.20837340 </i>
   </energy>
  </scstep>
  <scstep>
   <time name="dav">    1.82    1.82</time>
   <time name="total">    2.23    2.26</time>
   <energy>
    <i name="e_fr_energy">    -24.01261830 </i>
    <i name="e_wo_entrp">    -24.01185931 </i>
    <i name="e_0_energy">    -24.01223881 </i>
   </energy>
  </scstep>
  <scstep>
   <time name="dav">    1.85    1.85</time>
   <time name="total">    2.26    2.30</time>
   <energy>
    <i name="e_fr_energy">    -24.02549916 </i>
    <i name="e_wo_entrp">    -24.02427923 </i>
    <i name="e_0_energy">    -24.02488919 </i>
   </energy>
  </scstep>
  <scstep>
   <time name="dav">    1.92    1.92</time>
   <time name="total">    2.34    2.37</time>
   <energy>
    <i name="e_fr_energy">    -23.42188746 </i>
    <i name="e_wo_entrp">    -23.42035921 </i>
    <i name="e_0_energy">    -23.42112333 </i>
   </energy>
  </scstep>
  <scstep>
   <time name="dav">    1.93    1.93</time>
   <time name="total">    2.36    2.41</time>
   <energy>
    <i name="e_fr_energy">    -23.43149453 </i>
    <i name="e_wo_entrp">    -23.42995067 </i>
    <i name="e_0_energy">    -23.43072260 </i>
   </energy>
  </scstep>
  <scstep>
   <time name="dav">    1.93    1.93</time>
   <time name="total">    2.35    2.39</time>
   <energy>
    <i name="e_fr_energy">    -23.42332534 </i>
    <i name="e_wo_entrp">    -23.42182249 </i>
    <i name="e_0_energy">    -23.42257392 </i>
   </energy>
  </scstep>
  <scstep>
   <time name="dav">    2.05    2.05</time>
   <time name="total">    2.48    2.50</time>
   <energy>
    <i name="e_fr_energy">    -23.42305001 </i>
    <i name="e_wo_entrp">    -23.42152806 </i>
    <i name="e_0_energy">    -23.42228903 </i>
   </energy>
  </scstep>
  <scstep>
   <time name="dav">    1.93    1.93</time>
   <time name="total">    2.35    2.38</time>
   <energy>
    <i name="e_fr_energy">    -23.42306081 </i>
    <i name="e_wo_entrp">    -23.42153630 </i>
    <i name="e_0_energy">    -23.42229856 </i>
   </energy>
  </scstep>
  <scstep>
   <time name="dav">    1.83    1.83</time>
   <time name="total">    2.25    2.28</time>
   <energy>
    <i name="e_fr_energy">    -23.42302016 </i>
    <i name="e_wo_entrp">    -23.42149412 </i>
    <i name="e_0_energy">    -23.42225714 </i>
   </energy>
  </scstep>
  <scstep>
   <time name="dav">    1.91    1.91</time>
   <time name="total">    2.33    2.37</time>
   <energy>
    <i name="e_fr_energy">    -23.42301805 </i>
    <i name="e_wo_entrp">    -23.42149216 </i>
    <i name="e_0_energy">    -23.42225511 </i>
   </energy>
  </scstep>
  <scstep>
   <time name="dav">    1.92    1.92</time>
   <time name="total">    2.34    2.37</time>
   <energy>
    <i name="e_fr_energy">    -23.42301761 </i>
    <i name="e_wo_entrp">    -23.42149144 </i>
    <i name="e_0_energy">    -23.42225453 </i>
   </energy>
  </scstep>
  <scstep>
   <time name="dav">    1.53    1.53</time>
   <time name="total">    1.66    1.70</time>
   <energy>
    <i name="alphaZ">    239.23462350 </i>
    <i name="ewald">  -3721.74899143 </i>
    <i name="hartreedc">   -714.43101136 </i>
    <i name="XCdc">     91.20299109 </i>
    <i name="pawpsdc">   4508.04251861 </i>
    <i name="pawaedc">  -4442.84976960 </i>
    <i name="eentropy">     -0.00152631 </i>
    <i name="bandstr">    -78.22393834 </i>
    <i name="atom">   4095.35208632 </i>
    <i name="e_fr_energy">    -23.42301753 </i>
    <i name="e_wo_entrp">    -23.42149122 </i>
    <i name="e_0_energy">    -23.42225437 </i>
   </energy>
  </scstep>
  <structure>
   <crystal>
    <varray name="basis" >
     <v>       0.00000000       3.20314717       3.20314717 </v>
     <v>       3.20314717       0.00000000       3.20314717 </v>
     <v>       3.20314717       3.20314717       0.00000000 </v>
    </varray>
    <i name="volume">     65.72955220 </i>
    <varray name="rec_basis" >
     <v>      -0.15609648       0.15609648       0.15609648 </v>
     <v>       0.15609648      -0.15609648       0.15609648 </v>
     <v>       0.15609648       0.15609648      -0.15609648 </v>
    </varray>
   </crystal>
   <varray name="positions" >
    <v>       0.25000000       0.25000000       0.25000000 </v>
    <v>       0.75000000       0.75000000       0.75000000 </v>
    <v>       0.00000000       0.00000000       0.00000000 </v>
   </varray>
  </structure>
  <varray name="forces" >
   <v>       0.00000000       0.00000000       0.00000000 </v>
   <v>       0.00000000       0.00000000      -0.00000000 </v>
   <v>      -0.00000000      -0.00000000      -0.00000000 </v>
  </varray>
  <varray name="stress" >
   <v>     167.27915298      -0.00000000       0.00000000 </v>
   <v>       0.00000000     167.27915298      -0.00000000 </v>
   <v>      -0.00000000      -0.00000000     167.27915298 </v>
  </varray>
  <energy>
   <i name="e_fr_energy">    -23.42301753 </i>
   <i name="e_wo_entrp">    -23.42225437 </i>
   <i name="e_0_energy">     -0.00152631 </i>
  </energy>
  <time name="totalsc">   40.04   41.10</time>
  <eigenvalues>
   <array>
    <dimension dim="1">band</dimension>
    <dimension dim="2">kpoint</dimension>
    <dimension dim="3">spin</dimension>
    <field>eigene</field>
    <field>occ</field>
    <set>
     <set comment="spin 1">
      <set comment="kpoint 1">
       <r>  -32.4179    1.0000 </r>
       <r>  -11.5120    1.0000 </r>
       <r>  -11.5120    1.0000 </r>
       <r>  -11.4757    1.0000 </r>
       <r>  -11.4757    1.0000 </r>
       <r>  -11.4757    1.0000 </r>
       <r>   -7.8327    1.0000 </r>
       <r>   -7.8327    1.0000 </r>
       <r>   -7.8327    1.0000 </r>
       <r>   -1.5690    1.0000 </r>
       <r>    6.5161    1.0000 </r>
       <r>    6.5161    1.0000 </r>
       <r>    6.5161    1.0000 </r>
       <r>    6.6467    1.0000 </r>
       <r>    6.6467    1.0000 </r>
       <r>   10.2474    1.0000 </r>
       <r>   10.2474    1.0000 </r>
       <r>   10.2474    1.0000 </r>
       <r>   10.2960    1.0000 </r>
       <r>   11.4702    1.0000 </r>
       <r>   11.4702    1.0000 </r>
       <r>   11.4702    1.0000 </r>
       <r>   11.9249    0.0000 </r>
       <r>   11.9249    0.0000 </r>
      </set>
      <set comment="kpoint 2">
       <r>  -32.4173    1.0000 </r>
       <r>  -11.5149    1.0000 </r>
       <r>  -11.5149    1.0000 </r>
       <r>  -11.4763    1.0000 </r>
       <r>  -11.4754    1.0000 </r>
       <r>  -11.4754    1.0000 </r>
       <r>   -7.8575    1.0000 </r>
       <r>   -7.8261    1.0000 </r>
       <r>   -7.8261    1.0000 </r>
       <r>   -1.4773    1.0000 </r>
       <r>    6.3158    1.0000 </r>
       <r>    6.3158    1.0000 </r>
       <r>    6.3877    1.0000 </r>
       <r>    6.8353    1.0000 </r>
       <r>    6.8353    1.0000 </r>
       <r>    9.5691    1.0000 </r>
       <r>   10.1803    1.0000 </r>
       <r>   10.1803    1.0000 </r>
       <r>   10.6975    1.0000 </r>
       <r>   11.4840    1.0000 </r>
       <r>   11.4840    1.0000 </r>
       <r>   11.5481    1.0000 </r>
       <r>   11.9408    0.0000 </r>
       <r>   11.9944    0.0000 </r>
      </set>
      <set comment="kpoint 3">
       <r>  -32.4159    1.0000 </r>
       <r>  -11.5228    1.0000 </r>
       <r>  -11.5228    1.0000 </r>
       <r>  -11.4780    1.0000 </r>
       <r>  -11.4745    1.0000 </r>
       <r>  -11.4745    1.0000 </r>
       <r>   -7.9224    1.0000 </r>
       <r>   -7.8080    1.0000 </r>
       <r>   -7.8080    1.0000 </r>
       <r>   -1.2233    1.0000 </r>
       <r>    6.0539    1.0000 </r>
       <r>    6.0957    1.0000 </r>
       <r>    6.0957    1.0000 </r>
       <r>    7.0065    1.0000 </r>
       <r>    7.0065    1.0000 </r>
       <r>    8.8343    1.0000 </r>
       <r>   10.0432    1.0000 </r>
       <r>   10.0432    1.0000 </r>
       <r>   10.7230    1.0000 </r>
       <r>   11.5142    1.0000 </r>
       <r>   11.5142    1.0000 </r>
       <r>   11.8244    0.0000 </r>
       <r>   11.9310    0.0000 </r>
       <r>   12.1473    0.0000 </r>
      </set>
      <set comment="kpoint 4">
       <r>  -32.4139    1.0000 </r>
       <r>  -11.5340    1.0000 </r>
       <r>  -11.5340    1.0000 </r>
       <r>  -11.4809    1.0000 </r>
       <r>  -11.4732    1.0000 </r>
       <r>  -11.4732    1.0000 </r>
       <r>   -8.0054    1.0000 </r>
       <r>   -7.7826    1.0000 </r>
       <r>   -7.7826    1.0000 </r>
       <r>   -0.8648    1.0000 </r>
       <r>    5.6288    1.0000 </r>
       <r>    5.9350    1.0000 </r>
       <r>    5.9350    1.0000 </r>
       <r>    7.0568    1.0000 </r>
       <r>    7.0568    1.0000 </r>
       <r>    8.1868    1.0000 </r>
       <r>    9.9406    1.0000 </r>
       <r>    9.9406    1.0000 </r>
       <r>   10.6946    1.0000 </r>
       <r>   11.5541    1.0000 </r>
       <r>   11.5541    1.0000 </r>
       <r>   11.9376    0.0000 </r>
       <r>   12.0015    0.0000 </r>
       <r>   12.2567    0.0000 </r>
      </set>
      <set comment="kpoint 5">
       <r>  -32.4117    1.0000 </r>
       <r>  -11.5456    1.0000 </r>
       <r>  -11.5456    1.0000 </r>
       <r>  -11.4846    1.0000 </r>
       <r>  -11.4717    1.0000 </r>
       <r>  -11.4717    1.0000 </r>
       <r>   -8.0839    1.0000 </r>
       <r>   -7.7559    1.0000 </r>
       <r>   -7.7559    1.0000 </r>
       <r>   -0.4826    1.0000 </r>
       <r>    5.2265    1.0000 </r>
       <r>    5.8480    1.0000 </r>
       <r>    5.8480    1.0000 </r>
       <r>    6.9792    1.0000 </r>
       <r>    6.9792    1.0000 </r>
       <r>    7.6848    1.0000 </r>
       <r>    9.9155    1.0000 </r>
       <r>    9.9155    1.0000 </r>
       <r>   10.7279    1.0000 </r>
       <r>   11.6065    0.7690 </r>
       <r>   11.6065    0.7690 </r>
       <r>   11.9440    0.0000 </r>
       <r>   12.0964    0.0000 </r>
       <r>   12.2423    0.0000 </r>
      </set>
      <set comment="kpoint 6">
       <r>  -32.4099    1.0000 </r>
       <r>  -11.5551    1.0000 </r>
       <r>  -11.5551    1.0000 </r>
       <r>  -11.4882    1.0000 </r>
       <r>  -11.4705    1.0000 </r>
       <r>  -11.4705    1.0000 </r>
       <r>   -8.1422    1.0000 </r>
       <r>   -7.7339    1.0000 </r>
       <r>   -7.7339    1.0000 </r>
       <r>   -0.1650    1.0000 </r>
       <r>    4.9294    1.0000 </r>
       <r>    5.8276    1.0000 </r>
       <r>    5.8276    1.0000 </r>
       <r>    6.8347    1.0000 </r>
       <r>    6.8347    1.0000 </r>
       <r>    7.3471    1.0000 </r>
       <r>    9.9407    1.0000 </r>
       <r>    9.9407    1.0000 </r>
       <r>   10.8127    1.0000 </r>
       <r>   11.6706    0.0000 </r>
       <r>   11.6706    0.0000 </r>
       <r>   11.9496    0.0000 </r>
       <r>   12.1528    0.0000 </r>
       <r>   12.1632    0.0000 </r>
      </set>
      <set comment="kpoint 7">
       <r>  -32.4089    1.0000 </r>
       <r>  -11.5605    1.0000 </r>
       <r>  -11.5605    1.0000 </r>
       <r>  -11.4905    1.0000 </r>
       <r>  -11.4698    1.0000 </r>
       <r>  -11.4698    1.0000 </r>
       <r>   -8.1727    1.0000 </r>
       <r>   -7.7216    1.0000 </r>
       <r>   -7.7216    1.0000 </r>
       <r>    0.0141    1.0000 </r>
       <r>    4.7768    1.0000 </r>
       <r>    5.8407    1.0000 </r>
       <r>    5.8407    1.0000 </r>
       <r>    6.7205    1.0000 </r>
       <r>    6.7205    1.0000 </r>
       <r>    7.1777    1.0000 </r>
       <r>    9.9679    1.0000 </r>
       <r>    9.9679    1.0000 </r>
       <r>   10.8916    1.0000 </r>
       <r>   11.7280    0.0000 </r>
       <r>   11.7280    0.0000 </r>
       <r>   11.9527    0.0000 </r>
       <r>   12.0700    0.0000 </r>
       <r>   12.0700    0.0000 </r>
      </set>
      <set comment="kpoint 8">
       <r>  -32.4172    1.0000 </r>
       <r>  -11.5198    1.0000 </r>
       <r>  -11.5113    1.0000 </r>
       <r>  -11.4765    1.0000 </r>
       <r>  -11.4753    1.0000 </r>
       <r>  -11.4753    1.0000 </r>
       <r>   -7.8455    1.0000 </r>
       <r>   -7.8343    1.0000 </r>
       <r>   -7.8343    1.0000 </r>
       <r>   -1.4487    1.0000 </r>
       <r>    6.0274    1.0000 </r>
       <r>    6.5280    1.0000 </r>
       <r>    6.5280    1.0000 </r>
       <r>    6.6608    1.0000 </r>
       <r>    6.8994    1.0000 </r>
       <r>    9.5664    1.0000 </r>
       <r>   10.0694    1.0000 </r>
       <r>   10.0694    1.0000 </r>
       <r>   10.8297    1.0000 </r>
       <r>   11.4587    1.0000 </r>
       <r>   11.5272    1.0000 </r>
       <r>   11.5272    1.0000 </r>
       <r>   11.9382    0.0000 </r>
       <r>   12.0116    0.0000 </r>
      </set>
      <set comment="kpoint 9">
       <r>  -32.4160    1.0000 </r>
       <r>  -11.5286    1.0000 </r>
       <r>  -11.5136    1.0000 </r>
       <r>  -11.4778    1.0000 </r>
       <r>  -11.4746    1.0000 </r>
       <r>  -11.4745    1.0000 </r>
       <r>   -7.8952    1.0000 </r>
       <r>   -7.8292    1.0000 </r>
       <r>   -7.8142    1.0000 </r>
       <r>   -1.2552    1.0000 </r>
       <r>    5.7180    1.0000 </r>
       <r>    6.3679    1.0000 </r>
       <r>    6.3821    1.0000 </r>
       <r>    6.8195    1.0000 </r>
       <r>    7.0332    1.0000 </r>
       <r>    9.0571    1.0000 </r>
       <r>    9.9208    1.0000 </r>
       <r>    9.9298    1.0000 </r>
       <r>   10.8801    1.0000 </r>
       <r>   11.4827    1.0000 </r>
       <r>   11.5558    1.0000 </r>
       <r>   11.7311    0.0000 </r>
       <r>   11.9455    0.0000 </r>
       <r>   12.1246    0.0000 </r>
      </set>
      <set comment="kpoint 10">
       <r>  -32.4142    1.0000 </r>
       <r>  -11.5391    1.0000 </r>
       <r>  -11.5213    1.0000 </r>
       <r>  -11.4801    1.0000 </r>
       <r>  -11.4737    1.0000 </r>
       <r>  -11.4731    1.0000 </r>
       <r>   -7.9728    1.0000 </r>
       <r>   -7.8122    1.0000 </r>
       <r>   -7.7865    1.0000 </r>
       <r>   -0.9431    1.0000 </r>
       <r>    5.4347    1.0000 </r>
       <r>    6.0968    1.0000 </r>
       <r>    6.1996    1.0000 </r>
       <r>    6.9117    1.0000 </r>
       <r>    7.1372    1.0000 </r>
       <r>    8.4464    1.0000 </r>
       <r>    9.7932    1.0000 </r>
       <r>    9.8295    1.0000 </r>
       <r>   10.8490    1.0000 </r>
       <r>   11.5237    1.0000 </r>
       <r>   11.5770    1.0000 </r>
       <r>   11.9406    0.0000 </r>
       <r>   11.9497    0.0000 </r>
       <r>   12.2278    0.0000 </r>
      </set>
      <set comment="kpoint 11">
       <r>  -32.4121    1.0000 </r>
       <r>  -11.5489    1.0000 </r>
       <r>  -11.5325    1.0000 </r>
       <r>  -11.4832    1.0000 </r>
       <r>  -11.4726    1.0000 </r>
       <r>  -11.4715    1.0000 </r>
       <r>   -8.0527    1.0000 </r>
       <r>   -7.7872    1.0000 </r>
       <r>   -7.7606    1.0000 </r>
       <r>   -0.5864    1.0000 </r>
       <r>    5.1826    1.0000 </r>
       <r>    5.8601    1.0000 </r>
       <r>    6.0825    1.0000 </r>
       <r>    6.8739    1.0000 </r>
       <r>    7.1296    1.0000 </r>
       <r>    7.9061    1.0000 </r>
       <r>    9.7298    1.0000 </r>
       <r>    9.8272    1.0000 </r>
       <r>   10.8348    1.0000 </r>
       <r>   11.5880    0.9996 </r>
       <r>   11.6082    0.6885 </r>
       <r>   11.9535    0.0000 </r>
       <r>   12.0428    0.0000 </r>
       <r>   12.2372    0.0000 </r>
      </set>
      <set comment="kpoint 12">
       <r>  -32.4102    1.0000 </r>
       <r>  -11.5559    1.0000 </r>
       <r>  -11.5443    1.0000 </r>
       <r>  -11.4866    1.0000 </r>
       <r>  -11.4715    1.0000 </r>
       <r>  -11.4702    1.0000 </r>
       <r>   -8.1170    1.0000 </r>
       <r>   -7.7601    1.0000 </r>
       <r>   -7.7423    1.0000 </r>
       <r>   -0.2687    1.0000 </r>
       <r>    4.9813    1.0000 </r>
       <r>    5.7530    1.0000 </r>
       <r>    6.0038    1.0000 </r>
       <r>    6.7703    1.0000 </r>
       <r>    7.0201    1.0000 </r>
       <r>    7.4995    1.0000 </r>
       <r>    9.7395    1.0000 </r>
       <r>    9.8750    1.0000 </r>
       <r>   10.8716    1.0000 </r>
       <r>   11.6572    0.0000 </r>
       <r>   11.6592    0.0000 </r>
       <r>   11.9548    0.0000 </r>
       <r>   12.0839    0.0000 </r>
       <r>   12.1961    0.0000 </r>
      </set>
      <set comment="kpoint 13">
       <r>  -32.4090    1.0000 </r>
       <r>  -11.5585    1.0000 </r>
       <r>  -11.5542    1.0000 </r>
       <r>  -11.4892    1.0000 </r>
       <r>  -11.4707    1.0000 </r>
       <r>  -11.4695    1.0000 </r>
       <r>   -8.1558    1.0000 </r>
       <r>   -7.7370    1.0000 </r>
       <r>   -7.7356    1.0000 </r>
       <r>   -0.0612    1.0000 </r>
       <r>    4.8620    1.0000 </r>
       <r>    5.7681    1.0000 </r>
       <r>    5.9209    1.0000 </r>
       <r>    6.7137    1.0000 </r>
       <r>    6.8689    1.0000 </r>
       <r>    7.2567    1.0000 </r>
       <r>    9.7746    1.0000 </r>
       <r>    9.9163    1.0000 </r>
       <r>   10.9365    1.0000 </r>
       <r>   11.7188    0.0000 </r>
       <r>   11.7191    0.0000 </r>
       <r>   11.9490    0.0000 </r>
       <r>   12.0597    0.0000 </r>
       <r>   12.1388    0.0000 </r>
      </set>
      <set comment="kpoint 14">
       <r>  -32.4086    1.0000 </r>
       <r>  -11.5600    1.0000 </r>
       <r>  -11.5563    1.0000 </r>
       <r>  -11.4899    1.0000 </r>
       <r>  -11.4703    1.0000 </r>
       <r>  -11.4695    1.0000 </r>
       <r>   -8.1654    1.0000 </r>
       <r>   -7.7417    1.0000 </r>
       <r>   -7.7229    1.0000 </r>
       <r>   -0.0048    1.0000 </r>
       <r>    4.8323    1.0000 </r>
       <r>    5.8103    1.0000 </r>
       <r>    5.8583    1.0000 </r>
       <r>    6.7504    1.0000 </r>
       <r>    6.7743    1.0000 </r>
       <r>    7.1968    1.0000 </r>
       <r>    9.7840    1.0000 </r>
       <r>    9.9245    1.0000 </r>
       <r>   10.9646    1.0000 </r>
       <r>   11.7261    0.0000 </r>
       <r>   11.7585    0.0000 </r>
       <r>   11.9370    0.0000 </r>
       <r>   12.0671    0.0000 </r>
       <r>   12.0797    0.0000 </r>
      </set>
      <set comment="kpoint 15">
       <r>  -32.4093    1.0000 </r>
       <r>  -11.5605    1.0000 </r>
       <r>  -11.5497    1.0000 </r>
       <r>  -11.4884    1.0000 </r>
       <r>  -11.4705    1.0000 </r>
       <r>  -11.4702    1.0000 </r>
       <r>   -8.1453    1.0000 </r>
       <r>   -7.7589    1.0000 </r>
       <r>   -7.7211    1.0000 </r>
       <r>   -0.1100    1.0000 </r>
       <r>    4.8960    1.0000 </r>
       <r>    5.7108    1.0000 </r>
       <r>    5.9683    1.0000 </r>
       <r>    6.7264    1.0000 </r>
       <r>    6.9236    1.0000 </r>
       <r>    7.3222    1.0000 </r>
       <r>    9.7397    1.0000 </r>
       <r>    9.9084    1.0000 </r>
       <r>   10.9241    1.0000 </r>
       <r>   11.6805    0.0000 </r>
       <r>   11.7221    0.0000 </r>
       <r>   11.9442    0.0000 </r>
       <r>   12.1031    0.0000 </r>
       <r>   12.1232    0.0000 </r>
      </set>
      <set comment="kpoint 16">
       <r>  -32.4108    1.0000 </r>
       <r>  -11.5555    1.0000 </r>
       <r>  -11.5401    1.0000 </r>
       <r>  -11.4853    1.0000 </r>
       <r>  -11.4714    1.0000 </r>
       <r>  -11.4713    1.0000 </r>
       <r>   -8.0972    1.0000 </r>
       <r>   -7.7834    1.0000 </r>
       <r>   -7.7320    1.0000 </r>
       <r>   -0.3587    1.0000 </r>
       <r>    5.0714    1.0000 </r>
       <r>    5.6702    1.0000 </r>
       <r>    6.0765    1.0000 </r>
       <r>    6.7956    1.0000 </r>
       <r>    7.0876    1.0000 </r>
       <r>    7.6201    1.0000 </r>
       <r>    9.6525    1.0000 </r>
       <r>    9.9020    1.0000 </r>
       <r>   10.8638    1.0000 </r>
       <r>   11.6284    0.0090 </r>
       <r>   11.6480    0.0000 </r>
       <r>   11.9497    0.0000 </r>
       <r>   12.0997    0.0000 </r>
       <r>   12.1750    0.0000 </r>
      </set>
      <set comment="kpoint 17">
       <r>  -32.4128    1.0000 </r>
       <r>  -11.5463    1.0000 </r>
       <r>  -11.5295    1.0000 </r>
       <r>  -11.4819    1.0000 </r>
       <r>  -11.4728    1.0000 </r>
       <r>  -11.4725    1.0000 </r>
       <r>   -8.0272    1.0000 </r>
       <r>   -7.8093    1.0000 </r>
       <r>   -7.7533    1.0000 </r>
       <r>   -0.6991    1.0000 </r>
       <r>    5.3574    1.0000 </r>
       <r>    5.7135    1.0000 </r>
       <r>    6.2132    1.0000 </r>
       <r>    6.8691    1.0000 </r>
       <r>    7.1881    1.0000 </r>
       <r>    8.0722    1.0000 </r>
       <r>    9.5794    1.0000 </r>
       <r>    9.9475    1.0000 </r>
       <r>   10.8373    1.0000 </r>
       <r>   11.5738    1.0000 </r>
       <r>   11.5896    0.9991 </r>
       <r>   11.9473    0.0000 </r>
       <r>   12.0285    0.0000 </r>
       <r>   12.2275    0.0000 </r>
      </set>
      <set comment="kpoint 18">
       <r>  -32.4149    1.0000 </r>
       <r>  -11.5347    1.0000 </r>
       <r>  -11.5203    1.0000 </r>
       <r>  -11.4790    1.0000 </r>
       <r>  -11.4741    1.0000 </r>
       <r>  -11.4738    1.0000 </r>
       <r>   -7.9485    1.0000 </r>
       <r>   -7.8297    1.0000 </r>
       <r>   -7.7802    1.0000 </r>
       <r>   -1.0520    1.0000 </r>
       <r>    5.7078    1.0000 </r>
       <r>    5.8460    1.0000 </r>
       <r>    6.3992    1.0000 </r>
       <r>    6.8483    1.0000 </r>
       <r>    7.1718    1.0000 </r>
       <r>    8.6382    1.0000 </r>
       <r>    9.6120    1.0000 </r>
       <r>   10.0560    1.0000 </r>
       <r>   10.8528    1.0000 </r>
       <r>   11.5100    1.0000 </r>
       <r>   11.5618    1.0000 </r>
       <r>   11.9058    0.0000 </r>
       <r>   11.9417    0.0000 </r>
       <r>   12.1890    0.0000 </r>
      </set>
      <set comment="kpoint 19">
       <r>  -32.4165    1.0000 </r>
       <r>  -11.5233    1.0000 </r>
       <r>  -11.5150    1.0000 </r>
       <r>  -11.4771    1.0000 </r>
       <r>  -11.4750    1.0000 </r>
       <r>  -11.4749    1.0000 </r>
       <r>   -7.8845    1.0000 </r>
       <r>   -7.8364    1.0000 </r>
       <r>   -7.8065    1.0000 </r>
       <r>   -1.3336    1.0000 </r>
       <r>    6.0564    1.0000 </r>
       <r>    6.0576    1.0000 </r>
       <r>    6.5387    1.0000 </r>
       <r>    6.7592    1.0000 </r>
       <r>    7.0395    1.0000 </r>
       <r>    9.1954    1.0000 </r>
       <r>    9.8481    1.0000 </r>
       <r>   10.1676    1.0000 </r>
       <r>   10.8411    1.0000 </r>
       <r>   11.4717    1.0000 </r>
       <r>   11.5281    1.0000 </r>
       <r>   11.6987    0.0000 </r>
       <r>   11.9344    0.0000 </r>
       <r>   12.0734    0.0000 </r>
      </set>
      <set comment="kpoint 20">
       <r>  -32.4153    1.0000 </r>
       <r>  -11.5360    1.0000 </r>
       <r>  -11.5094    1.0000 </r>
       <r>  -11.4790    1.0000 </r>
       <r>  -11.4739    1.0000 </r>
       <r>  -11.4739    1.0000 </r>
       <r>   -7.8818    1.0000 </r>
       <r>   -7.8390    1.0000 </r>
       <r>   -7.8390    1.0000 </r>
       <r>   -1.1414    1.0000 </r>
       <r>    5.3817    1.0000 </r>
       <r>    6.5434    1.0000 </r>
       <r>    6.5434    1.0000 </r>
       <r>    6.7005    1.0000 </r>
       <r>    6.9659    1.0000 </r>
       <r>    9.0269    1.0000 </r>
       <r>    9.7753    1.0000 </r>
       <r>    9.7753    1.0000 </r>
       <r>   10.8766    1.0000 </r>
       <r>   11.5879    0.9996 </r>
       <r>   11.5879    0.9996 </r>
       <r>   11.6815    0.0000 </r>
       <r>   11.9785    0.0000 </r>
       <r>   12.1863    0.0000 </r>
      </set>
      <set comment="kpoint 21">
       <r>  -32.4138    1.0000 </r>
       <r>  -11.5433    1.0000 </r>
       <r>  -11.5114    1.0000 </r>
       <r>  -11.4809    1.0000 </r>
       <r>  -11.4730    1.0000 </r>
       <r>  -11.4726    1.0000 </r>
       <r>   -7.9392    1.0000 </r>
       <r>   -7.8352    1.0000 </r>
       <r>   -7.8189    1.0000 </r>
       <r>   -0.9157    1.0000 </r>
       <r>    5.1251    1.0000 </r>
       <r>    6.3749    1.0000 </r>
       <r>    6.4374    1.0000 </r>
       <r>    6.7875    1.0000 </r>
       <r>    7.0305    1.0000 </r>
       <r>    8.6979    1.0000 </r>
       <r>    9.6071    1.0000 </r>
       <r>    9.6953    1.0000 </r>
       <r>   10.9114    1.0000 </r>
       <r>   11.5572    1.0000 </r>
       <r>   11.6060    0.7892 </r>
       <r>   11.8535    0.0000 </r>
       <r>   11.9945    0.0000 </r>
       <r>   12.2602    0.0000 </r>
      </set>
      <set comment="kpoint 22">
       <r>  -32.4119    1.0000 </r>
       <r>  -11.5489    1.0000 </r>
       <r>  -11.5191    1.0000 </r>
       <r>  -11.4831    1.0000 </r>
       <r>  -11.4724    1.0000 </r>
       <r>  -11.4710    1.0000 </r>
       <r>   -8.0140    1.0000 </r>
       <r>   -7.8187    1.0000 </r>
       <r>   -7.7938    1.0000 </r>
       <r>   -0.6400    1.0000 </r>
       <r>    4.9816    1.0000 </r>
       <r>    6.0899    1.0000 </r>
       <r>    6.3127    1.0000 </r>
       <r>    6.7973    1.0000 </r>
       <r>    7.1090    1.0000 </r>
       <r>    8.2483    1.0000 </r>
       <r>    9.4508    1.0000 </r>
       <r>    9.7094    1.0000 </r>
       <r>   10.9648    1.0000 </r>
       <r>   11.5784    1.0000 </r>
       <r>   11.6271    0.0147 </r>
       <r>   11.9581    0.0000 </r>
       <r>   11.9962    0.0000 </r>
       <r>   12.2714    0.0000 </r>
      </set>
      <set comment="kpoint 23">
       <r>  -32.4101    1.0000 </r>
       <r>  -11.5515    1.0000 </r>
       <r>  -11.5304    1.0000 </r>
       <r>  -11.4853    1.0000 </r>
       <r>  -11.4721    1.0000 </r>
       <r>  -11.4696    1.0000 </r>
       <r>   -8.0784    1.0000 </r>
       <r>   -7.7935    1.0000 </r>
       <r>   -7.7790    1.0000 </r>
       <r>   -0.3842    1.0000 </r>
       <r>    4.9585    1.0000 </r>
       <r>    5.8675    1.0000 </r>
       <r>    6.1879    1.0000 </r>
       <r>    6.7517    1.0000 </r>
       <r>    7.1022    1.0000 </r>
       <r>    7.8073    1.0000 </r>
       <r>    9.3885    1.0000 </r>
       <r>    9.7717    1.0000 </r>
       <r>   10.9899    1.0000 </r>
       <r>   11.6426    0.0000 </r>
       <r>   11.6640    0.0000 </r>
       <r>   11.9897    0.0000 </r>
       <r>   12.0019    0.0000 </r>
       <r>   12.2395    0.0000 </r>
      </set>
      <set comment="kpoint 24">
       <r>  -32.4087    1.0000 </r>
       <r>  -11.5506    1.0000 </r>
       <r>  -11.5425    1.0000 </r>
       <r>  -11.4872    1.0000 </r>
       <r>  -11.4719    1.0000 </r>
       <r>  -11.4688    1.0000 </r>
       <r>   -8.1206    1.0000 </r>
       <r>   -7.7780    1.0000 </r>
       <r>   -7.7653    1.0000 </r>
       <r>   -0.2013    1.0000 </r>
       <r>    5.0133    1.0000 </r>
       <r>    5.7695    1.0000 </r>
       <r>    6.0252    1.0000 </r>
       <r>    6.7580    1.0000 </r>
       <r>    7.0138    1.0000 </r>
       <r>    7.4779    1.0000 </r>
       <r>    9.3858    1.0000 </r>
       <r>    9.8175    1.0000 </r>
       <r>   11.0290    1.0000 </r>
       <r>   11.6971    0.0000 </r>
       <r>   11.7206    0.0000 </r>
       <r>   11.9717    0.0000 </r>
       <r>   12.0241    0.0000 </r>
       <r>   12.2102    0.0000 </r>
      </set>
      <set comment="kpoint 25">
       <r>  -32.4081    1.0000 </r>
       <r>  -11.5529    1.0000 </r>
       <r>  -11.5468    1.0000 </r>
       <r>  -11.4878    1.0000 </r>
       <r>  -11.4718    1.0000 </r>
       <r>  -11.4687    1.0000 </r>
       <r>   -8.1358    1.0000 </r>
       <r>   -7.7902    1.0000 </r>
       <r>   -7.7405    1.0000 </r>
       <r>   -0.1152    1.0000 </r>
       <r>    5.0529    1.0000 </r>
       <r>    5.8107    1.0000 </r>
       <r>    5.8369    1.0000 </r>
       <r>    6.8563    1.0000 </r>
       <r>    6.8861    1.0000 </r>
       <r>    7.3421    1.0000 </r>
       <r>    9.3800    1.0000 </r>
       <r>    9.8208    1.0000 </r>
       <r>   11.0694    1.0000 </r>
       <r>   11.7016    0.0000 </r>
       <r>   11.7847    0.0000 </r>
       <r>   11.9346    0.0000 </r>
       <r>   12.0622    0.0000 </r>
       <r>   12.1472    0.0000 </r>
      </set>
      <set comment="kpoint 26">
       <r>  -32.4085    1.0000 </r>
       <r>  -11.5592    1.0000 </r>
       <r>  -11.5408    1.0000 </r>
       <r>  -11.4867    1.0000 </r>
       <r>  -11.4719    1.0000 </r>
       <r>  -11.4694    1.0000 </r>
       <r>   -8.1241    1.0000 </r>
       <r>   -7.8117    1.0000 </r>
       <r>   -7.7245    1.0000 </r>
       <r>   -0.1347    1.0000 </r>
       <r>    5.0334    1.0000 </r>
       <r>    5.6744    1.0000 </r>
       <r>    5.9561    1.0000 </r>
       <r>    6.7838    1.0000 </r>
       <r>    7.0141    1.0000 </r>
       <r>    7.4304    1.0000 </r>
       <r>    9.3190    1.0000 </r>
       <r>    9.8000    1.0000 </r>
       <r>   11.0703    1.0000 </r>
       <r>   11.6655    0.0000 </r>
       <r>   11.7979    0.0000 </r>
       <r>   11.9158    0.0000 </r>
       <r>   12.1017    0.0000 </r>
       <r>   12.1160    0.0000 </r>
      </set>
      <set comment="kpoint 27">
       <r>  -32.4096    1.0000 </r>
       <r>  -11.5602    1.0000 </r>
       <r>  -11.5337    1.0000 </r>
       <r>  -11.4844    1.0000 </r>
       <r>  -11.4722    1.0000 </r>
       <r>  -11.4706    1.0000 </r>
       <r>   -8.0886    1.0000 </r>
       <r>   -7.8357    1.0000 </r>
       <r>   -7.7211    1.0000 </r>
       <r>   -0.2662    1.0000 </r>
       <r>    5.0281    1.0000 </r>
       <r>    5.5786    1.0000 </r>
       <r>    6.1492    1.0000 </r>
       <r>    6.7415    1.0000 </r>
       <r>    7.1744    1.0000 </r>
       <r>    7.7051    1.0000 </r>
       <r>    9.1945    1.0000 </r>
       <r>    9.7972    1.0000 </r>
       <r>   11.0362    1.0000 </r>
       <r>   11.6292    0.0065 </r>
       <r>   11.7279    0.0000 </r>
       <r>   11.9444    0.0000 </r>
       <r>   12.0881    0.0000 </r>
       <r>   12.1361    0.0000 </r>
      </set>
      <set comment="kpoint 28">
       <r>  -32.4113    1.0000 </r>
       <r>  -11.5556    1.0000 </r>
       <r>  -11.5268    1.0000 </r>
       <r>  -11.4821    1.0000 </r>
       <r>  -11.4726    1.0000 </r>
       <r>  -11.4720    1.0000 </r>
       <r>   -8.0369    1.0000 </r>
       <r>   -7.8532    1.0000 </r>
       <r>   -7.7311    1.0000 </r>
       <r>   -0.4995    1.0000 </r>
       <r>    5.1324    1.0000 </r>
       <r>    5.5725    1.0000 </r>
       <r>    6.3537    1.0000 </r>
       <r>    6.7323    1.0000 </r>
       <r>    7.2744    1.0000 </r>
       <r>    8.0977    1.0000 </r>
       <r>    9.0706    1.0000 </r>
       <r>    9.8521    1.0000 </r>
       <r>   10.9971    1.0000 </r>
       <r>   11.6068    0.7519 </r>
       <r>   11.6424    0.0000 </r>
       <r>   11.9577    0.0000 </r>
       <r>   12.0461    0.0000 </r>
       <r>   12.1828    0.0000 </r>
      </set>
      <set comment="kpoint 29">
       <r>  -32.4132    1.0000 </r>
       <r>  -11.5465    1.0000 </r>
       <r>  -11.5219    1.0000 </r>
       <r>  -11.4803    1.0000 </r>
       <r>  -11.4732    1.0000 </r>
       <r>  -11.4731    1.0000 </r>
       <r>   -7.9847    1.0000 </r>
       <r>   -7.8527    1.0000 </r>
       <r>   -7.7524    1.0000 </r>
       <r>   -0.7866    1.0000 </r>
       <r>    5.3732    1.0000 </r>
       <r>    5.6639    1.0000 </r>
       <r>    6.5219    1.0000 </r>
       <r>    6.7107    1.0000 </r>
       <r>    7.2727    1.0000 </r>
       <r>    8.4591    1.0000 </r>
       <r>    9.1510    1.0000 </r>
       <r>    9.9621    1.0000 </r>
       <r>   10.9537    1.0000 </r>
       <r>   11.5622    1.0000 </r>
       <r>   11.5903    0.9987 </r>
       <r>   11.9545    0.0000 </r>
       <r>   11.9852    0.0000 </r>
       <r>   12.2116    0.0000 </r>
      </set>
      <set comment="kpoint 30">
       <r>  -32.4127    1.0000 </r>
       <r>  -11.5456    1.0000 </r>
       <r>  -11.5067    1.0000 </r>
       <r>  -11.4828    1.0000 </r>
       <r>  -11.4716    1.0000 </r>
       <r>  -11.4716    1.0000 </r>
       <r>   -7.9362    1.0000 </r>
       <r>   -7.8462    1.0000 </r>
       <r>   -7.8462    1.0000 </r>
       <r>   -0.8010    1.0000 </r>
       <r>    4.9234    1.0000 </r>
       <r>    6.5184    1.0000 </r>
       <r>    6.5184    1.0000 </r>
       <r>    6.7578    1.0000 </r>
       <r>    6.8404    1.0000 </r>
       <r>    8.6700    1.0000 </r>
       <r>    9.6253    1.0000 </r>
       <r>    9.6253    1.0000 </r>
       <r>   10.8471    1.0000 </r>
       <r>   11.6258    0.0227 </r>
       <r>   11.6258    0.0227 </r>
       <r>   11.8108    0.0000 </r>
       <r>   12.0463    0.0000 </r>
       <r>   12.3329    0.0000 </r>
      </set>
      <set comment="kpoint 31">
       <r>  -32.4112    1.0000 </r>
       <r>  -11.5453    1.0000 </r>
       <r>  -11.5086    1.0000 </r>
       <r>  -11.4848    1.0000 </r>
       <r>  -11.4707    1.0000 </r>
       <r>  -11.4701    1.0000 </r>
       <r>   -7.9875    1.0000 </r>
       <r>   -7.8430    1.0000 </r>
       <r>   -7.8359    1.0000 </r>
       <r>   -0.6429    1.0000 </r>
       <r>    4.8752    1.0000 </r>
       <r>    6.3096    1.0000 </r>
       <r>    6.4416    1.0000 </r>
       <r>    6.7858    1.0000 </r>
       <r>    6.8914    1.0000 </r>
       <r>    8.4451    1.0000 </r>
       <r>    9.4845    1.0000 </r>
       <r>    9.6503    1.0000 </r>
       <r>   10.9569    1.0000 </r>
       <r>   11.6084    0.6788 </r>
       <r>   11.6445    0.0000 </r>
       <r>   11.8671    0.0000 </r>
       <r>   12.0696    0.0000 </r>
       <r>   12.3445    0.0000 </r>
      </set>
      <set comment="kpoint 32">
       <r>  -32.4096    1.0000 </r>
       <r>  -11.5425    1.0000 </r>
       <r>  -11.5164    1.0000 </r>
       <r>  -11.4862    1.0000 </r>
       <r>  -11.4706    1.0000 </r>
       <r>  -11.4686    1.0000 </r>
       <r>   -8.0440    1.0000 </r>
       <r>   -7.8263    1.0000 </r>
       <r>   -7.8262    1.0000 </r>
       <r>   -0.4881    1.0000 </r>
       <r>    4.9850    1.0000 </r>
       <r>    6.0411    1.0000 </r>
       <r>    6.3101    1.0000 </r>
       <r>    6.7903    1.0000 </r>
       <r>    6.9873    1.0000 </r>
       <r>    8.1193    1.0000 </r>
       <r>    9.2635    1.0000 </r>
       <r>    9.7202    1.0000 </r>
       <r>   11.0781    1.0000 </r>
       <r>   11.6200    0.1196 </r>
       <r>   11.6739    0.0000 </r>
       <r>   11.9180    0.0000 </r>
       <r>   12.0640    0.0000 </r>
       <r>   12.2976    0.0000 </r>
      </set>
      <set comment="kpoint 33">
       <r>  -32.4083    1.0000 </r>
       <r>  -11.5382    1.0000 </r>
       <r>  -11.5280    1.0000 </r>
       <r>  -11.4868    1.0000 </r>
       <r>  -11.4714    1.0000 </r>
       <r>  -11.4677    1.0000 </r>
       <r>   -8.0818    1.0000 </r>
       <r>   -7.8315    1.0000 </r>
       <r>   -7.8000    1.0000 </r>
       <r>   -0.3651    1.0000 </r>
       <r>    5.1987    1.0000 </r>
       <r>    5.8642    1.0000 </r>
       <r>    6.1241    1.0000 </r>
       <r>    6.8318    1.0000 </r>
       <r>    7.0131    1.0000 </r>
       <r>    7.7817    1.0000 </r>
       <r>    9.1022    1.0000 </r>
       <r>    9.7600    1.0000 </r>
       <r>   11.1292    1.0000 </r>
       <r>   11.6607    0.0000 </r>
       <r>   11.7207    0.0000 </r>
       <r>   11.9686    0.0000 </r>
       <r>   12.0367    0.0000 </r>
       <r>   12.2399    0.0000 </r>
      </set>
      <set comment="kpoint 34">
       <r>  -32.4076    1.0000 </r>
       <r>  -11.5407    1.0000 </r>
       <r>  -11.5336    1.0000 </r>
       <r>  -11.4860    1.0000 </r>
       <r>  -11.4728    1.0000 </r>
       <r>  -11.4676    1.0000 </r>
       <r>   -8.0946    1.0000 </r>
       <r>   -7.8515    1.0000 </r>
       <r>   -7.7701    1.0000 </r>
       <r>   -0.2800    1.0000 </r>
       <r>    5.3830    1.0000 </r>
       <r>    5.8009    1.0000 </r>
       <r>    5.9109    1.0000 </r>
       <r>    6.9352    1.0000 </r>
       <r>    6.9499    1.0000 </r>
       <r>    7.5837    1.0000 </r>
       <r>    8.9912    1.0000 </r>
       <r>    9.7429    1.0000 </r>
       <r>   11.1661    1.0000 </r>
       <r>   11.6608    0.0000 </r>
       <r>   11.7813    0.0000 </r>
       <r>   11.9865    0.0000 </r>
       <r>   12.0439    0.0000 </r>
       <r>   12.1927    0.0000 </r>
      </set>
      <set comment="kpoint 35">
       <r>  -32.4076    1.0000 </r>
       <r>  -11.5516    1.0000 </r>
       <r>  -11.5299    1.0000 </r>
       <r>  -11.4839    1.0000 </r>
       <r>  -11.4742    1.0000 </r>
       <r>  -11.4683    1.0000 </r>
       <r>   -8.0844    1.0000 </r>
       <r>   -7.8785    1.0000 </r>
       <r>   -7.7433    1.0000 </r>
       <r>   -0.2348    1.0000 </r>
       <r>    5.3658    1.0000 </r>
       <r>    5.7171    1.0000 </r>
       <r>    5.8649    1.0000 </r>
       <r>    6.8550    1.0000 </r>
       <r>    7.0768    1.0000 </r>
       <r>    7.6355    1.0000 </r>
       <r>    8.8830    1.0000 </r>
       <r>    9.6993    1.0000 </r>
       <r>   11.1894    1.0000 </r>
       <r>   11.6226    0.0602 </r>
       <r>   11.8386    0.0000 </r>
       <r>   11.9214    0.0000 </r>
       <r>   12.0929    0.0000 </r>
       <r>   12.1633    0.0000 </r>
      </set>
      <set comment="kpoint 36">
       <r>  -32.4084    1.0000 </r>
       <r>  -11.5586    1.0000 </r>
       <r>  -11.5275    1.0000 </r>
       <r>  -11.4820    1.0000 </r>
       <r>  -11.4746    1.0000 </r>
       <r>  -11.4694    1.0000 </r>
       <r>   -8.0613    1.0000 </r>
       <r>   -7.8983    1.0000 </r>
       <r>   -7.7257    1.0000 </r>
       <r>   -0.2448    1.0000 </r>
       <r>    5.1940    1.0000 </r>
       <r>    5.5809    1.0000 </r>
       <r>    6.0261    1.0000 </r>
       <r>    6.7923    1.0000 </r>
       <r>    7.2104    1.0000 </r>
       <r>    7.8804    1.0000 </r>
       <r>    8.7544    1.0000 </r>
       <r>    9.6842    1.0000 </r>
       <r>   11.1695    1.0000 </r>
       <r>   11.5966    0.9832 </r>
       <r>   11.8147    0.0000 </r>
       <r>   11.9183    0.0000 </r>
       <r>   12.0837    0.0000 </r>
       <r>   12.1407    0.0000 </r>
      </set>
      <set comment="kpoint 37">
       <r>  -32.4097    1.0000 </r>
       <r>  -11.5600    1.0000 </r>
       <r>  -11.5263    1.0000 </r>
       <r>  -11.4818    1.0000 </r>
       <r>  -11.4736    1.0000 </r>
       <r>  -11.4708    1.0000 </r>
       <r>   -8.0434    1.0000 </r>
       <r>   -7.8909    1.0000 </r>
       <r>   -7.7212    1.0000 </r>
       <r>   -0.3333    1.0000 </r>
       <r>    5.0770    1.0000 </r>
       <r>    5.5283    1.0000 </r>
       <r>    6.2225    1.0000 </r>
       <r>    6.7486    1.0000 </r>
       <r>    7.2854    1.0000 </r>
       <r>    8.1134    1.0000 </r>
       <r>    8.7305    1.0000 </r>
       <r>    9.7389    1.0000 </r>
       <r>   11.1019    1.0000 </r>
       <r>   11.6010    0.9340 </r>
       <r>   11.7307    0.0000 </r>
       <r>   11.9497    0.0000 </r>
       <r>   12.0648    0.0000 </r>
       <r>   12.1478    0.0000 </r>
      </set>
      <set comment="kpoint 38">
       <r>  -32.4100    1.0000 </r>
       <r>  -11.5388    1.0000 </r>
       <r>  -11.5038    1.0000 </r>
       <r>  -11.4869    1.0000 </r>
       <r>  -11.4689    1.0000 </r>
       <r>  -11.4689    1.0000 </r>
       <r>   -8.0002    1.0000 </r>
       <r>   -7.8546    1.0000 </r>
       <r>   -7.8546    1.0000 </r>
       <r>   -0.6132    1.0000 </r>
       <r>    4.9306    1.0000 </r>
       <r>    6.4354    1.0000 </r>
       <r>    6.4354    1.0000 </r>
       <r>    6.6289    1.0000 </r>
       <r>    6.8206    1.0000 </r>
       <r>    8.3508    1.0000 </r>
       <r>    9.6876    1.0000 </r>
       <r>    9.6876    1.0000 </r>
       <r>   10.9384    1.0000 </r>
       <r>   11.6613    0.0000 </r>
       <r>   11.6613    0.0000 </r>
       <r>   11.8019    0.0000 </r>
       <r>   12.1392    0.0000 </r>
       <r>   12.4409    0.0000 </r>
      </set>
      <set comment="kpoint 39">
       <r>  -32.4088    1.0000 </r>
       <r>  -11.5309    1.0000 </r>
       <r>  -11.5059    1.0000 </r>
       <r>  -11.4885    1.0000 </r>
       <r>  -11.4681    1.0000 </r>
       <r>  -11.4675    1.0000 </r>
       <r>   -8.0378    1.0000 </r>
       <r>   -7.8559    1.0000 </r>
       <r>   -7.8510    1.0000 </r>
       <r>   -0.5687    1.0000 </r>
       <r>    5.1443    1.0000 </r>
       <r>    6.2075    1.0000 </r>
       <r>    6.3509    1.0000 </r>
       <r>    6.7133    1.0000 </r>
       <r>    6.8450    1.0000 </r>
       <r>    8.1240    1.0000 </r>
       <r>    9.5774    1.0000 </r>
       <r>    9.7703    1.0000 </r>
       <r>   11.1012    1.0000 </r>
       <r>   11.6395    0.0000 </r>
       <r>   11.6851    0.0000 </r>
       <r>   11.8306    0.0000 </r>
       <r>   12.1654    0.0000 </r>
       <r>   12.3826    0.0000 </r>
      </set>
      <set comment="kpoint 40">
       <r>  -32.4077    1.0000 </r>
       <r>  -11.5237    1.0000 </r>
       <r>  -11.5141    1.0000 </r>
       <r>  -11.4888    1.0000 </r>
       <r>  -11.4689    1.0000 </r>
       <r>  -11.4665    1.0000 </r>
       <r>   -8.0644    1.0000 </r>
       <r>   -7.8674    1.0000 </r>
       <r>   -7.8331    1.0000 </r>
       <r>   -0.5158    1.0000 </r>
       <r>    5.4476    1.0000 </r>
       <r>    6.0006    1.0000 </r>
       <r>    6.2032    1.0000 </r>
       <r>    6.8454    1.0000 </r>
       <r>    6.8889    1.0000 </r>
       <r>    7.8459    1.0000 </r>
       <r>    9.2664    1.0000 </r>
       <r>    9.8073    1.0000 </r>
       <r>   11.2318    1.0000 </r>
       <r>   11.6301    0.0046 </r>
       <r>   11.7216    0.0000 </r>
       <r>   11.9019    0.0000 </r>
       <r>   12.1439    0.0000 </r>
       <r>   12.2786    0.0000 </r>
      </set>
      <set comment="kpoint 41">
       <r>  -32.4070    1.0000 </r>
       <r>  -11.5262    1.0000 </r>
       <r>  -11.5193    1.0000 </r>
       <r>  -11.4871    1.0000 </r>
       <r>  -11.4711    1.0000 </r>
       <r>  -11.4664    1.0000 </r>
       <r>   -8.0661    1.0000 </r>
       <r>   -7.8962    1.0000 </r>
       <r>   -7.8050    1.0000 </r>
       <r>   -0.4505    1.0000 </r>
       <r>    5.6717    1.0000 </r>
       <r>    5.9403    1.0000 </r>
       <r>    6.0141    1.0000 </r>
       <r>    6.9053    1.0000 </r>
       <r>    6.9753    1.0000 </r>
       <r>    7.6419    1.0000 </r>
       <r>    8.9369    1.0000 </r>
       <r>    9.7634    1.0000 </r>
       <r>   11.2677    1.0000 </r>
       <r>   11.6254    0.0258 </r>
       <r>   11.7687    0.0000 </r>
       <r>   12.0072    0.0000 </r>
       <r>   12.0793    0.0000 </r>
       <r>   12.1914    0.0000 </r>
      </set>
      <set comment="kpoint 42">
       <r>  -32.4069    1.0000 </r>
       <r>  -11.5395    1.0000 </r>
       <r>  -11.5191    1.0000 </r>
       <r>  -11.4834    1.0000 </r>
       <r>  -11.4744    1.0000 </r>
       <r>  -11.4670    1.0000 </r>
       <r>   -8.0448    1.0000 </r>
       <r>   -7.9344    1.0000 </r>
       <r>   -7.7731    1.0000 </r>
       <r>   -0.3711    1.0000 </r>
       <r>    5.7346    1.0000 </r>
       <r>    5.8235    1.0000 </r>
       <r>    5.8768    1.0000 </r>
       <r>    6.8686    1.0000 </r>
       <r>    7.0849    1.0000 </r>
       <r>    7.7014    1.0000 </r>
       <r>    8.6708    1.0000 </r>
       <r>    9.6830    1.0000 </r>
       <r>   11.2810    1.0000 </r>
       <r>   11.5884    0.9995 </r>
       <r>   11.8174    0.0000 </r>
       <r>   11.9956    0.0000 </r>
       <r>   12.0859    0.0000 </r>
       <r>   12.1810    0.0000 </r>
      </set>
      <set comment="kpoint 43">
       <r>  -32.4074    1.0000 </r>
       <r>  -11.5511    1.0000 </r>
       <r>  -11.5222    1.0000 </r>
       <r>  -11.4796    1.0000 </r>
       <r>  -11.4774    1.0000 </r>
       <r>  -11.4681    1.0000 </r>
       <r>   -8.0325    1.0000 </r>
       <r>   -7.9463    1.0000 </r>
       <r>   -7.7445    1.0000 </r>
       <r>   -0.2915    1.0000 </r>
       <r>    5.5180    1.0000 </r>
       <r>    5.6692    1.0000 </r>
       <r>    5.8851    1.0000 </r>
       <r>    6.8332    1.0000 </r>
       <r>    7.1766    1.0000 </r>
       <r>    7.9089    1.0000 </r>
       <r>    8.5397    1.0000 </r>
       <r>    9.6407    1.0000 </r>
       <r>   11.2584    1.0000 </r>
       <r>   11.5668    1.0000 </r>
       <r>   11.8548    0.0000 </r>
       <r>   11.9216    0.0000 </r>
       <r>   12.0878    0.0000 </r>
       <r>   12.1707    0.0000 </r>
      </set>
      <set comment="kpoint 44">
       <r>  -32.4079    1.0000 </r>
       <r>  -11.5194    1.0000 </r>
       <r>  -11.5014    1.0000 </r>
       <r>  -11.4903    1.0000 </r>
       <r>  -11.4663    1.0000 </r>
       <r>  -11.4663    1.0000 </r>
       <r>   -8.0603    1.0000 </r>
       <r>   -7.8620    1.0000 </r>
       <r>   -7.8620    1.0000 </r>
       <r>   -0.6177    1.0000 </r>
       <r>    5.4354    1.0000 </r>
       <r>    6.3326    1.0000 </r>
       <r>    6.3326    1.0000 </r>
       <r>    6.4430    1.0000 </r>
       <r>    6.8743    1.0000 </r>
       <r>    7.9129    1.0000 </r>
       <r>    9.8792    1.0000 </r>
       <r>    9.8792    1.0000 </r>
       <r>   11.1507    1.0000 </r>
       <r>   11.7019    0.0000 </r>
       <r>   11.7019    0.0000 </r>
       <r>   11.7555    0.0000 </r>
       <r>   12.2453    0.0000 </r>
       <r>   12.4415    0.0000 </r>
      </set>
      <set comment="kpoint 45">
       <r>  -32.4072    1.0000 </r>
       <r>  -11.5107    1.0000 </r>
       <r>  -11.5039    1.0000 </r>
       <r>  -11.4911    1.0000 </r>
       <r>  -11.4661    1.0000 </r>
       <r>  -11.4654    1.0000 </r>
       <r>   -8.0794    1.0000 </r>
       <r>   -7.8706    1.0000 </r>
       <r>   -7.8570    1.0000 </r>
       <r>   -0.6263    1.0000 </r>
       <r>    5.7696    1.0000 </r>
       <r>    6.1606    1.0000 </r>
       <r>    6.2554    1.0000 </r>
       <r>    6.5752    1.0000 </r>
       <r>    6.9046    1.0000 </r>
       <r>    7.6245    1.0000 </r>
       <r>    9.7543    1.0000 </r>
       <r>    9.9376    1.0000 </r>
       <r>   11.3112    1.0000 </r>
       <r>   11.6514    0.0000 </r>
       <r>   11.7269    0.0000 </r>
       <r>   11.8277    0.0000 </r>
       <r>   12.2680    0.0000 </r>
       <r>   12.2792    0.0000 </r>
      </set>
      <set comment="kpoint 46">
       <r>  -32.4067    1.0000 </r>
       <r>  -11.5127    1.0000 </r>
       <r>  -11.5075    1.0000 </r>
       <r>  -11.4899    1.0000 </r>
       <r>  -11.4679    1.0000 </r>
       <r>  -11.4653    1.0000 </r>
       <r>   -8.0756    1.0000 </r>
       <r>   -7.8957    1.0000 </r>
       <r>   -7.8372    1.0000 </r>
       <r>   -0.5872    1.0000 </r>
       <r>    5.8263    1.0000 </r>
       <r>    6.1246    1.0000 </r>
       <r>    6.2604    1.0000 </r>
       <r>    6.7452    1.0000 </r>
       <r>    6.9640    1.0000 </r>
       <r>    7.3839    1.0000 </r>
       <r>    9.3456    1.0000 </r>
       <r>    9.8836    1.0000 </r>
       <r>   11.3704    1.0000 </r>
       <r>   11.6142    0.3603 </r>
       <r>   11.7576    0.0000 </r>
       <r>   11.9653    0.0000 </r>
       <r>   12.1564    0.0000 </r>
       <r>   12.2218    0.0000 </r>
      </set>
      <set comment="kpoint 47">
       <r>  -32.4066    1.0000 </r>
       <r>  -11.5255    1.0000 </r>
       <r>  -11.5108    1.0000 </r>
       <r>  -11.4865    1.0000 </r>
       <r>  -11.4712    1.0000 </r>
       <r>  -11.4659    1.0000 </r>
       <r>   -8.0505    1.0000 </r>
       <r>   -7.9314    1.0000 </r>
       <r>   -7.8069    1.0000 </r>
       <r>   -0.4984    1.0000 </r>
       <r>    5.7664    1.0000 </r>
       <r>    5.9693    1.0000 </r>
       <r>    6.2254    1.0000 </r>
       <r>    6.8288    1.0000 </r>
       <r>    7.0371    1.0000 </r>
       <r>    7.4695    1.0000 </r>
       <r>    8.9011    1.0000 </r>
       <r>    9.7656    1.0000 </r>
       <r>   11.3411    1.0000 </r>
       <r>   11.5913    0.9980 </r>
       <r>   11.7886    0.0000 </r>
       <r>   12.0763    0.0000 </r>
       <r>   12.0973    0.0000 </r>
       <r>   12.1173    0.0000 </r>
      </set>
      <set comment="kpoint 48">
       <r>  -32.4067    1.0000 </r>
       <r>  -11.5026    1.0000 </r>
       <r>  -11.5001    1.0000 </r>
       <r>  -11.4923    1.0000 </r>
       <r>  -11.4647    1.0000 </r>
       <r>  -11.4647    1.0000 </r>
       <r>   -8.0978    1.0000 </r>
       <r>   -7.8665    1.0000 </r>
       <r>   -7.8665    1.0000 </r>
       <r>   -0.6794    1.0000 </r>
       <r>    6.0949    1.0000 </r>
       <r>    6.2650    1.0000 </r>
       <r>    6.2650    1.0000 </r>
       <r>    6.4198    1.0000 </r>
       <r>    6.9053    1.0000 </r>
       <r>    7.3205    1.0000 </r>
       <r>   10.0397    1.0000 </r>
       <r>   10.0397    1.0000 </r>
       <r>   11.3961    1.0000 </r>
       <r>   11.7364    0.0000 </r>
       <r>   11.7364    0.0000 </r>
       <r>   11.7447    0.0000 </r>
       <r>   12.1694    0.0000 </r>
       <r>   12.3269    0.0000 </r>
      </set>
      <set comment="kpoint 49">
       <r>  -32.4066    1.0000 </r>
       <r>  -11.5032    1.0000 </r>
       <r>  -11.5013    1.0000 </r>
       <r>  -11.4920    1.0000 </r>
       <r>  -11.4654    1.0000 </r>
       <r>  -11.4646    1.0000 </r>
       <r>   -8.0961    1.0000 </r>
       <r>   -7.8758    1.0000 </r>
       <r>   -7.8593    1.0000 </r>
       <r>   -0.6666    1.0000 </r>
       <r>    5.9952    1.0000 </r>
       <r>    6.2175    1.0000 </r>
       <r>    6.4432    1.0000 </r>
       <r>    6.5462    1.0000 </r>
       <r>    6.9275    1.0000 </r>
       <r>    7.1565    1.0000 </r>
       <r>    9.8409    1.0000 </r>
       <r>   10.0141    1.0000 </r>
       <r>   11.4377    1.0000 </r>
       <r>   11.6506    0.0000 </r>
       <r>   11.7472    0.0000 </r>
       <r>   11.8798    0.0000 </r>
       <r>   12.1024    0.0000 </r>
       <r>   12.3298    0.0000 </r>
      </set>
      <set comment="kpoint 50">
       <r>  -32.4147    1.0000 </r>
       <r>  -11.5380    1.0000 </r>
       <r>  -11.5149    1.0000 </r>
       <r>  -11.4793    1.0000 </r>
       <r>  -11.4738    1.0000 </r>
       <r>  -11.4736    1.0000 </r>
       <r>   -7.9310    1.0000 </r>
       <r>   -7.8426    1.0000 </r>
       <r>   -7.7931    1.0000 </r>
       <r>   -1.0404    1.0000 </r>
       <r>    5.4124    1.0000 </r>
       <r>    6.1259    1.0000 </r>
       <r>    6.5482    1.0000 </r>
       <r>    6.7436    1.0000 </r>
       <r>    7.1341    1.0000 </r>
       <r>    8.7807    1.0000 </r>
       <r>    9.5121    1.0000 </r>
       <r>    9.9380    1.0000 </r>
       <r>   10.9291    1.0000 </r>
       <r>   11.5092    1.0000 </r>
       <r>   11.5843    0.9999 </r>
       <r>   11.8611    0.0000 </r>
       <r>   11.9606    0.0000 </r>
       <r>   12.2014    0.0000 </r>
      </set>
      <set comment="kpoint 51">
       <r>  -32.4129    1.0000 </r>
       <r>  -11.5474    1.0000 </r>
       <r>  -11.5208    1.0000 </r>
       <r>  -11.4813    1.0000 </r>
       <r>  -11.4730    1.0000 </r>
       <r>  -11.4723    1.0000 </r>
       <r>   -7.9952    1.0000 </r>
       <r>   -7.8387    1.0000 </r>
       <r>   -7.7660    1.0000 </r>
       <r>   -0.7457    1.0000 </r>
       <r>    5.1747    1.0000 </r>
       <r>    5.8948    1.0000 </r>
       <r>    6.4160    1.0000 </r>
       <r>    6.7770    1.0000 </r>
       <r>    7.2036    1.0000 </r>
       <r>    8.3559    1.0000 </r>
       <r>    9.3233    1.0000 </r>
       <r>    9.8690    1.0000 </r>
       <r>   10.9505    1.0000 </r>
       <r>   11.5573    1.0000 </r>
       <r>   11.6064    0.7722 </r>
       <r>   11.9673    0.0000 </r>
       <r>   11.9750    0.0000 </r>
       <r>   12.2378    0.0000 </r>
      </set>
      <set comment="kpoint 52">
       <r>  -32.4109    1.0000 </r>
       <r>  -11.5543    1.0000 </r>
       <r>  -11.5299    1.0000 </r>
       <r>  -11.4838    1.0000 </r>
       <r>  -11.4723    1.0000 </r>
       <r>  -11.4709    1.0000 </r>
       <r>   -8.0626    1.0000 </r>
       <r>   -7.8200    1.0000 </r>
       <r>   -7.7451    1.0000 </r>
       <r>   -0.4468    1.0000 </r>
       <r>    5.0282    1.0000 </r>
       <r>    5.7368    1.0000 </r>
       <r>    6.2457    1.0000 </r>
       <r>    6.7595    1.0000 </r>
       <r>    7.1764    1.0000 </r>
       <r>    7.8904    1.0000 </r>
       <r>    9.3434    1.0000 </r>
       <r>    9.8283    1.0000 </r>
       <r>   10.9637    1.0000 </r>
       <r>   11.6163    0.2557 </r>
[...]
       <r>   11.3139    1.0000 </r>
       <r>   11.6219    0.0729 </r>
       <r>   11.8888    0.0000 </r>
       <r>   11.9464    0.0000 </r>
       <r>   12.0878    0.0000 </r>
       <r>   12.1728    0.0000 </r>
      </set>
      <set comment="kpoint 81">
       <r>  -32.4071    1.0000 </r>
       <r>  -11.5443    1.0000 </r>
       <r>  -11.5147    1.0000 </r>
       <r>  -11.4825    1.0000 </r>
       <r>  -11.4766    1.0000 </r>
       <r>  -11.4661    1.0000 </r>
       <r>   -8.0320    1.0000 </r>
       <r>   -7.9354    1.0000 </r>
       <r>   -7.7809    1.0000 </r>
       <r>   -0.3726    1.0000 </r>
       <r>    5.5347    1.0000 </r>
       <r>    5.7932    1.0000 </r>
       <r>    6.1226    1.0000 </r>
       <r>    6.8396    1.0000 </r>
       <r>    7.1329    1.0000 </r>
       <r>    7.8819    1.0000 </r>
       <r>    8.2725    1.0000 </r>
       <r>    9.8925    1.0000 </r>
       <r>   11.2904    1.0000 </r>
       <r>   11.6031    0.8862 </r>
       <r>   11.8740    0.0000 </r>
       <r>   11.9370    0.0000 </r>
       <r>   12.0552    0.0000 </r>
       <r>   12.1934    0.0000 </r>
      </set>
      <set comment="kpoint 82">
       <r>  -32.4066    1.0000 </r>
       <r>  -11.5266    1.0000 </r>
       <r>  -11.5024    1.0000 </r>
       <r>  -11.4882    1.0000 </r>
       <r>  -11.4721    1.0000 </r>
       <r>  -11.4644    1.0000 </r>
       <r>   -8.0539    1.0000 </r>
       <r>   -7.9073    1.0000 </r>
       <r>   -7.8364    1.0000 </r>
       <r>   -0.5339    1.0000 </r>
       <r>    5.6420    1.0000 </r>
       <r>    6.2584    1.0000 </r>
       <r>    6.2747    1.0000 </r>
       <r>    6.7480    1.0000 </r>
       <r>    7.0848    1.0000 </r>
       <r>    7.4335    1.0000 </r>
       <r>    8.6338    1.0000 </r>
       <r>   10.0889    1.0000 </r>
       <r>   11.3766    1.0000 </r>
       <r>   11.6219    0.0741 </r>
       <r>   11.8080    0.0000 </r>
       <r>   12.0319    0.0000 </r>
       <r>   12.1049    0.0000 </r>
       <r>   12.1617    0.0000 </r>
      </set>
      <set comment="kpoint 83">
       <r>  -32.4065    1.0000 </r>
       <r>  -11.5339    1.0000 </r>
       <r>  -11.5027    1.0000 </r>
       <r>  -11.4854    1.0000 </r>
       <r>  -11.4756    1.0000 </r>
       <r>  -11.4643    1.0000 </r>
       <r>   -8.0318    1.0000 </r>
       <r>   -7.9329    1.0000 </r>
       <r>   -7.8247    1.0000 </r>
       <r>   -0.4892    1.0000 </r>
       <r>    5.5774    1.0000 </r>
       <r>    6.2187    1.0000 </r>
       <r>    6.3318    1.0000 </r>
       <r>    6.7817    1.0000 </r>
       <r>    7.1499    1.0000 </r>
       <r>    7.4966    1.0000 </r>
       <r>    8.2549    1.0000 </r>
       <r>   10.0726    1.0000 </r>
       <r>   11.3599    1.0000 </r>
       <r>   11.6330    0.0013 </r>
       <r>   11.8512    0.0000 </r>
       <r>   12.0265    0.0000 </r>
       <r>   12.1026    0.0000 </r>
       <r>   12.1316    0.0000 </r>
      </set>
      <set comment="kpoint 84">
       <r>  -32.4065    1.0000 </r>
       <r>  -11.5381    1.0000 </r>
       <r>  -11.5027    1.0000 </r>
       <r>  -11.4835    1.0000 </r>
       <r>  -11.4782    1.0000 </r>
       <r>  -11.4642    1.0000 </r>
       <r>   -8.0190    1.0000 </r>
       <r>   -7.9420    1.0000 </r>
       <r>   -7.8221    1.0000 </r>
       <r>   -0.4639    1.0000 </r>
       <r>    5.5354    1.0000 </r>
       <r>    6.2438    1.0000 </r>
       <r>    6.2781    1.0000 </r>
       <r>    6.7884    1.0000 </r>
       <r>    7.1963    1.0000 </r>
       <r>    7.6818    1.0000 </r>
       <r>    7.9421    1.0000 </r>
       <r>   10.0939    1.0000 </r>
       <r>   11.3490    1.0000 </r>
       <r>   11.6469    0.0000 </r>
       <r>   11.8997    0.0000 </r>
       <r>   11.9628    0.0000 </r>
       <r>   12.0934    0.0000 </r>
       <r>   12.1692    0.0000 </r>
      </set>
     </set>
    </set>
   </array>
  </eigenvalues>
  <separator name="orbital magnetization" >
   <v name="MAGDIPOLOUT">      0.00000000      0.00000000      0.00000000</v>
  </separator>
  <dos>
   <i name="efermi">     11.61166244 </i>
   <total>
    <array>
     <dimension dim="1">gridpoints</dimension>
     <dimension dim="2">spin</dimension>
     <field>energy</field>
     <field>total</field>
     <field>integrated</field>
     <set>
      <set comment="spin 1">
       <r>   -34.6608     0.0000     0.0000 </r>
       <r>   -34.4963     0.0000     0.0000 </r>
       <r>   -34.3319     0.0000     0.0000 </r>
       <r>   -34.1674     0.0000     0.0000 </r>
       <r>   -34.0029     0.0000     0.0000 </r>
       <r>   -33.8384     0.0000     0.0000 </r>
       <r>   -33.6739     0.0000     0.0000 </r>
       <r>   -33.5094     0.0000     0.0000 </r>
       <r>   -33.3450     0.0000     0.0000 </r>
       <r>   -33.1805     0.0000     0.0000 </r>
       <r>   -33.0160     0.0000     0.0000 </r>
       <r>   -32.8515     0.0000     0.0000 </r>
       <r>   -32.6870     0.0000     0.0000 </r>
       <r>   -32.5225     0.0000     0.0000 </r>
       <r>   -32.3580    12.1592     2.0000 </r>
       <r>   -32.1936     0.0000     2.0000 </r>
       <r>   -32.0291     0.0000     2.0000 </r>
       <r>   -31.8646     0.0000     2.0000 </r>
       <r>   -31.7001     0.0000     2.0000 </r>
       <r>   -31.5356     0.0000     2.0000 </r>
       <r>   -31.3711     0.0000     2.0000 </r>
       <r>   -31.2067     0.0000     2.0000 </r>
       <r>   -31.0422     0.0000     2.0000 </r>
       <r>   -30.8777     0.0000     2.0000 </r>
       <r>   -30.7132     0.0000     2.0000 </r>
       <r>   -30.5487     0.0000     2.0000 </r>
       <r>   -30.3842     0.0000     2.0000 </r>
       <r>   -30.2197     0.0000     2.0000 </r>
       <r>   -30.0553     0.0000     2.0000 </r>
       <r>   -29.8908     0.0000     2.0000 </r>
       <r>   -29.7263     0.0000     2.0000 </r>
       <r>   -29.5618     0.0000     2.0000 </r>
       <r>   -29.3973     0.0000     2.0000 </r>
       <r>   -29.2328     0.0000     2.0000 </r>
       <r>   -29.0684     0.0000     2.0000 </r>
       <r>   -28.9039     0.0000     2.0000 </r>
       <r>   -28.7394     0.0000     2.0000 </r>
       <r>   -28.5749     0.0000     2.0000 </r>
       <r>   -28.4104     0.0000     2.0000 </r>
       <r>   -28.2459     0.0000     2.0000 </r>
       <r>   -28.0815     0.0000     2.0000 </r>
       <r>   -27.9170     0.0000     2.0000 </r>
       <r>   -27.7525     0.0000     2.0000 </r>
       <r>   -27.5880     0.0000     2.0000 </r>
       <r>   -27.4235     0.0000     2.0000 </r>
       <r>   -27.2590     0.0000     2.0000 </r>
       <r>   -27.0945     0.0000     2.0000 </r>
       <r>   -26.9301     0.0000     2.0000 </r>
       <r>   -26.7656     0.0000     2.0000 </r>
       <r>   -26.6011     0.0000     2.0000 </r>
       <r>   -26.4366     0.0000     2.0000 </r>
       <r>   -26.2721     0.0000     2.0000 </r>
       <r>   -26.1076     0.0000     2.0000 </r>
       <r>   -25.9432     0.0000     2.0000 </r>
       <r>   -25.7787     0.0000     2.0000 </r>
       <r>   -25.6142     0.0000     2.0000 </r>
       <r>   -25.4497     0.0000     2.0000 </r>
       <r>   -25.2852     0.0000     2.0000 </r>
       <r>   -25.1207     0.0000     2.0000 </r>
       <r>   -24.9562     0.0000     2.0000 </r>
       <r>   -24.7918     0.0000     2.0000 </r>
       <r>   -24.6273     0.0000     2.0000 </r>
       <r>   -24.4628     0.0000     2.0000 </r>
       <r>   -24.2983     0.0000     2.0000 </r>
       <r>   -24.1338     0.0000     2.0000 </r>
       <r>   -23.9693     0.0000     2.0000 </r>
       <r>   -23.8049     0.0000     2.0000 </r>
       <r>   -23.6404     0.0000     2.0000 </r>
       <r>   -23.4759     0.0000     2.0000 </r>
       <r>   -23.3114     0.0000     2.0000 </r>
       <r>   -23.1469     0.0000     2.0000 </r>
       <r>   -22.9824     0.0000     2.0000 </r>
       <r>   -22.8179     0.0000     2.0000 </r>
       <r>   -22.6535     0.0000     2.0000 </r>
       <r>   -22.4890     0.0000     2.0000 </r>
       <r>   -22.3245     0.0000     2.0000 </r>
       <r>   -22.1600     0.0000     2.0000 </r>
       <r>   -21.9955     0.0000     2.0000 </r>
       <r>   -21.8310     0.0000     2.0000 </r>
       <r>   -21.6666     0.0000     2.0000 </r>
       <r>   -21.5021     0.0000     2.0000 </r>
       <r>   -21.3376     0.0000     2.0000 </r>
       <r>   -21.1731     0.0000     2.0000 </r>
       <r>   -21.0086     0.0000     2.0000 </r>
       <r>   -20.8441     0.0000     2.0000 </r>
       <r>   -20.6797     0.0000     2.0000 </r>
       <r>   -20.5152     0.0000     2.0000 </r>
       <r>   -20.3507     0.0000     2.0000 </r>
       <r>   -20.1862     0.0000     2.0000 </r>
       <r>   -20.0217     0.0000     2.0000 </r>
       <r>   -19.8572     0.0000     2.0000 </r>
       <r>   -19.6927     0.0000     2.0000 </r>
       <r>   -19.5283     0.0000     2.0000 </r>
       <r>   -19.3638     0.0000     2.0000 </r>
       <r>   -19.1993     0.0000     2.0000 </r>
       <r>   -19.0348     0.0000     2.0000 </r>
       <r>   -18.8703     0.0000     2.0000 </r>
       <r>   -18.7058     0.0000     2.0000 </r>
       <r>   -18.5414     0.0000     2.0000 </r>
       <r>   -18.3769     0.0000     2.0000 </r>
       <r>   -18.2124     0.0000     2.0000 </r>
       <r>   -18.0479     0.0000     2.0000 </r>
       <r>   -17.8834     0.0000     2.0000 </r>
       <r>   -17.7189     0.0000     2.0000 </r>
       <r>   -17.5544     0.0000     2.0000 </r>
       <r>   -17.3900     0.0000     2.0000 </r>
       <r>   -17.2255     0.0000     2.0000 </r>
       <r>   -17.0610     0.0000     2.0000 </r>
       <r>   -16.8965     0.0000     2.0000 </r>
       <r>   -16.7320     0.0000     2.0000 </r>
       <r>   -16.5675     0.0000     2.0000 </r>
       <r>   -16.4031     0.0000     2.0000 </r>
       <r>   -16.2386     0.0000     2.0000 </r>
       <r>   -16.0741     0.0000     2.0000 </r>
       <r>   -15.9096     0.0000     2.0000 </r>
       <r>   -15.7451     0.0000     2.0000 </r>
       <r>   -15.5806     0.0000     2.0000 </r>
       <r>   -15.4161     0.0000     2.0000 </r>
       <r>   -15.2517     0.0000     2.0000 </r>
       <r>   -15.0872     0.0000     2.0000 </r>
       <r>   -14.9227     0.0000     2.0000 </r>
       <r>   -14.7582     0.0000     2.0000 </r>
       <r>   -14.5937     0.0000     2.0000 </r>
       <r>   -14.4292     0.0000     2.0000 </r>
       <r>   -14.2648     0.0000     2.0000 </r>
       <r>   -14.1003     0.0000     2.0000 </r>
       <r>   -13.9358     0.0000     2.0000 </r>
       <r>   -13.7713     0.0000     2.0000 </r>
       <r>   -13.6068     0.0000     2.0000 </r>
       <r>   -13.4423     0.0000     2.0000 </r>
       <r>   -13.2779     0.0000     2.0000 </r>
       <r>   -13.1134     0.0000     2.0000 </r>
       <r>   -12.9489     0.0000     2.0000 </r>
       <r>   -12.7844     0.0000     2.0000 </r>
       <r>   -12.6199     0.0000     2.0000 </r>
       <r>   -12.4554     0.0000     2.0000 </r>
       <r>   -12.2909     0.0000     2.0000 </r>
       <r>   -12.1265     0.0000     2.0000 </r>
       <r>   -11.9620     0.0000     2.0000 </r>
       <r>   -11.7975     0.0000     2.0000 </r>
       <r>   -11.6330     0.0000     2.0000 </r>
       <r>   -11.4685    45.5526    10.3739 </r>
       <r>   -11.3040     0.0000    12.0000 </r>
       <r>   -11.1396     0.0000    12.0000 </r>
       <r>   -10.9751     0.0000    12.0000 </r>
       <r>   -10.8106     0.0000    12.0000 </r>
       <r>   -10.6461     0.0000    12.0000 </r>
       <r>   -10.4816     0.0000    12.0000 </r>
       <r>   -10.3171     0.0000    12.0000 </r>
       <r>   -10.1526     0.0000    12.0000 </r>
       <r>    -9.9882     0.0000    12.0000 </r>
       <r>    -9.8237     0.0000    12.0000 </r>
       <r>    -9.6592     0.0000    12.0000 </r>
       <r>    -9.4947     0.0000    12.0000 </r>
       <r>    -9.3302     0.0000    12.0000 </r>
       <r>    -9.1657     0.0000    12.0000 </r>
       <r>    -9.0013     0.0000    12.0000 </r>
       <r>    -8.8368     0.0000    12.0000 </r>
       <r>    -8.6723     0.0000    12.0000 </r>
       <r>    -8.5078     0.0000    12.0000 </r>
       <r>    -8.3433     0.0000    12.0000 </r>
       <r>    -8.1788     0.0125    12.0021 </r>
       <r>    -8.0143     7.9409    13.7085 </r>
       <r>    -7.8499     6.6164    15.2039 </r>
       <r>    -7.6854     5.2467    18.0000 </r>
       <r>    -7.5209     0.0000    18.0000 </r>
       <r>    -7.3564     0.0000    18.0000 </r>
       <r>    -7.1919     0.0000    18.0000 </r>
       <r>    -7.0274     0.0000    18.0000 </r>
       <r>    -6.8630     0.0000    18.0000 </r>
       <r>    -6.6985     0.0000    18.0000 </r>
       <r>    -6.5340     0.0000    18.0000 </r>
       <r>    -6.3695     0.0000    18.0000 </r>
       <r>    -6.2050     0.0000    18.0000 </r>
       <r>    -6.0405     0.0000    18.0000 </r>
       <r>    -5.8761     0.0000    18.0000 </r>
       <r>    -5.7116     0.0000    18.0000 </r>
       <r>    -5.5471     0.0000    18.0000 </r>
       <r>    -5.3826     0.0000    18.0000 </r>
       <r>    -5.2181     0.0000    18.0000 </r>
       <r>    -5.0536     0.0000    18.0000 </r>
       <r>    -4.8891     0.0000    18.0000 </r>
       <r>    -4.7247     0.0000    18.0000 </r>
       <r>    -4.5602     0.0000    18.0000 </r>
       <r>    -4.3957     0.0000    18.0000 </r>
       <r>    -4.2312     0.0000    18.0000 </r>
       <r>    -4.0667     0.0000    18.0000 </r>
       <r>    -3.9022     0.0000    18.0000 </r>
       <r>    -3.7378     0.0000    18.0000 </r>
       <r>    -3.5733     0.0000    18.0000 </r>
       <r>    -3.4088     0.0000    18.0000 </r>
       <r>    -3.2443     0.0000    18.0000 </r>
       <r>    -3.0798     0.0000    18.0000 </r>
       <r>    -2.9153     0.0000    18.0000 </r>
       <r>    -2.7508     0.0000    18.0000 </r>
       <r>    -2.5864     0.0000    18.0000 </r>
       <r>    -2.4219     0.0000    18.0000 </r>
       <r>    -2.2574     0.0000    18.0000 </r>
       <r>    -2.0929     0.0000    18.0000 </r>
       <r>    -1.9284     0.0000    18.0000 </r>
       <r>    -1.7639     0.0000    18.0000 </r>
       <r>    -1.5995     0.0000    18.0000 </r>
       <r>    -1.4350     0.0766    18.0135 </r>
       <r>    -1.2705     0.0684    18.0249 </r>
       <r>    -1.1060     0.0332    18.0592 </r>
       <r>    -0.9415     0.0783    18.1157 </r>
       <r>    -0.7770     0.0937    18.1693 </r>
       <r>    -0.6126     0.6706    18.3679 </r>
       <r>    -0.4481     2.0340    18.9035 </r>
       <r>    -0.2836     1.9793    19.5245 </r>
       <r>    -0.1191     0.4926    19.8698 </r>
       <r>     0.0454     0.1771    20.0000 </r>
       <r>     0.2099     0.0000    20.0000 </r>
       <r>     0.3744     0.0000    20.0000 </r>
       <r>     0.5388     0.0000    20.0000 </r>
       <r>     0.7033     0.0000    20.0000 </r>
       <r>     0.8678     0.0000    20.0000 </r>
       <r>     1.0323     0.0000    20.0000 </r>
       <r>     1.1968     0.0000    20.0000 </r>
       <r>     1.3613     0.0000    20.0000 </r>
       <r>     1.5257     0.0000    20.0000 </r>
       <r>     1.6902     0.0000    20.0000 </r>
       <r>     1.8547     0.0000    20.0000 </r>
       <r>     2.0192     0.0000    20.0000 </r>
       <r>     2.1837     0.0000    20.0000 </r>
       <r>     2.3482     0.0000    20.0000 </r>
       <r>     2.5127     0.0000    20.0000 </r>
       <r>     2.6771     0.0000    20.0000 </r>
       <r>     2.8416     0.0000    20.0000 </r>
       <r>     3.0061     0.0000    20.0000 </r>
       <r>     3.1706     0.0000    20.0000 </r>
       <r>     3.3351     0.0000    20.0000 </r>
       <r>     3.4996     0.0000    20.0000 </r>
       <r>     3.6640     0.0000    20.0000 </r>
       <r>     3.8285     0.0000    20.0000 </r>
       <r>     3.9930     0.0000    20.0000 </r>
       <r>     4.1575     0.0000    20.0000 </r>
       <r>     4.3220     0.0000    20.0000 </r>
       <r>     4.4865     0.0000    20.0000 </r>
       <r>     4.6510     0.0000    20.0000 </r>
       <r>     4.8154     0.0454    20.0075 </r>
       <r>     4.9799     1.2823    20.3056 </r>
       <r>     5.1444     0.5274    20.7240 </r>
       <r>     5.3089     0.5888    21.0800 </r>
       <r>     5.4734     0.8331    21.3114 </r>
       <r>     5.6379     1.8543    21.7907 </r>
       <r>     5.8023     2.5503    22.8082 </r>
       <r>     5.9668     2.3275    23.6018 </r>
       <r>     6.1313     2.6676    24.5080 </r>
       <r>     6.2958     2.6298    25.3811 </r>
       <r>     6.4603     1.4375    25.9096 </r>
       <r>     6.6248     0.4742    26.0671 </r>
       <r>     6.7892     5.2752    26.9733 </r>
       <r>     6.9537     2.4611    28.3511 </r>
       <r>     7.1182     3.5255    29.4292 </r>
       <r>     7.2827     1.3966    30.0731 </r>
       <r>     7.4472     0.3939    30.2705 </r>
       <r>     7.6117     0.4196    30.5479 </r>
       <r>     7.7762     0.9587    31.0371 </r>
       <r>     7.9406     1.3508    31.4074 </r>
       <r>     8.1051     0.2581    31.5718 </r>
       <r>     8.2696     0.9439    31.8121 </r>
       <r>     8.4341     0.5479    31.9490 </r>
       <r>     8.5986     0.4998    32.1268 </r>
       <r>     8.7631     0.7166    32.4410 </r>
       <r>     8.9275     0.4858    32.6179 </r>
       <r>     9.0920     1.7439    33.0106 </r>
       <r>     9.2565     0.2313    33.1277 </r>
       <r>     9.4210     0.9688    33.4347 </r>
       <r>     9.5855     0.5659    33.6525 </r>
       <r>     9.7500     2.2237    34.1345 </r>
       <r>     9.9145     2.5299    35.4302 </r>
       <r>    10.0789     0.8008    35.9251 </r>
       <r>    10.2434     0.1597    35.9980 </r>
       <r>    10.4079     0.0000    36.0009 </r>
       <r>    10.5724     0.0000    36.0009 </r>
       <r>    10.7369     0.1715    36.0291 </r>
       <r>    10.9014     1.1466    36.2259 </r>
       <r>    11.0658     1.5886    36.7647 </r>
       <r>    11.2303     1.5289    37.3776 </r>
       <r>    11.3948     1.1724    37.9471 </r>
       <r>    11.5593     1.3786    38.2459 </r>
       <r>    11.7238     5.8944    40.8567 </r>
       <r>    11.8883     3.5162    42.1988 </r>
       <r>    12.0528     6.7193    44.7993 </r>
       <r>    12.2172     7.5955    47.2685 </r>
       <r>    12.3817     0.5910    47.9770 </r>
       <r>    12.5462     0.0000    48.0000 </r>
       <r>    12.7107     0.0000    48.0000 </r>
       <r>    12.8752     0.0000    48.0000 </r>
       <r>    13.0397     0.0000    48.0000 </r>
       <r>    13.2041     0.0000    48.0000 </r>
       <r>    13.3686     0.0000    48.0000 </r>
       <r>    13.5331     0.0000    48.0000 </r>
       <r>    13.6976     0.0000    48.0000 </r>
       <r>    13.8621     0.0000    48.0000 </r>
       <r>    14.0266     0.0000    48.0000 </r>
       <r>    14.1910     0.0000    48.0000 </r>
       <r>    14.3555     0.0000    48.0000 </r>
       <r>    14.5200     0.0000    48.0000 </r>
       <r>    14.6845     0.0000    48.0000 </r>
      </set>
     </set>
    </array>
   </total>
  </dos>
 </calculation>
 <structure name="finalpos" >
  <crystal>
   <varray name="basis" >
    <v>       0.00000000       3.20314717       3.20314717 </v>
    <v>       3.20314717       0.00000000       3.20314717 </v>
    <v>       3.20314717       3.20314717       0.00000000 </v>
   </varray>
   <i name="volume">     65.72955220 </i>
   <varray name="rec_basis" >
    <v>      -0.15609648       0.15609648       0.15609648 </v>
    <v>       0.15609648      -0.15609648       0.15609648 </v>
    <v>       0.15609648       0.15609648      -0.15609648 </v>
   </varray>
  </crystal>
  <varray name="positions" >
   <v>       0.25000000       0.25000000       0.25000000 </v>
   <v>       0.75000000       0.75000000       0.75000000 </v>
   <v>       0.00000000       0.00000000       0.00000000 </v>
  </varray>
 </structure>
</modeling>
