   3   3   0   0
  0.2483116E+02  0.4722926E-09  0.4722926E-09  0.4722926E-09  0.5000000E-15
  1.000000000000000E-004
  CAR
 unknown system
     12.69637753    -36.55676983  301      9.81928848      1.00000000
    -36.557  0.0000E+00  0.0000E+00
    -36.393  0.0000E+00  0.0000E+00
    -36.228  0.0000E+00  0.0000E+00
    -36.064  0.0000E+00  0.0000E+00
    -35.900  0.0000E+00  0.0000E+00
    -35.736  0.0000E+00  0.0000E+00
    -35.572  0.0000E+00  0.0000E+00
    -35.408  0.0000E+00  0.0000E+00
    -35.243  0.0000E+00  0.0000E+00
    -35.079  0.0000E+00  0.0000E+00
    -34.915  0.0000E+00  0.0000E+00
    -34.751  0.0000E+00  0.0000E+00
    -34.587  0.0000E+00  0.0000E+00
    -34.422  0.0000E+00  0.0000E+00
    -34.258  0.1218E+02  0.2000E+01
    -34.094  0.0000E+00  0.2000E+01
    -33.930  0.0000E+00  0.2000E+01
    -33.766  0.0000E+00  0.2000E+01
    -33.602  0.0000E+00  0.2000E+01
    -33.437  0.0000E+00  0.2000E+01
    -33.273  0.0000E+00  0.2000E+01
    -33.109  0.0000E+00  0.2000E+01
    -32.945  0.0000E+00  0.2000E+01
    -32.781  0.0000E+00  0.2000E+01
    -32.617  0.0000E+00  0.2000E+01
    -32.452  0.0000E+00  0.2000E+01
    -32.288  0.0000E+00  0.2000E+01
    -32.124  0.0000E+00  0.2000E+01
    -31.960  0.0000E+00  0.2000E+01
    -31.796  0.0000E+00  0.2000E+01
    -31.631  0.0000E+00  0.2000E+01
    -31.467  0.0000E+00  0.2000E+01
    -31.303  0.0000E+00  0.2000E+01
    -31.139  0.0000E+00  0.2000E+01
    -30.975  0.0000E+00  0.2000E+01
    -30.811  0.0000E+00  0.2000E+01
    -30.646  0.0000E+00  0.2000E+01
    -30.482  0.0000E+00  0.2000E+01
    -30.318  0.0000E+00  0.2000E+01
    -30.154  0.0000E+00  0.2000E+01
    -29.990  0.0000E+00  0.2000E+01
    -29.826  0.0000E+00  0.2000E+01
    -29.661  0.0000E+00  0.2000E+01
    -29.497  0.0000E+00  0.2000E+01
    -29.333  0.0000E+00  0.2000E+01
    -29.169  0.0000E+00  0.2000E+01
    -29.005  0.0000E+00  0.2000E+01
    -28.840  0.0000E+00  0.2000E+01
    -28.676  0.0000E+00  0.2000E+01
    -28.512  0.0000E+00  0.2000E+01
    -28.348  0.0000E+00  0.2000E+01
    -28.184  0.0000E+00  0.2000E+01
    -28.020  0.0000E+00  0.2000E+01
    -27.855  0.0000E+00  0.2000E+01
    -27.691  0.0000E+00  0.2000E+01
    -27.527  0.0000E+00  0.2000E+01
    -27.363  0.0000E+00  0.2000E+01
    -27.199  0.0000E+00  0.2000E+01
    -27.034  0.0000E+00  0.2000E+01
    -26.870  0.0000E+00  0.2000E+01
    -26.706  0.0000E+00  0.2000E+01
    -26.542  0.0000E+00  0.2000E+01
    -26.378  0.0000E+00  0.2000E+01
    -26.214  0.0000E+00  0.2000E+01
    -26.049  0.0000E+00  0.2000E+01
    -25.885  0.0000E+00  0.2000E+01
    -25.721  0.0000E+00  0.2000E+01
    -25.557  0.0000E+00  0.2000E+01
    -25.393  0.0000E+00  0.2000E+01
    -25.229  0.0000E+00  0.2000E+01
    -25.064  0.0000E+00  0.2000E+01
    -24.900  0.0000E+00  0.2000E+01
    -24.736  0.0000E+00  0.2000E+01
    -24.572  0.0000E+00  0.2000E+01
    -24.408  0.0000E+00  0.2000E+01
    -24.243  0.0000E+00  0.2000E+01
    -24.079  0.0000E+00  0.2000E+01
    -23.915  0.0000E+00  0.2000E+01
    -23.751  0.0000E+00  0.2000E+01
    -23.587  0.0000E+00  0.2000E+01
    -23.423  0.0000E+00  0.2000E+01
    -23.258  0.0000E+00  0.2000E+01
    -23.094  0.0000E+00  0.2000E+01
    -22.930  0.0000E+00  0.2000E+01
    -22.766  0.0000E+00  0.2000E+01
    -22.602  0.0000E+00  0.2000E+01
    -22.438  0.0000E+00  0.2000E+01
    -22.273  0.0000E+00  0.2000E+01
    -22.109  0.0000E+00  0.2000E+01
    -21.945  0.0000E+00  0.2000E+01
    -21.781  0.0000E+00  0.2000E+01
    -21.617  0.0000E+00  0.2000E+01
    -21.452  0.0000E+00  0.2000E+01
    -21.288  0.0000E+00  0.2000E+01
    -21.124  0.0000E+00  0.2000E+01
    -20.960  0.0000E+00  0.2000E+01
    -20.796  0.0000E+00  0.2000E+01
    -20.632  0.0000E+00  0.2000E+01
    -20.467  0.0000E+00  0.2000E+01
    -20.303  0.0000E+00  0.2000E+01
    -20.139  0.0000E+00  0.2000E+01
    -19.975  0.0000E+00  0.2000E+01
    -19.811  0.0000E+00  0.2000E+01
    -19.647  0.0000E+00  0.2000E+01
    -19.482  0.0000E+00  0.2000E+01
    -19.318  0.0000E+00  0.2000E+01
    -19.154  0.0000E+00  0.2000E+01
    -18.990  0.0000E+00  0.2000E+01
    -18.826  0.0000E+00  0.2000E+01
    -18.661  0.0000E+00  0.2000E+01
    -18.497  0.0000E+00  0.2000E+01
    -18.333  0.0000E+00  0.2000E+01
    -18.169  0.0000E+00  0.2000E+01
    -18.005  0.0000E+00  0.2000E+01
    -17.841  0.0000E+00  0.2000E+01
    -17.676  0.0000E+00  0.2000E+01
    -17.512  0.0000E+00  0.2000E+01
    -17.348  0.0000E+00  0.2000E+01
    -17.184  0.0000E+00  0.2000E+01
    -17.020  0.0000E+00  0.2000E+01
    -16.856  0.0000E+00  0.2000E+01
    -16.691  0.0000E+00  0.2000E+01
    -16.527  0.0000E+00  0.2000E+01
    -16.363  0.0000E+00  0.2000E+01
    -16.199  0.0000E+00  0.2000E+01
    -16.035  0.0000E+00  0.2000E+01
    -15.870  0.0000E+00  0.2000E+01
    -15.706  0.0000E+00  0.2000E+01
    -15.542  0.0000E+00  0.2000E+01
    -15.378  0.0000E+00  0.2000E+01
    -15.214  0.0000E+00  0.2000E+01
    -15.050  0.0000E+00  0.2000E+01
    -14.885  0.0000E+00  0.2000E+01
    -14.721  0.0000E+00  0.2000E+01
    -14.557  0.0000E+00  0.2000E+01
    -14.393  0.0000E+00  0.2000E+01
    -14.229  0.0000E+00  0.2000E+01
    -14.064  0.0000E+00  0.2000E+01
    -13.900  0.0000E+00  0.2000E+01
    -13.736  0.0000E+00  0.2000E+01
    -13.572  0.0000E+00  0.2000E+01
    -13.408  0.0000E+00  0.2000E+01
    -13.244  0.0000E+00  0.2000E+01
    -13.079  0.1047E+02  0.3719E+01
    -12.915  0.0000E+00  0.1200E+02
    -12.751  0.0000E+00  0.1200E+02
    -12.587  0.0000E+00  0.1200E+02
    -12.423  0.0000E+00  0.1200E+02
    -12.259  0.0000E+00  0.1200E+02
    -12.094  0.0000E+00  0.1200E+02
    -11.930  0.0000E+00  0.1200E+02
    -11.766  0.0000E+00  0.1200E+02
    -11.602  0.0000E+00  0.1200E+02
    -11.438  0.0000E+00  0.1200E+02
    -11.273  0.0000E+00  0.1200E+02
    -11.109  0.0000E+00  0.1200E+02
    -10.945  0.0000E+00  0.1200E+02
    -10.781  0.0000E+00  0.1200E+02
    -10.617  0.0000E+00  0.1200E+02
    -10.453  0.0000E+00  0.1200E+02
    -10.288  0.0000E+00  0.1200E+02
    -10.124  0.0000E+00  0.1200E+02
     -9.960  0.0000E+00  0.1200E+02
     -9.796  0.4193E-01  0.1201E+02
     -9.632  0.6150E+01  0.1455E+02
     -9.468  0.2639E+01  0.1800E+02
     -9.303  0.0000E+00  0.1800E+02
     -9.139  0.0000E+00  0.1800E+02
     -8.975  0.0000E+00  0.1800E+02
     -8.811  0.0000E+00  0.1800E+02
     -8.647  0.0000E+00  0.1800E+02
     -8.482  0.0000E+00  0.1800E+02
     -8.318  0.0000E+00  0.1800E+02
     -8.154  0.0000E+00  0.1800E+02
     -7.990  0.0000E+00  0.1800E+02
     -7.826  0.0000E+00  0.1800E+02
     -7.662  0.0000E+00  0.1800E+02
     -7.497  0.0000E+00  0.1800E+02
     -7.333  0.0000E+00  0.1800E+02
     -7.169  0.0000E+00  0.1800E+02
     -7.005  0.0000E+00  0.1800E+02
     -6.841  0.0000E+00  0.1800E+02
     -6.677  0.0000E+00  0.1800E+02
     -6.512  0.0000E+00  0.1800E+02
     -6.348  0.0000E+00  0.1800E+02
     -6.184  0.0000E+00  0.1800E+02
     -6.020  0.0000E+00  0.1800E+02
     -5.856  0.0000E+00  0.1800E+02
     -5.691  0.0000E+00  0.1800E+02
     -5.527  0.0000E+00  0.1800E+02
     -5.363  0.0000E+00  0.1800E+02
     -5.199  0.0000E+00  0.1800E+02
     -5.035  0.0000E+00  0.1800E+02
     -4.871  0.0000E+00  0.1800E+02
     -4.706  0.0000E+00  0.1800E+02
     -4.542  0.0000E+00  0.1800E+02
     -4.378  0.0000E+00  0.1800E+02
     -4.214  0.0000E+00  0.1800E+02
     -4.050  0.0000E+00  0.1800E+02
     -3.886  0.0000E+00  0.1800E+02
     -3.721  0.0000E+00  0.1800E+02
     -3.557  0.0000E+00  0.1800E+02
     -3.393  0.0000E+00  0.1800E+02
     -3.229  0.0000E+00  0.1800E+02
     -3.065  0.0000E+00  0.1800E+02
     -2.900  0.0000E+00  0.1800E+02
     -2.736  0.0000E+00  0.1800E+02
     -2.572  0.5545E-02  0.1800E+02
     -2.408  0.6653E-01  0.1802E+02
     -2.244  0.3918E-01  0.1806E+02
     -2.080  0.3099E+00  0.1815E+02
     -1.915  0.4259E+00  0.1828E+02
     -1.751  0.2088E+01  0.1870E+02
     -1.587  0.2751E+01  0.1964E+02
     -1.423  0.7079E+00  0.2000E+02
     -1.259  0.0000E+00  0.2000E+02
     -1.095  0.0000E+00  0.2000E+02
     -0.930  0.0000E+00  0.2000E+02
     -0.766  0.0000E+00  0.2000E+02
     -0.602  0.0000E+00  0.2000E+02
     -0.438  0.0000E+00  0.2000E+02
     -0.274  0.0000E+00  0.2000E+02
     -0.109  0.0000E+00  0.2000E+02
      0.055  0.0000E+00  0.2000E+02
      0.219  0.0000E+00  0.2000E+02
      0.383  0.0000E+00  0.2000E+02
      0.547  0.0000E+00  0.2000E+02
      0.711  0.0000E+00  0.2000E+02
      0.876  0.0000E+00  0.2000E+02
      1.040  0.0000E+00  0.2000E+02
      1.204  0.0000E+00  0.2000E+02
      1.368  0.0000E+00  0.2000E+02
      1.532  0.0000E+00  0.2000E+02
      1.697  0.0000E+00  0.2000E+02
      1.861  0.0000E+00  0.2000E+02
      2.025  0.0000E+00  0.2000E+02
      2.189  0.0000E+00  0.2000E+02
      2.353  0.0000E+00  0.2000E+02
      2.517  0.0000E+00  0.2000E+02
      2.682  0.0000E+00  0.2000E+02
      2.846  0.0000E+00  0.2000E+02
      3.010  0.0000E+00  0.2000E+02
      3.174  0.0000E+00  0.2000E+02
      3.338  0.0000E+00  0.2000E+02
      3.502  0.0000E+00  0.2000E+02
      3.667  0.8675E-01  0.2001E+02
      3.831  0.4436E+00  0.2015E+02
      3.995  0.1787E+01  0.2076E+02
      4.159  0.9315E+00  0.2114E+02
      4.323  0.4019E+00  0.2138E+02
      4.488  0.7547E+00  0.2162E+02
      4.652  0.2060E+01  0.2210E+02
      4.816  0.3203E+01  0.2332E+02
      4.980  0.2821E+01  0.2429E+02
      5.144  0.2893E+01  0.2518E+02
      5.308  0.1636E+01  0.2593E+02
      5.473  0.2439E+00  0.2605E+02
      5.637  0.3202E+01  0.2662E+02
      5.801  0.3263E+01  0.2857E+02
      5.965  0.3880E+01  0.3005E+02
      6.129  0.1349E+01  0.3049E+02
      6.293  0.1854E+01  0.3102E+02
      6.458  0.8887E+00  0.3140E+02
      6.622  0.7319E+00  0.3165E+02
      6.786  0.5594E+00  0.3186E+02
      6.950  0.3326E+00  0.3204E+02
      7.114  0.1642E+01  0.3237E+02
      7.279  0.6374E+00  0.3254E+02
      7.443  0.1110E+01  0.3282E+02
      7.607  0.5017E+00  0.3311E+02
      7.771  0.5977E+00  0.3329E+02
      7.935  0.6621E+00  0.3362E+02
      8.099  0.1449E+01  0.3390E+02
      8.264  0.3799E+01  0.3549E+02
      8.428  0.6874E+00  0.3593E+02
      8.592  0.7376E-01  0.3597E+02
      8.756  0.0000E+00  0.3600E+02
      8.920  0.4385E-01  0.3601E+02
      9.084  0.7878E-01  0.3604E+02
      9.249  0.8553E+00  0.3631E+02
      9.413  0.1798E+01  0.3697E+02
      9.577  0.2526E+01  0.3772E+02
      9.741  0.3724E+00  0.3802E+02
      9.905  0.1111E+02  0.4104E+02
     10.070  0.7352E+01  0.4315E+02
     10.234  0.8494E+01  0.4655E+02
     10.398  0.1088E+01  0.4799E+02
     10.562  0.0000E+00  0.4800E+02
     10.726  0.0000E+00  0.4800E+02
     10.890  0.0000E+00  0.4800E+02
     11.055  0.0000E+00  0.4800E+02
     11.219  0.0000E+00  0.4800E+02
     11.383  0.0000E+00  0.4800E+02
     11.547  0.0000E+00  0.4800E+02
     11.711  0.0000E+00  0.4800E+02
     11.875  0.0000E+00  0.4800E+02
     12.040  0.0000E+00  0.4800E+02
     12.204  0.0000E+00  0.4800E+02
     12.368  0.0000E+00  0.4800E+02
     12.532  0.0000E+00  0.4800E+02
     12.696  0.0000E+00  0.4800E+02
