    3    3    1    1
  0.2483116E+02  0.4722926E-09  0.4722926E-09  0.4722926E-09  0.5000000E-15
  1.000000000000000E-004
  CAR
 unknown system
     39     84     24

  0.0000000E+00  0.0000000E+00  0.0000000E+00  0.4551661E-03
    1      -34.317990   1.000000
    2      -13.066231   1.000000
    3      -13.066231   1.000000
    4      -13.038732   1.000000
    5      -13.038732   1.000000
    6      -13.038732   1.000000
    7       -9.590981   1.000000
    8       -9.590981   1.000000
    9       -9.590981   1.000000
   10       -2.601615   1.000000
   11        5.279193   1.000000
   12        5.279193   1.000000
   13        5.279193   1.000000
   14        5.546499   1.000000
   15        5.546499   1.000000
   16        8.155446   1.000000
   17        8.673584   1.000000
   18        8.673584   1.000000
   19        8.673584   1.000000
   20        9.794527   0.999769
   21        9.794527   0.999769
   22        9.794527   0.999769
   23        9.919779   0.000000
   24       10.049512   0.000000

  0.7692308E-01 -0.3050720E-17  0.2469699E-17  0.3641329E-02
    1      -34.317756   1.000000
    2      -13.067711   1.000000
    3      -13.067711   1.000000
    4      -13.038996   1.000000
    5      -13.038549   1.000000
    6      -13.038549   1.000000
    7       -9.604473   1.000000
    8       -9.587832   1.000000
    9       -9.587832   1.000000
   10       -2.536632   1.000000
   11        5.152894   1.000000
   12        5.167855   1.000000
   13        5.167855   1.000000
   14        5.650951   1.000000
   15        5.650951   1.000000
   16        7.784783   1.000000
   17        8.615689   1.000000
   18        8.615689   1.000000
   19        8.904215   1.000000
   20        9.754185   1.000000
   21        9.780903   1.000000
   22        9.780903   1.000000
   23       10.053979   0.000000
   24       10.123509   0.000000

  0.1538462E+00  0.3400954E-17 -0.4562996E-17  0.3641329E-02
    1      -34.317099   1.000000
    2      -13.071822   1.000000
    3      -13.071822   1.000000
    4      -13.039793   1.000000
    5      -13.037997   1.000000
    6      -13.037997   1.000000
    7       -9.640610   1.000000
    8       -9.579118   1.000000
    9       -9.579118   1.000000
   10       -2.355125   1.000000
   11        4.832252   1.000000
   12        5.007455   1.000000
   13        5.007455   1.000000
   14        5.781043   1.000000
   15        5.781043   1.000000
   16        7.221949   1.000000
   17        8.489781   1.000000
   18        8.489781   1.000000
   19        8.992318   1.000000
   20        9.772381   1.000000
   21        9.772381   1.000000
   22        9.959995   0.000000
   23       10.053600   0.000000
   24       10.258530   0.000000

  0.2307692E+00 -0.6588660E-17  0.4845598E-17  0.3641329E-02
    1      -34.316175   1.000000
    2      -13.077626   1.000000
    3      -13.077626   1.000000
    4      -13.041094   1.000000
    5      -13.037164   1.000000
    6      -13.037164   1.000000
    7       -9.688642   1.000000
    8       -9.566903   1.000000
    9       -9.566903   1.000000
   10       -2.095170   1.000000
   11        4.433916   1.000000
   12        4.884911   1.000000
   13        4.884911   1.000000
   14        5.831917   1.000000
   15        5.831917   1.000000
   16        6.693647   1.000000
   17        8.378404   1.000000
   18        8.378404   1.000000
   19        8.989592   1.000000
   20        9.783409   1.000000
   21        9.783409   1.000000
   22       10.058070   0.000000
   23       10.103132   0.000000
   24       10.329387   0.000000

  0.3076923E+00  0.6801908E-17 -0.9125991E-17  0.3641329E-02
    1      -34.315195   1.000000
    2      -13.083776   1.000000
    3      -13.083776   1.000000
    4      -13.042714   1.000000
    5      -13.036246   1.000000
    6      -13.036246   1.000000
    7       -9.736148   1.000000
    8       -9.554019   1.000000
    9       -9.554019   1.000000
   10       -1.813173   1.000000
   11        4.059246   1.000000
   12        4.816941   1.000000
   13        4.816941   1.000000
   14        5.788456   1.000000
   15        5.788456   1.000000
   16        6.271403   1.000000
   17        8.324435   1.000000
   18        8.324435   1.000000
   19        9.026356   1.000000
   20        9.811494   0.864828
   21        9.811494   0.864828
   22       10.063059   0.000000
   23       10.170041   0.000000
   24       10.297710   0.000000

  0.3846154E+00 -0.5478885E-17  0.2573781E-17  0.3641329E-02
    1      -34.314385   1.000000
    2      -13.088856   1.000000
    3      -13.088856   1.000000
    4      -13.044249   1.000000
    5      -13.035462   1.000000
    6      -13.035461   1.000000
    7       -9.772991   1.000000
    8       -9.543400   1.000000
    9       -9.543400   1.000000
   10       -1.574055   1.000000
   11        3.776853   1.000000
   12        4.798520   1.000000
   13        4.798520   1.000000
   14        5.691368   1.000000
   15        5.691368   1.000000
   16        5.985282   1.000000
   17        8.317562   1.000000
   18        8.317562   1.000000
   19        9.098819   1.000000
   20        9.852244   0.000002
   21        9.852244   0.000002
   22       10.210835   0.000000
   23       10.218916   0.000000
   24       10.221642   0.000000

  0.4615385E+00 -0.1054846E-16  0.7062336E-17  0.3641329E-02
    1      -34.313926   1.000000
    2      -13.091710   1.000000
    3      -13.091710   1.000000
    4      -13.045192   1.000000
    5      -13.035007   1.000000
    6      -13.035007   1.000000
    7       -9.792831   1.000000
    8       -9.537430   1.000000
    9       -9.537430   1.000000
   10       -1.436690   1.000000
   11        3.626865   1.000000
   12        4.804998   1.000000
   13        4.804998   1.000000
   14        5.612431   1.000000
   15        5.612431   1.000000
   16        5.842514   1.000000
   17        8.325261   1.000000
   18        8.325261   1.000000
   19        9.160935   1.000000
   20        9.890576   0.000000
   21        9.890576   0.000000
   22       10.152687   0.000000
   23       10.153248   0.000000
   24       10.253013   0.000000

  0.7692308E-01  0.7692308E-01 -0.2285198E-17  0.2730997E-02
    1      -34.317676   1.000000
    2      -13.070267   1.000000
    3      -13.065870   1.000000
    4      -13.039189   1.000000
    5      -13.038435   1.000000
    6      -13.038435   1.000000
    7       -9.598006   1.000000
    8       -9.592410   1.000000
    9       -9.592410   1.000000
   10       -2.516432   1.000000
   11        4.907467   1.000000
   12        5.293039   1.000000
   13        5.293039   1.000000
   14        5.560530   1.000000
   15        5.695075   1.000000
   16        7.764801   1.000000
   17        8.522249   1.000000
   18        8.522249   1.000000
   19        9.066987   1.000000
   20        9.674769   1.000000
   21        9.798000   0.998697
   22        9.798000   0.998697
   23       10.060111   0.000000
   24       10.081156   0.000000

  0.1538462E+00  0.7692308E-01 -0.1255843E-17  0.1092399E-01
    1      -34.317165   1.000000
    2      -13.074808   1.000000
    3      -13.067050   1.000000
    4      -13.039815   1.000000
    5      -13.038042   1.000000
    6      -13.037936   1.000000
    7       -9.625611   1.000000
    8       -9.590557   1.000000
    9       -9.582358   1.000000
   10       -2.378263   1.000000
   11        4.628663   1.000000
   12        5.182015   1.000000
   13        5.211012   1.000000
   14        5.651863   1.000000
   15        5.792510   1.000000
   16        7.388854   1.000000
   17        8.381870   1.000000
   18        8.385622   1.000000
   19        9.176121   1.000000
   20        9.735911   1.000000
   21        9.795162   0.999678
   22        9.879834   0.000000
   23       10.065747   0.000000
   24       10.208119   0.000000

  0.2307692E+00  0.7692308E-01 -0.8016216E-17  0.1092399E-01
    1      -34.316334   1.000000
    2      -13.080301   1.000000
    3      -13.071039   1.000000
    4      -13.040818   1.000000
    5      -13.037471   1.000000
    6      -13.037102   1.000000
    7       -9.670024   1.000000
    8       -9.582730   1.000000
    9       -9.568783   1.000000
   10       -2.152227   1.000000
   11        4.345656   1.000000
   12        4.967321   1.000000
   13        5.091230   1.000000
   14        5.728082   1.000000
   15        5.879514   1.000000
   16        6.901971   1.000000
   17        8.238962   1.000000
   18        8.282745   1.000000
   19        9.155817   1.000000
   20        9.766824   1.000000
   21        9.795886   0.999533
   22       10.060751   0.000000
   23       10.068533   0.000000
   24       10.296317   0.000000

  0.3076923E+00  0.7692308E-01 -0.8110017E-17  0.1092399E-01
    1      -34.315375   1.000000
    2      -13.085497   1.000000
    3      -13.076862   1.000000
    4      -13.042152   1.000000
    5      -13.036768   1.000000
    6      -13.036140   1.000000
    7       -9.717633   1.000000
    8       -9.570783   1.000000
    9       -9.556419   1.000000
   10       -1.888479   1.000000
   11        4.072308   1.000000
   12        4.802887   1.000000
   13        5.000813   1.000000
   14        5.714736   1.000000
   15        5.886808   1.000000
   16        6.450641   1.000000
   17        8.157457   1.000000
   18        8.247174   1.000000
   19        9.142747   1.000000
   20        9.803418   0.987599
   21        9.810423   0.895044
   22       10.070848   0.000000
   23       10.133649   0.000000
   24       10.290308   0.000000

  0.3846154E+00  0.7692308E-01 -0.1028803E-16  0.1092399E-01
    1      -34.314512   1.000000
    2      -13.089235   1.000000
    3      -13.083124   1.000000
    4      -13.043561   1.000000
    5      -13.036047   1.000000
    6      -13.035313   1.000000
    7       -9.757653   1.000000
    8       -9.557475   1.000000
    9       -9.548006   1.000000
   10       -1.647336   1.000000
   11        3.846535   1.000000
   12        4.734374   1.000000
   13        4.936290   1.000000
   14        5.648967   1.000000
   15        5.816080   1.000000
   16        6.106916   1.000000
   17        8.137488   1.000000
   18        8.259151   1.000000
   19        9.170873   1.000000
   20        9.841281   0.000935
   21        9.848341   0.000020
   22       10.071360   0.000000
   23       10.164732   0.000000
   24       10.247712   0.000000

  0.4615385E+00  0.7692308E-01 -0.1217120E-17  0.1092399E-01
    1      -34.313937   1.000000
    2      -13.090688   1.000000
    3      -13.088373   1.000000
    4      -13.044605   1.000000
    5      -13.035497   1.000000
    6      -13.034846   1.000000
    7       -9.782704   1.000000
    8       -9.545811   1.000000
    9       -9.545337   1.000000
   10       -1.485449   1.000000
   11        3.706460   1.000000
   12        4.750480   1.000000
   13        4.870110   1.000000
   14        5.610568   1.000000
   15        5.712276   1.000000
   16        5.901600   1.000000
   17        8.145000   1.000000
   18        8.280024   1.000000
   19        9.219598   1.000000
   20        9.883820   0.000000
   21        9.887483   0.000000
   22       10.066888   0.000000
   23       10.144701   0.000000
   24       10.214295   0.000000

 -0.4615385E+00  0.7692308E-01  0.7831426E-17  0.1092399E-01
    1      -34.313785   1.000000
    2      -13.091445   1.000000
    3      -13.089528   1.000000
    4      -13.044878   1.000000
    5      -13.035256   1.000000
    6      -13.034835   1.000000
    7       -9.789039   1.000000
    8       -9.548904   1.000000
    9       -9.538413   1.000000
   10       -1.441054   1.000000
   11        3.669969   1.000000
   12        4.786815   1.000000
   13        4.819249   1.000000
   14        5.629296   1.000000
   15        5.652347   1.000000
   16        5.851085   1.000000
   17        8.142191   1.000000
   18        8.288896   1.000000
   19        9.240031   1.000000
   20        9.890155   0.000000
   21        9.913266   0.000000
   22       10.059099   0.000000
   23       10.150468   0.000000
   24       10.182389   0.000000

 -0.3846154E+00  0.7692308E-01 -0.1085324E-16  0.1092399E-01
    1      -34.314089   1.000000
    2      -13.091670   1.000000
    3      -13.086004   1.000000
    4      -13.044257   1.000000
    5      -13.035416   1.000000
    6      -13.035273   1.000000
    7       -9.775888   1.000000
    8       -9.557801   1.000000
    9       -9.536944   1.000000
   10       -1.524824   1.000000
   11        3.743495   1.000000
   12        4.711497   1.000000
   13        4.904164   1.000000
   14        5.611470   1.000000
   15        5.757768   1.000000
   16        5.956270   1.000000
   17        8.108428   1.000000
   18        8.291607   1.000000
   19        9.210100   1.000000
   20        9.856708   0.000000
   21        9.891090   0.000000
   22       10.063315   0.000000
   23       10.177234   0.000000
   24       10.194236   0.000000

 -0.3076923E+00  0.7692308E-01 -0.3735822E-17  0.1092399E-01
    1      -34.314778   1.000000
    2      -13.089022   1.000000
    3      -13.080865   1.000000
    4      -13.042990   1.000000
    5      -13.036036   1.000000
    6      -13.035939   1.000000
    7       -9.745198   1.000000
    8       -9.569925   1.000000
    9       -9.541761   1.000000
   10       -1.717357   1.000000
   11        3.928307   1.000000
   12        4.679577   1.000000
   13        4.990683   1.000000
   14        5.656695   1.000000
   15        5.871021   1.000000
   16        6.207742   1.000000
   17        8.053107   1.000000
   18        8.313533   1.000000
   19        9.163747   1.000000
   20        9.821063   0.400943
   21        9.842873   0.000426
   22       10.067984   0.000000
   23       10.174288   0.000000
   24       10.240523   0.000000

 -0.2307692E+00  0.7692308E-01 -0.3829624E-17  0.1092399E-01
    1      -34.315698   1.000000
    2      -13.084097   1.000000
    3      -13.075263   1.000000
    4      -13.041534   1.000000
    5      -13.036930   1.000000
    6      -13.036703   1.000000
    7       -9.702146   1.000000
    8       -9.582374   1.000000
    9       -9.551817   1.000000
   10       -1.972971   1.000000
   11        4.209951   1.000000
   12        4.711986   1.000000
   13        5.095237   1.000000
   14        5.700166   1.000000
   15        5.932858   1.000000
   16        6.589589   1.000000
   17        8.022356   1.000000
   18        8.382315   1.000000
   19        9.142136   1.000000
   20        9.797651   0.998894
   21        9.798141   0.998608
   22       10.066424   0.000000
   23       10.122924   0.000000
   24       10.303958   0.000000

 -0.1538462E+00  0.7692308E-01 -0.6007640E-17  0.1092399E-01
    1      -34.316638   1.000000
    2      -13.077995   1.000000
    3      -13.070508   1.000000
    4      -13.040289   1.000000
    5      -13.037745   1.000000
    6      -13.037513   1.000000
    7       -9.655803   1.000000
    8       -9.591830   1.000000
    9       -9.564853   1.000000
   10       -2.231570   1.000000
   11        4.547736   1.000000
   12        4.813780   1.000000
   13        5.225895   1.000000
   14        5.675164   1.000000
   15        5.907413   1.000000
   16        7.054420   1.000000
   17        8.091228   1.000000
   18        8.496367   1.000000
   19        9.150007   1.000000
   20        9.766894   1.000000
   21        9.785790   0.999999
   22       10.032984   0.000000
   23       10.062357   0.000000
   24       10.287142   0.000000

 -0.7692308E-01  0.7692308E-01 -0.6101441E-17  0.5461994E-02
    1      -34.317379   1.000000
    2      -13.072093   1.000000
    3      -13.067777   1.000000
    4      -13.039435   1.000000
    5      -13.038307   1.000000
    6      -13.038163   1.000000
    7       -9.619451   1.000000
    8       -9.594119   1.000000
    9       -9.577865   1.000000
   10       -2.434337   1.000000
   11        4.882090   1.000000
   12        4.975455   1.000000
   13        5.305134   1.000000
   14        5.615143   1.000000
   15        5.800067   1.000000
   16        7.492328   1.000000
   17        8.327676   1.000000
   18        8.600696   1.000000
   19        9.102042   1.000000
   20        9.759288   1.000000
   21        9.766538   1.000000
   22        9.857919   0.000000
   23       10.056660   0.000000
   24       10.161614   0.000000

  0.1538462E+00  0.1538462E+00 -0.4570396E-17  0.2730997E-02
    1      -34.316816   1.000000
    2      -13.078701   1.000000
    3      -13.064858   1.000000
    4      -13.040506   1.000000
    5      -13.037531   1.000000
    6      -13.037531   1.000000
    7       -9.618790   1.000000
    8       -9.596504   1.000000
    9       -9.596504   1.000000
   10       -2.296541   1.000000
   11        4.337175   1.000000
   12        5.320603   1.000000
   13        5.320603   1.000000
   14        5.599955   1.000000
   15        5.736969   1.000000
   16        7.356339   1.000000
   17        8.250869   1.000000
   18        8.250869   1.000000
   19        9.231218   1.000000
   20        9.807315   0.954797
   21        9.807315   0.954797
   22        9.817501   0.599806
   23       10.091896   0.000000
   24       10.277207   0.000000

  0.2307692E+00  0.1538462E+00 -0.9999732E-18  0.1092399E-01
    1      -34.316135   1.000000
    2      -13.082564   1.000000
    3      -13.065858   1.000000
    4      -13.041403   1.000000
    5      -13.036967   1.000000
    6      -13.036754   1.000000
    7       -9.651826   1.000000
    8       -9.595625   1.000000
    9       -9.586796   1.000000
   10       -2.131004   1.000000
   11        4.098223   1.000000
   12        5.200018   1.000000
   13        5.268571   1.000000
   14        5.655622   1.000000
   15        5.786002   1.000000
   16        7.091372   1.000000
   17        8.076708   1.000000
   18        8.157634   1.000000
   19        9.253894   1.000000
   20        9.777496   1.000000
   21        9.812171   0.842924
   22        9.991397   0.000000
   23       10.104463   0.000000
   24       10.311826   0.000000

  0.3076923E+00  0.1538462E+00 -0.6887079E-17  0.1092399E-01
    1      -34.315278   1.000000
    2      -13.085542   1.000000
    3      -13.069841   1.000000
    4      -13.042317   1.000000
    5      -13.036540   1.000000
    6      -13.035768   1.000000
    7       -9.695926   1.000000
    8       -9.588173   1.000000
    9       -9.574923   1.000000
   10       -1.922479   1.000000
   11        3.939221   1.000000
   12        4.982431   1.000000
   13        5.180982   1.000000
   14        5.672140   1.000000
   15        5.855664   1.000000
   16        6.715630   1.000000
   17        7.902572   1.000000
   18        8.136291   1.000000
   19        9.282677   1.000000
   20        9.795178   0.999675
   21        9.822480   0.325873
   22       10.071858   0.000000
   23       10.105696   0.000000
   24       10.308656   0.000000

  0.3846154E+00  0.1538462E+00 -0.6773917E-17  0.1092399E-01
    1      -34.314441   1.000000
    2      -13.086984   1.000000
    3      -13.075758   1.000000
    4      -13.043159   1.000000
    5      -13.036275   1.000000
    6      -13.034889   1.000000
    7       -9.735427   1.000000
    8       -9.575895   1.000000
    9       -9.568653   1.000000
   10       -1.720648   1.000000
   11        3.865082   1.000000
   12        4.814495   1.000000
   13        5.085753   1.000000
   14        5.646079   1.000000
   15        5.860795   1.000000
   16        6.343333   1.000000
   17        7.812879   1.000000
   18        8.161646   1.000000
   19        9.297133   1.000000
   20        9.839143   0.002494
   21        9.846347   0.000065
   22       10.100502   0.000000
   23       10.101274   0.000000
   24       10.279015   0.000000

  0.4615385E+00  0.1538462E+00 -0.2285361E-17  0.1092399E-01
    1      -34.313817   1.000000
    2      -13.086611   1.000000
    3      -13.082179   1.000000
    4      -13.043750   1.000000
    5      -13.036129   1.000000
    6      -13.034374   1.000000
    7       -9.762286   1.000000
    8       -9.569454   1.000000
    9       -9.561602   1.000000
   10       -1.569782   1.000000
   11        3.850644   1.000000
   12        4.745897   1.000000
   13        4.963053   1.000000
   14        5.649286   1.000000
   15        5.800228   1.000000
   16        6.069756   1.000000
   17        7.781913   1.000000
   18        8.188684   1.000000
   19        9.325149   1.000000
   20        9.876592   0.000000
   21        9.886186   0.000000
   22       10.086539   0.000000
   23       10.116388   0.000000
   24       10.257257   0.000000

 -0.4615385E+00  0.1538462E+00  0.6763185E-17  0.1092399E-01
    1      -34.313547   1.000000
    2      -13.087655   1.000000
    3      -13.084568   1.000000
    4      -13.043855   1.000000
    5      -13.036089   1.000000
    6      -13.034345   1.000000
    7       -9.772389   1.000000
    8       -9.576741   1.000000
    9       -9.548517   1.000000
   10       -1.498683   1.000000
   11        3.850008   1.000000
   12        4.783536   1.000000
   13        4.819212   1.000000
   14        5.707959   1.000000
   15        5.717815   1.000000
   16        5.959358   1.000000
   17        7.759213   1.000000
   18        8.196631   1.000000
   19        9.353312   1.000000
   20        9.878613   0.000000
   21        9.934061   0.000000
   22       10.057521   0.000000
   23       10.144129   0.000000
   24       10.236523   0.000000

 -0.3846154E+00  0.1538462E+00  0.1583410E-16  0.1092399E-01
    1      -34.313693   1.000000
    2      -13.090979   1.000000
    3      -13.081286   1.000000
    4      -13.043363   1.000000
    5      -13.036168   1.000000
    6      -13.034773   1.000000
    7       -9.764960   1.000000
    8       -9.588232   1.000000
    9       -9.539589   1.000000
   10       -1.520391   1.000000
   11        3.846837   1.000000
   12        4.691150   1.000000
   13        4.900656   1.000000
   14        5.636394   1.000000
   15        5.830492   1.000000
   16        6.028609   1.000000
   17        7.704106   1.000000
   18        8.197651   1.000000
   19        9.352869   1.000000
   20        9.850214   0.000006
   21        9.948334   0.000000
   22       10.042240   0.000000
   23       10.175266   0.000000
   24       10.223948   0.000000

 -0.3076923E+00  0.1538462E+00 -0.2217061E-18  0.1092399E-01
    1      -34.314222   1.000000
    2      -13.091473   1.000000
    3      -13.077433   1.000000
    4      -13.042487   1.000000
    5      -13.036368   1.000000
    6      -13.035519   1.000000
    7       -9.742146   1.000000
    8       -9.600310   1.000000
    9       -9.536857   1.000000
   10       -1.634144   1.000000
   11        3.882145   1.000000
   12        4.612748   1.000000
   13        5.056139   1.000000
   14        5.607779   1.000000
   15        5.941910   1.000000
   16        6.255200   1.000000
   17        7.612290   1.000000
   18        8.222383   1.000000
   19        9.326892   1.000000
   20        9.821644   0.369502
   21        9.900876   0.000000
   22       10.066901   0.000000
   23       10.165422   0.000000
   24       10.201842   0.000000

 -0.2307692E+00  0.1538462E+00 -0.4897864E-17  0.1092399E-01
    1      -34.315011   1.000000
    2      -13.089024   1.000000
    3      -13.073790   1.000000
    4      -13.041595   1.000000
    5      -13.036657   1.000000
    6      -13.036387   1.000000
    7       -9.709572   1.000000
    8       -9.608247   1.000000
    9       -9.540980   1.000000
   10       -1.820294   1.000000
   11        4.008815   1.000000
   12        4.604191   1.000000
   13        5.213730   1.000000
   14        5.601823   1.000000
   15        6.004602   1.000000
   16        6.583631   1.000000
   17        7.544270   1.000000
   18        8.296271   1.000000
   19        9.296526   1.000000
   20        9.804944   0.978750
   21        9.844320   0.000200
   22       10.077419   0.000000
   23       10.134746   0.000000
   24       10.252476   0.000000

 -0.1538462E+00  0.1538462E+00  0.6801908E-17  0.5461994E-02
    1      -34.315884   1.000000
    2      -13.084187   1.000000
    3      -13.071247   1.000000
    4      -13.040885   1.000000
    5      -13.037182   1.000000
    6      -13.037034   1.000000
    7       -9.677497   1.000000
    8       -9.606087   1.000000
    9       -9.551077   1.000000
   10       -2.037242   1.000000
   11        4.241538   1.000000
   12        4.672867   1.000000
   13        5.319039   1.000000
   14        5.595385   1.000000
   15        5.991234   1.000000
   16        6.883353   1.000000
   17        7.669255   1.000000
   18        8.408242   1.000000
   19        9.257967   1.000000
   20        9.795242   0.999664
   21        9.795796   0.999554
   22       10.073462   0.000000
   23       10.092995   0.000000
   24       10.307264   0.000000

  0.2307692E+00  0.2307692E+00 -0.6855594E-17  0.2730997E-02
    1      -34.315627   1.000000
    2      -13.083841   1.000000
    3      -13.063429   1.000000
    4      -13.042447   1.000000
    5      -13.036093   1.000000
    6      -13.036093   1.000000
    7       -9.651653   1.000000
    8       -9.602628   1.000000
    9       -9.602628   1.000000
   10       -2.041838   1.000000
   11        3.913809   1.000000
   12        5.329008   1.000000
   13        5.329008   1.000000
   14        5.638619   1.000000
   15        5.656932   1.000000
   16        7.057705   1.000000
   17        8.073351   1.000000
   18        8.073351   1.000000
   19        9.212463   1.000000
   20        9.823009   0.299383
   21        9.823009   0.299383
   22        9.954288   0.000000
   23       10.144134   0.000000
   24       10.385662   0.000000

  0.3076923E+00  0.2307692E+00 -0.4725516E-17  0.1092399E-01
    1      -34.314923   1.000000
    2      -13.083798   1.000000
    3      -13.064389   1.000000
    4      -13.043371   1.000000
    5      -13.035450   1.000000
    6      -13.035163   1.000000
    7       -9.682350   1.000000
    8       -9.602161   1.000000
    9       -9.598568   1.000000
   10       -1.912829   1.000000
   11        3.841616   1.000000
   12        5.178603   1.000000
   13        5.286464   1.000000
   14        5.680277   1.000000
   15        5.682706   1.000000
   16        6.856680   1.000000
   17        7.914917   1.000000
   18        8.061495   1.000000
   19        9.296827   1.000000
   20        9.809823   0.909658
   21        9.834512   0.015660
   22        9.999934   0.000000
   23       10.162268   0.000000
   24       10.366123   0.000000

  0.3846154E+00  0.2307692E+00 -0.5757942E-17  0.1092399E-01
    1      -34.314190   1.000000
    2      -13.082492   1.000000
    3      -13.068458   1.000000
    4      -13.043925   1.000000
    5      -13.035316   1.000000
    6      -13.034258   1.000000
    7       -9.716570   1.000000
    8       -9.595213   1.000000
    9       -9.594399   1.000000
   10       -1.778177   1.000000
   11        3.888534   1.000000
   12        4.964531   1.000000
   13        5.195288   1.000000
   14        5.687624   1.000000
   15        5.765763   1.000000
   16        6.574474   1.000000
   17        7.679458   1.000000
   18        8.094160   1.000000
   19        9.386340   1.000000
   20        9.822545   0.322550
   21        9.854780   0.000000
   22       10.035489   0.000000
   23       10.159146   0.000000
   24       10.322587   0.000000

  0.4615385E+00  0.2307692E+00 -0.1056482E-16  0.1092399E-01
    1      -34.313592   1.000000
    2      -13.080286   1.000000
    3      -13.074539   1.000000
    4      -13.043925   1.000000
    5      -13.035700   1.000000
    6      -13.033698   1.000000
    7       -9.740411   1.000000
    8       -9.599864   1.000000
    9       -9.581136   1.000000
   10       -1.665600   1.000000
   11        4.016541   1.000000
   12        4.816705   1.000000
   13        5.057908   1.000000
   14        5.713984   1.000000
   15        5.790374   1.000000
   16        6.296125   1.000000
   17        7.502084   1.000000
   18        8.118964   1.000000
   19        9.424827   1.000000
   20        9.853861   0.000001
   21        9.888654   0.000000
   22       10.072848   0.000000
   23       10.139244   0.000000
   24       10.278754   0.000000

 -0.4615385E+00  0.2307692E+00  0.2165695E-16  0.1092399E-01
    1      -34.313266   1.000000
    2      -13.081198   1.000000
    3      -13.077796   1.000000
    4      -13.043271   1.000000
    5      -13.036456   1.000000
    6      -13.033633   1.000000
    7       -9.749168   1.000000
    8       -9.611847   1.000000
    9       -9.565381   1.000000
   10       -1.590890   1.000000
   11        4.125806   1.000000
   12        4.765998   1.000000
   13        4.892213   1.000000
   14        5.734663   1.000000
   15        5.786449   1.000000
   16        6.148831   1.000000
   17        7.384996   1.000000
   18        8.114046   1.000000
   19        9.450821   1.000000
   20        9.856248   0.000000
   21        9.934621   0.000000
   22       10.099206   0.000000
   23       10.128511   0.000000
   24       10.246242   0.000000

 -0.3846154E+00  0.2307692E+00 -0.2478329E-16  0.1092399E-01
    1      -34.313287   1.000000
    2      -13.086975   1.000000
    3      -13.075621   1.000000
    4      -13.042135   1.000000
    5      -13.037281   1.000000
    6      -13.034038   1.000000
    7       -9.743252   1.000000
    8       -9.626879   1.000000
    9       -9.550692   1.000000
   10       -1.563153   1.000000
   11        4.103802   1.000000
   12        4.735847   1.000000
   13        4.826269   1.000000
   14        5.666017   1.000000
   15        5.887183   1.000000
   16        6.190774   1.000000
   17        7.289593   1.000000
   18        8.099579   1.000000
   19        9.462461   1.000000
   20        9.830031   0.064361
   21        9.982847   0.000000
   22       10.043942   0.000000