       N       E                     dE             d eps       ncg     rms          rms(c)
DAV:   1     0.430665926391E+03    0.43067E+03   -0.22400E+04  4032   0.231E+03
DAV:   2     0.300628542654E+02   -0.40060E+03   -0.39288E+03  4432   0.501E+02
DAV:   3    -0.205108493331E+02   -0.50574E+02   -0.49474E+02  4944   0.179E+02
DAV:   4    -0.258908990187E+02   -0.53800E+01   -0.53558E+01  7680   0.464E+01
DAV:   5    -0.260654031600E+02   -0.17450E+00   -0.17428E+00  5432   0.726E+00    0.147E+01
DAV:   6    -0.337798537432E+02   -0.77145E+01   -0.20310E+02  6056   0.904E+01    0.220E+01
DAV:   7    -0.247147507706E+02    0.90651E+01   -0.26729E+01  5848   0.281E+01    0.100E+01
DAV:   8    -0.246007892337E+02    0.11396E+00   -0.32697E+01  5896   0.235E+01    0.834E+00
DAV:   9    -0.237498009914E+02    0.85099E+00   -0.94643E+00  6312   0.181E+01    0.144E+00
DAV:  10    -0.238008540312E+02   -0.51053E-01   -0.54389E-01  6912   0.344E+00    0.163E+00
DAV:  11    -0.237580943395E+02    0.42760E-01   -0.34224E-01  6016   0.294E+00    0.324E-01
DAV:  12    -0.237589966352E+02   -0.90230E-03   -0.96565E-03  6704   0.548E-01    0.173E-01
DAV:  13    -0.237587773983E+02    0.21924E-03   -0.15162E-03  6224   0.241E-01    0.516E-02
DAV:  14    -0.237587590403E+02    0.18358E-04   -0.23126E-04  6896   0.885E-02    0.136E-02
DAV:  15    -0.237587597029E+02   -0.66261E-06   -0.21086E-05  5840   0.306E-02    0.134E-02
DAV:  16    -0.237587581311E+02    0.15718E-05   -0.30056E-05  6088   0.246E-02    0.494E-03
DAV:  17    -0.237587579972E+02    0.13394E-06   -0.13011E-06  6992   0.671E-03    0.314E-03
DAV:  18    -0.237587579103E+02    0.86842E-07   -0.26074E-07  3968   0.270E-03
   1 F= -.23758758E+02 E0= -.23757901E+02  d E =-.171447E-02
