 vasp.6.0.8 29Jun18 (build Jun 13 2019 12:54:44) complex

 executed on      IFC18_CrayMPICH date 2021.12.05  14:21:49
 running   64 mpi-ranks, with    1 threads/rank
 distrk:  each k-point on   16 cores,    4 groups
 distr:  one band on NCORES_PER_BAND=   4 cores,    4 groups


--------------------------------------------------------------------------------------------------------


 INCAR:
 POTCAR:    PAW_PBE U 06Sep2000
 POTCAR:    PAW_PBE Bi_d 06Sep2000
 POTCAR:    PAW_PBE Pt 04Feb2005
 POTCAR:    PAW_PBE U 06Sep2000
   VRHFIN =U:  [Xe,5d,4f]
   LEXCH  = PE
   EATOM  =  1405.3058 eV,  103.2871 Ry

   TITEL  = PAW_PBE U 06Sep2000
   LULTRA =        F    use ultrasoft PP ?
   IUNSCR =        1    unscreen: 0-lin 1-nonlin 2-no
   RPACOR =    2.200    partial core radius
   POMASS =  238.029; ZVAL   =   14.000    mass and valenz
   RCORE  =    2.800    outmost cutoff radius
   RWIGS  =    3.000; RWIGS  =    1.588    wigner-seitz radius (au A)
   ENMAX  =  252.502; ENMIN  =  189.376 eV
   RCLOC  =    1.811    cutoff for local pot
   LCOR   =        T    correct aug charges
   LPAW   =        T    paw PP
   EAUG   =  526.410
   DEXC   =    0.000
   RMAX   =    2.863    core radius for proj-oper
   RAUG   =    1.300    factor for augmentation sphere
   RDEP   =    2.950    radius for radial grids
   RDEPT  =    2.270    core radius for aug-charge

   Atomic configuration
   18 entries
     n  l   j            E        occ.
     1  0  0.50   -116038.1941   2.0000
     2  0  0.50    -21694.8835   2.0000
     2  1  1.50    -18009.1553   6.0000
     3  0  0.50     -5481.2929   2.0000
     3  1  1.50     -4458.9283   6.0000
     3  2  2.50     -3575.9978  10.0000
     4  0  0.50     -1400.5351   2.0000
     4  1  1.50     -1066.7807   6.0000
     4  2  2.50      -732.1336  10.0000
     4  3  3.50      -377.4393  14.0000
     5  0  0.50      -314.7366   2.0000
     5  1  1.50      -211.6057   6.0000
     5  2  2.50      -103.2045  10.0000
     6  0  0.50       -50.6026   2.0000
     7  0  0.50        -4.5896   2.0000
     6  1  1.50       -25.2884   6.0000
     6  2  1.50        -3.1039   2.0000
     5  3  2.50        -6.3670   2.0000
   Description
     l       E           TYP  RCUT    TYP  RCUT
     0    -50.6026097     23  2.600
     0     -4.5896371     23  2.600
     1    -25.2883770     23  2.500
     1     27.2116520     23  2.500
     2     -3.1038686     23  2.500
     2      0.8290654     23  2.500
     3     -6.3670133     23  2.800
     3     -7.7275959     23  2.800
  local pseudopotential read in
  partial core-charges read in
  partial kinetic energy density read in
  atomic valenz-charges read in
  non local Contribution for L=           0  read in
    real space projection operators read in
  non local Contribution for L=           0  read in
    real space projection operators read in
  non local Contribution for L=           1  read in
    real space projection operators read in
  non local Contribution for L=           1  read in
    real space projection operators read in
  non local Contribution for L=           2  read in
    real space projection operators read in
  non local Contribution for L=           2  read in
    real space projection operators read in
  non local Contribution for L=           3  read in
    real space projection operators read in
  non local Contribution for L=           3  read in
    real space projection operators read in
    PAW grid and wavefunctions read in

   number of l-projection  operators is LMAX  =           8
   number of lm-projection operators is LMMAX =          32

 POTCAR:    PAW_PBE Bi_d 06Sep2000
   VRHFIN =Bi:
   LEXCH  = PE
   EATOM  =  1959.2045 eV,  143.9975 Ry

   TITEL  = PAW_PBE Bi_d 06Sep2000
   LULTRA =        F    use ultrasoft PP ?
   IUNSCR =        1    unscreen: 0-lin 1-nonlin 2-no
   RPACOR =    2.200    partial core radius
   POMASS =  208.980; ZVAL   =   15.000    mass and valenz
   RCORE  =    2.500    outmost cutoff radius
   RWIGS  =    3.090; RWIGS  =    1.635    wigner-seitz radius (au A)
   ENMAX  =  242.839; ENMIN  =  182.129 eV
   ICORE  =        3    local potential
   LCOR   =        T    correct aug charges
   LPAW   =        T    paw PP
   EAUG   =  442.899
   DEXC   =    0.000
   RMAX   =    2.551    core radius for proj-oper
   RAUG   =    1.300    factor for augmentation sphere
   RDEP   =    2.650    radius for radial grids
   RDEPT  =    2.039    core radius for aug-charge

   Atomic configuration
   16 entries
     n  l   j            E        occ.
     1  0  0.50    -90639.6581   2.0000
     2  0  0.50    -16282.4666   2.0000
     2  1  1.50    -13922.8286   6.0000
     3  0  0.50     -3930.4763   2.0000
     3  1  1.50     -3256.7013   6.0000
     3  2  2.50     -2581.6168  10.0000
     4  0  0.50      -902.2614   2.0000
     4  1  1.50      -681.5915   6.0000
     4  2  2.50      -429.8249  10.0000
     4  3  3.50      -152.6004  14.0000
     5  0  0.50      -157.7156   2.0000
     5  1  1.50       -95.8054   6.0000
     5  2  2.50       -27.0806  10.0000
     6  0  0.50       -14.4732   2.0000
     6  1  1.50        -4.5702   3.0000
     5  3  2.50        -2.7212   0.0000
   Description
     l       E           TYP  RCUT    TYP  RCUT
     2    -27.0805982     23  2.500
     2     -1.3605826     23  2.500
     0    -14.4732271     23  2.500
     0      6.8029130     23  2.500
     1     -4.5701651     23  2.500
     1     13.6058260     23  2.500
     3     -1.3605826      7  2.500
  local pseudopotential read in
  partial core-charges read in
  partial kinetic energy density read in
  atomic valenz-charges read in
  non local Contribution for L=           2  read in
    real space projection operators read in
  non local Contribution for L=           2  read in
    real space projection operators read in
  non local Contribution for L=           0  read in
    real space projection operators read in
  non local Contribution for L=           0  read in
    real space projection operators read in
  non local Contribution for L=           1  read in
    real space projection operators read in
  non local Contribution for L=           1  read in
    real space projection operators read in
    PAW grid and wavefunctions read in

   number of l-projection  operators is LMAX  =           6
   number of lm-projection operators is LMMAX =          18

 POTCAR:    PAW_PBE Pt 04Feb2005
   VRHFIN =Pt: s1d9
   LEXCH  = PE
   EATOM  =   729.1176 eV,   53.5886 Ry

   TITEL  = PAW_PBE Pt 04Feb2005
   LULTRA =        F    use ultrasoft PP ?
   IUNSCR =        1    unscreen: 0-lin 1-nonlin 2-no
   RPACOR =    2.330    partial core radius
   POMASS =  195.080; ZVAL   =   10.000    mass and valenz
   RCORE  =    2.600    outmost cutoff radius
   RWIGS  =    2.750; RWIGS  =    1.455    wigner-seitz radius (au A)
   ENMAX  =  230.283; ENMIN  =  172.712 eV
   ICORE  =        3    local potential
   LCOR   =        T    correct aug charges
   LPAW   =        T    paw PP
   EAUG   =  358.966
   DEXC   =    0.000
   RMAX   =    2.658    core radius for proj-oper
   RAUG   =    1.300    factor for augmentation sphere
   RDEP   =    2.761    radius for radial grids
   RDEPT  =    2.203    core radius for aug-charge

   Atomic configuration
   16 entries
     n  l   j            E        occ.
     1  0  0.50    -78401.1885   2.0000
     2  0  0.50    -13770.7750   2.0000
     2  1  1.50    -11931.0468   6.0000
     3  0  0.50     -3234.7234   2.0000
     3  1  1.50     -2699.2216   6.0000
     3  2  2.50     -2119.5714  10.0000
     4  0  0.50      -695.1528   2.0000
     4  1  1.50      -519.6034   6.0000
     4  2  2.50      -306.6786  10.0000
     4  3  3.50       -70.1041  14.0000
     5  0  0.50      -101.7747   2.0000
     5  1  1.50       -55.9873   6.0000
     5  2  2.50        -6.1423   9.0000
     6  0  0.50        -5.6573   1.0000
     6  1  1.50        -6.8029   0.0000
     5  3  2.50        -1.3606   0.0000
   Description
     l       E           TYP  RCUT    TYP  RCUT
     2     -6.1423404     23  2.500
     2     -7.5029230     23  2.500
     0     -5.6573207     23  2.500
     0      0.7416693     23  2.500
     1     -2.7211652     23  2.600
     1     20.4087390     23  2.600
     3     -1.3605826     23  2.500
  local pseudopotential read in
  partial core-charges read in
  partial kinetic energy density read in
  atomic valenz-charges read in
  non local Contribution for L=           2  read in
    real space projection operators read in
  non local Contribution for L=           2  read in
    real space projection operators read in
  non local Contribution for L=           0  read in
    real space projection operators read in
  non local Contribution for L=           0  read in
    real space projection operators read in
  non local Contribution for L=           1  read in
    real space projection operators read in
  non local Contribution for L=           1  read in
    real space projection operators read in
    PAW grid and wavefunctions read in

   number of l-projection  operators is LMAX  =           6
   number of lm-projection operators is LMMAX =          18

 WARNING: PSMAXN for non-local potential too small
          PSMAXN should be >   13.5545592237991       NTYP=           1

 -----------------------------------------------------------------------------
|                                                                             |
|  ADVICE TO THIS USER RUNNING 'VASP/VAMP'   (HEAR YOUR MASTER'S VOICE ...):  |
|                                                                             |
|      You enforced a specific xc-type in the INCAR file,                     |
|      a different type was found on the POTCAR file                          |
|          I HOPE YOU KNOW, WHAT YOU ARE  DOING                               |
|                                                                             |
 -----------------------------------------------------------------------------

  PAW_PBE U 06Sep2000                   :
 energy of atom  1       EATOM=-1405.3058
 kinetic energy error for atom=    0.0006 (will be added to EATOM!!)
  PAW_PBE Bi_d 06Sep2000                :
 energy of atom  2       EATOM=-1959.2045
 kinetic energy error for atom=    0.0012 (will be added to EATOM!!)
  PAW_PBE Pt 04Feb2005                  :
 energy of atom  3       EATOM= -729.1176
 kinetic energy error for atom=    0.0010 (will be added to EATOM!!)


 POSCAR: U1 Bi1 Pt1
  positions in direct lattice
  No initial velocities read in
 exchange correlation table for  LEXCH =       14
   RHO(1)=    0.500       N(1)  =     2000
   RHO(2)=  100.500       N(2)  =     4000



--------------------------------------------------------------------------------------------------------


 ion  position               nearest neighbor table
   1  0.250  0.250  0.250-   3 2.89   3 2.89   3 2.89   3 2.89   2 3.34   2 3.34   2 3.34   2 3.34
                             2 3.34   2 3.34
   2  0.750  0.750  0.750-   3 2.89   3 2.89   3 2.89   3 2.89   1 3.34   1 3.34   1 3.34   1 3.34
                             1 3.34   1 3.34
   3  0.000  0.000  0.000-   2 2.89   1 2.89   2 2.89   1 2.89   2 2.89   2 2.89   1 2.89   1 2.89


  LATTYP: Found a face centered cubic cell.
 ALAT       =     6.6792255455

  Lattice vectors:

 A1 = (   0.0000000000,   3.3396127728,   3.3396127728)
 A2 = (   3.3396127728,   0.0000000000,   3.3396127728)
 A3 = (   3.3396127728,   3.3396127728,   0.0000000000)


Analysis of symmetry for initial positions (statically):
=====================================================================
 Subroutine PRICEL returns:
 Original cell was already a primitive cell.


 Routine SETGRP: Setting up the symmetry group for a
 face centered cubic supercell.


 Subroutine GETGRP returns: Found 24 space group operations
 (whereof 24 operations were pure point group operations)
 out of a pool of 48 trial point group operations.


The static configuration has the point symmetry T_d .


Analysis of symmetry for dynamics (positions and initial velocities):
=====================================================================
 Subroutine PRICEL returns:
 Original cell was already a primitive cell.


 Routine SETGRP: Setting up the symmetry group for a
 face centered cubic supercell.


 Subroutine GETGRP returns: Found 24 space group operations
 (whereof 24 operations were pure point group operations)
 out of a pool of 48 trial point group operations.


The dynamic configuration has the point symmetry T_d .


 Subroutine INISYM returns: Found 24 space group operations
 (whereof 24 operations are pure point group operations),
 and found     1 'primitive' translations


----------------------------------------------------------------------------------------

                                     Primitive cell

  volume of cell :      74.4935

  direct lattice vectors                    reciprocal lattice vectors
     0.000000000  3.339612773  3.339612773    -0.149717957  0.149717957  0.149717957
     3.339612773  0.000000000  3.339612773     0.149717957 -0.149717957  0.149717957
     3.339612773  3.339612773  0.000000000     0.149717957  0.149717957 -0.149717957

  length of vectors
     4.722925676  4.722925676  4.722925676     0.259319108  0.259319108  0.259319108

  position of ions in fractional coordinates (direct lattice)
     0.250000000  0.250000000  0.250000000
     0.750000000  0.750000000  0.750000000
     0.000000000  0.000000000  0.000000000

  ion indices of the primitive-cell ions
   primitive index   ion index
                 1           1
                 2           2
                 3           3

----------------------------------------------------------------------------------------



 KPOINTS: KPOINTS

Automatic generation of k-mesh.
Space group operators:
 irot       det(A)        alpha          n_x          n_y          n_z        tau_x        tau_y        tau_z
    1     1.000000     0.000000     1.000000     0.000000     0.000000     0.000000     0.000000     0.000000
    2     1.000000   120.000000    -0.577350    -0.577350    -0.577350     0.000000     0.000000     0.000000
    3     1.000000   120.000000     0.577350     0.577350     0.577350     0.000000     0.000000     0.000000
    4    -1.000000    90.000000     0.000000     0.000000    -1.000000     0.000000     0.000000     0.000000
    5    -1.000000   180.000000    -0.000000     0.707107     0.707107     0.000000     0.000000     0.000000
    6    -1.000000    90.000000     0.000000     1.000000     0.000000     0.000000     0.000000     0.000000
    7     1.000000   180.000000    -0.000000    -0.000000    -1.000000     0.000000     0.000000     0.000000
    8     1.000000   120.000000    -0.577350     0.577350     0.577350     0.000000     0.000000     0.000000
    9     1.000000   120.000000    -0.577350     0.577350    -0.577350     0.000000     0.000000     0.000000
   10    -1.000000    90.000000     0.000000     0.000000     1.000000     0.000000     0.000000     0.000000
   11    -1.000000    90.000000    -1.000000    -0.000000     0.000000     0.000000     0.000000     0.000000
   12    -1.000000   180.000000     0.707107     0.000000     0.707107     0.000000     0.000000     0.000000
   13     1.000000   120.000000     0.577350    -0.577350     0.577350     0.000000     0.000000     0.000000
   14     1.000000   120.000000    -0.577350    -0.577350     0.577350     0.000000     0.000000     0.000000
   15     1.000000   180.000000     1.000000     0.000000     0.000000     0.000000     0.000000     0.000000
   16    -1.000000    90.000000     0.000000    -1.000000     0.000000     0.000000     0.000000     0.000000
   17    -1.000000   180.000000     0.707107     0.707107     0.000000     0.000000     0.000000     0.000000
   18    -1.000000    90.000000     1.000000    -0.000000    -0.000000     0.000000     0.000000     0.000000
   19     1.000000   120.000000     0.577350    -0.577350    -0.577350     0.000000     0.000000     0.000000
   20     1.000000   180.000000    -0.000000    -1.000000    -0.000000     0.000000     0.000000     0.000000
   21     1.000000   120.000000     0.577350     0.577350    -0.577350     0.000000     0.000000     0.000000
   22    -1.000000   180.000000     0.000000    -0.707107     0.707107     0.000000     0.000000     0.000000
   23    -1.000000   180.000000     0.707107    -0.707107     0.000000     0.000000     0.000000     0.000000
   24    -1.000000   180.000000     0.707107     0.000000    -0.707107     0.000000     0.000000     0.000000

 Subroutine IBZKPT returns following result:
 ===========================================

 Found     84 irreducible k-points:

 Following reciprocal coordinates:
            Coordinates               Weight
  0.000000  0.000000  0.000000      1.000000
  0.076923 -0.000000  0.000000      8.000000
  0.153846  0.000000 -0.000000      8.000000
  0.230769 -0.000000  0.000000      8.000000
  0.307692  0.000000 -0.000000      8.000000
  0.384615 -0.000000  0.000000      8.000000
  0.461538 -0.000000  0.000000      8.000000
  0.076923  0.076923 -0.000000      6.000000
  0.153846  0.076923 -0.000000     24.000000
  0.230769  0.076923 -0.000000     24.000000
  0.307692  0.076923 -0.000000     24.000000
  0.384615  0.076923 -0.000000     24.000000
  0.461538  0.076923 -0.000000     24.000000
 -0.461538  0.076923  0.000000     24.000000
 -0.384615  0.076923 -0.000000     24.000000
 -0.307692  0.076923 -0.000000     24.000000
 -0.230769  0.076923 -0.000000     24.000000
 -0.153846  0.076923 -0.000000     24.000000
 -0.076923  0.076923 -0.000000     12.000000
  0.153846  0.153846 -0.000000      6.000000
  0.230769  0.153846 -0.000000     24.000000
  0.307692  0.153846 -0.000000     24.000000
  0.384615  0.153846 -0.000000     24.000000
  0.461538  0.153846 -0.000000     24.000000
 -0.461538  0.153846  0.000000     24.000000
 -0.384615  0.153846  0.000000     24.000000
 -0.307692  0.153846 -0.000000     24.000000
 -0.230769  0.153846 -0.000000     24.000000
 -0.153846  0.153846  0.000000     12.000000
  0.230769  0.230769 -0.000000      6.000000
  0.307692  0.230769 -0.000000     24.000000
  0.384615  0.230769 -0.000000     24.000000
  0.461538  0.230769 -0.000000     24.000000
 -0.461538  0.230769  0.000000     24.000000
 -0.384615  0.230769 -0.000000     24.000000
 -0.307692  0.230769  0.000000     24.000000
 -0.230769  0.230769 -0.000000     12.000000
  0.307692  0.307692 -0.000000      6.000000
  0.384615  0.307692 -0.000000     24.000000
  0.461538  0.307692 -0.000000     24.000000
 -0.461538  0.307692  0.000000     24.000000
 -0.384615  0.307692 -0.000000     24.000000
 -0.307692  0.307692  0.000000     12.000000
  0.384615  0.384615 -0.000000      6.000000
  0.461538  0.384615 -0.000000     24.000000
 -0.461538  0.384615 -0.000000     24.000000
 -0.384615  0.384615 -0.000000     12.000000
  0.461538  0.461538 -0.000000      6.000000
 -0.461538  0.461538 -0.000000     12.000000
  0.230769  0.153846  0.076923     24.000000
  0.307692  0.153846  0.076923     48.000000
  0.384615  0.153846  0.076923     48.000000
  0.461538  0.153846  0.076923     48.000000
 -0.461538  0.153846  0.076923     48.000000
  0.307692  0.230769  0.076923     24.000000
  0.384615  0.230769  0.076923     48.000000
  0.461538  0.230769  0.076923     48.000000
 -0.461538  0.230769  0.076923     48.000000
 -0.384615  0.230769  0.076923     48.000000
 -0.307692  0.230769  0.076923     48.000000
 -0.230769  0.230769  0.076923     48.000000
 -0.153846  0.230769  0.076923     24.000000
  0.384615  0.307692  0.076923     24.000000
  0.461538  0.307692  0.076923     48.000000
 -0.461538  0.307692  0.076923     48.000000
 -0.384615  0.307692  0.076923     48.000000
 -0.307692  0.307692  0.076923     48.000000
 -0.230769  0.307692  0.076923     24.000000
  0.461538  0.384615  0.076923     24.000000
 -0.461538  0.384615  0.076923     48.000000
 -0.384615  0.384615  0.076923     48.000000
 -0.307692  0.384615  0.076923     24.000000
 -0.461538  0.461538  0.076923     24.000000
 -0.384615  0.461538  0.076923     24.000000
  0.461538  0.307692  0.153846     24.000000
 -0.461538  0.307692  0.153846     48.000000
 -0.384615  0.307692  0.153846     48.000000
 -0.461538  0.384615  0.153846     24.000000
 -0.384615  0.384615  0.153846     48.000000
 -0.307692  0.384615  0.153846     48.000000
 -0.230769  0.384615  0.153846     24.000000
 -0.384615  0.461538  0.153846     24.000000
 -0.307692  0.461538  0.153846     24.000000
 -0.307692  0.461538  0.230769     24.000000

 Following cartesian coordinates:
            Coordinates               Weight
  0.000000  0.000000  0.000000      1.000000
 -0.011593  0.011593  0.011593      8.000000
 -0.023186  0.023186  0.023186      8.000000
 -0.034779  0.034779  0.034779      8.000000
 -0.046372  0.046372  0.046372      8.000000
 -0.057965  0.057965  0.057965      8.000000
 -0.069558  0.069558  0.069558      8.000000
 -0.000000  0.000000  0.023186      6.000000
 -0.011593  0.011593  0.034779     24.000000
 -0.023186  0.023186  0.046372     24.000000
 -0.034779  0.034779  0.057965     24.000000
 -0.046372  0.046372  0.069558     24.000000
 -0.057965  0.057965  0.081151     24.000000
  0.081151 -0.081151 -0.057965     24.000000
  0.069558 -0.069558 -0.046372     24.000000
  0.057965 -0.057965 -0.034779     24.000000
  0.046372 -0.046372 -0.023186     24.000000
  0.034779 -0.034779 -0.011593     24.000000
  0.023186 -0.023186  0.000000     12.000000
 -0.000000  0.000000  0.046372      6.000000
 -0.011593  0.011593  0.057965     24.000000
 -0.023186  0.023186  0.069558     24.000000
 -0.034779  0.034779  0.081151     24.000000
 -0.046372  0.046372  0.092744     24.000000
  0.092744 -0.092744 -0.046372     24.000000
  0.081151 -0.081151 -0.034779     24.000000
  0.069558 -0.069558 -0.023186     24.000000
  0.057965 -0.057965 -0.011593     24.000000
  0.046372 -0.046372 -0.000000     12.000000
  0.000000 -0.000000  0.069558      6.000000
 -0.011593  0.011593  0.081151     24.000000
 -0.023186  0.023186  0.092744     24.000000
 -0.034779  0.034779  0.104337     24.000000
  0.104337 -0.104337 -0.034779     24.000000
  0.092744 -0.092744 -0.023186     24.000000
  0.081151 -0.081151 -0.011593     24.000000
  0.069558 -0.069558  0.000000     12.000000
 -0.000000  0.000000  0.092744      6.000000
 -0.011593  0.011593  0.104337     24.000000
 -0.023186  0.023186  0.115930     24.000000
  0.115930 -0.115930 -0.023186     24.000000
  0.104337 -0.104337 -0.011593     24.000000
  0.092744 -0.092744 -0.000000     12.000000
 -0.000000 -0.000000  0.115930      6.000000
 -0.011593  0.011593  0.127523     24.000000
  0.127523 -0.127523 -0.011593     24.000000
  0.115930 -0.115930  0.000000     12.000000
 -0.000000  0.000000  0.139116      6.000000
  0.139116 -0.139116 -0.000000     12.000000
 -0.000000  0.023186  0.046372     24.000000
 -0.011593  0.034779  0.057965     48.000000
 -0.023186  0.046372  0.069558     48.000000
 -0.034779  0.057965  0.081151     48.000000
  0.104337 -0.081151 -0.057965     48.000000
  0.000000  0.023186  0.069558     24.000000
 -0.011593  0.034779  0.081151     48.000000
 -0.023186  0.046372  0.092744     48.000000
  0.115930 -0.092744 -0.046372     48.000000
  0.104337 -0.081151 -0.034779     48.000000
  0.092744 -0.069558 -0.023186     48.000000
  0.081151 -0.057965 -0.011593     48.000000
  0.069558 -0.046372  0.000000     24.000000
 -0.000000  0.023186  0.092744     24.000000
 -0.011593  0.034779  0.104337     48.000000
  0.127523 -0.104337 -0.034779     48.000000
  0.115930 -0.092744 -0.023186     48.000000
  0.104337 -0.081151 -0.011593     48.000000
  0.092744 -0.069558 -0.000000     24.000000
  0.000000  0.023186  0.115930     24.000000
  0.139116 -0.115930 -0.023186     48.000000
  0.127523 -0.104337 -0.011593     48.000000
  0.115930 -0.092744  0.000000     24.000000
  0.150709 -0.127523 -0.011593     24.000000
  0.139116 -0.115930 -0.000000     24.000000
 -0.000000  0.046372  0.092744     24.000000
  0.139116 -0.092744 -0.046372     48.000000
  0.127523 -0.081151 -0.034779     48.000000
  0.150709 -0.104337 -0.034779     24.000000
  0.139116 -0.092744 -0.023186     48.000000
  0.127523 -0.081151 -0.011593     48.000000
  0.115930 -0.069558 -0.000000     24.000000
  0.150709 -0.104337 -0.011593     24.000000
  0.139116 -0.092744  0.000000     24.000000
  0.150709 -0.081151 -0.011593     24.000000



--------------------------------------------------------------------------------------------------------




 Dimension of arrays:
   k-points           NKPTS =     84   k-points in BZ     NKDIM =     84   number of bands    NBANDS=     24
   number of dos      NEDOS =    301   number of ions     NIONS =      3
   non local maximal  LDIM  =      8   non local SUM 2l+1 LMDIM =     32
   total plane-waves  NPLWV =  74088
   max r-space proj   IRMAX =      1   max aug-charges    IRDMAX= 485421
   dimension x,y,z NGX =    42 NGY =   42 NGZ =   42
   dimension x,y,z NGXF=    84 NGYF=   84 NGZF=   84
   support grid    NGXF=   168 NGYF=  168 NGZF=  168
   ions per type =               1   1   1
   NGX,Y,Z   is equivalent  to a cutoff of  14.78, 14.78, 14.78 a.u.
   NGXF,Y,Z  is equivalent  to a cutoff of  29.57, 29.57, 29.57 a.u.

 SYSTEM =  unknown system
 POSCAR =  U1 Bi1 Pt1

 Startparameter for this run:
   NWRITE =      2    write-flag & timer
   PREC   = acc       normal or accurate (medium, high low for compatibility)
   ISTART =      0    job   : 0-new  1-cont  2-samecut
   ICHARG =      2    charge: 1-file 2-atom 10-const
   ISPIN  =      1    spin polarized calculation?
   LNONCOLLINEAR =      F non collinear calculations
   LSORBIT =      F    spin-orbit coupling
   INIWAV =      1    electr: 0-lowe 1-rand  2-diag
   LASPH  =      F    aspherical Exc in radial PAW
   METAGGA=      F    non-selfconsistent MetaGGA calc.

 Electronic Relaxation 1
   ENCUT  =  700.0 eV  51.45 Ry    7.17 a.u.  10.19 10.19 10.19*2*pi/ulx,y,z
   ENINI  =  700.0     initial cutoff
   ENAUG  =  526.4 eV  augmentation charge cutoff
   NELM   =     60;   NELMIN=  5; NELMDL= -5     # of ELM steps
   EDIFF  = 0.1E-06   stopping-criterion for ELM
   LREAL  =      F    real-space projection
   NLSPLINE    = F    spline interpolate recip. space projectors
   LCOMPAT=      F    compatible to vasp.4.4
   GGA_COMPAT  = T    GGA compatible to vasp.4.4-vasp.4.6
   LMAXPAW     = -100 max onsite density
   LMAXMIX     =    2 max onsite mixed and CHGCAR
   VOSKOWN=      0    Vosko Wilk Nusair interpolation
   ROPT   =    0.00000   0.00000   0.00000
 Ionic relaxation
   EDIFFG = 0.1E-05   stopping-criterion for IOM
   NSW    =      0    number of steps for IOM
   NBLOCK =      1;   KBLOCK =      1    inner block; outer block
   IBRION =     -1    ionic relax: 0-MD 1-quasi-New 2-CG
   NFREE  =      0    steps in history (QN), initial steepest desc. (CG)
   ISIF   =      3    stress and relaxation
   IWAVPR =     10    prediction:  0-non 1-charg 2-wave 3-comb
   ISYM   =      2    0-nonsym 1-usesym 2-fastsym
   LCORR  =      T    Harris-Foulkes like correction to forces

   POTIM  = 0.5000    time-step for ionic-motion
   TEIN   =    0.0    initial temperature
   TEBEG  =    0.0;   TEEND  =   0.0 temperature during run
   SMASS  =  -3.00    Nose mass-parameter (am)
   estimated Nose-frequenzy (Omega)   =  0.10E-29 period in steps = 0.13E+47 mass=  -0.510E-27a.u.
   SCALEE = 1.0000    scale energy and forces
   NPACO  =    256;   APACO  = 16.0  distance and # of slots for P.C.
   PSTRESS=    0.0 pullay stress

  Mass of Ions in am
   POMASS = 238.03208.98195.08
  Ionic Valenz
   ZVAL   =  14.00 15.00 10.00
  Atomic Wigner-Seitz radii
   RWIGS  =  -1.00 -1.00 -1.00
  virtual crystal weights
   VCA    =   1.00  1.00  1.00
   NELECT =      39.0000    total number of electrons
   NUPDOWN=      -1.0000    fix difference up-down

 DOS related values:
   EMIN   =  10.00;   EMAX   =-10.00  energy-range for DOS
   EFERMI =   0.00
   ISMEAR =     0;   SIGMA  =   0.01  broadening in eV -4-tet -1-fermi 0-gaus

 Electronic relaxation 2 (details)
   IALGO  =     38    algorithm
   LDIAG  =      T    sub-space diagonalisation (order eigenvalues)
   LSUBROT=      F    optimize rotation matrix (better conditioning)
   TURBO    =      0    0=normal 1=particle mesh
   IRESTART =      0    0=no restart 2=restart with 2 vectors
   NREBOOT  =      0    no. of reboots
   NMIN     =      0    reboot dimension
   EREF     =   0.00    reference energy to select bands
   IMIX   =      4    mixing-type and parameters
     AMIX     =   0.40;   BMIX     =  1.00
     AMIX_MAG =   1.60;   BMIX_MAG =  1.00
     AMIN     =   0.10
     WC   =   100.;   INIMIX=   1;  MIXPRE=   1;  MAXMIX= -45

 Intra band minimization:
   WEIMIN = 0.0000     energy-eigenvalue tresh-hold
   EBREAK =  0.10E-08  absolut break condition
   DEPER  =   0.30     relativ break condition

   TIME   =   0.40     timestep for ELM

  volume/ion in A,a.u.               =      24.83       167.57
  Fermi-wavevector in a.u.,A,eV,Ry     =   1.319442  2.493384 23.686747  1.740927
  Thomas-Fermi vector in A             =   2.449340

 Write flags
   LWAVE        =      F    write WAVECAR
   LDOWNSAMPLE  =      F    k-point downsampling of WAVECAR
   LCHARG       =      F    write CHGCAR
   LVTOT        =      F    write LOCPOT, total local potential
   LVHAR        =      F    write LOCPOT, Hartree potential only
   LELF         =      F    write electronic localiz. function (ELF)
   LORBIT       =      0    0 simple, 1 ext, 2 COOP (PROOUT), +10 PAW based schemes


 Dipole corrections
   LMONO  =      F    monopole corrections only (constant potential shift)
   LDIPOL =      F    correct potential (dipole corrections)
   IDIPOL =      0    1-x, 2-y, 3-z, 4-all directions
   EPSILON=  1.0000000 bulk dielectric constant

 Exchange correlation treatment:
   GGA     =    PS    GGA type
   LEXCH   =    14    internal setting for exchange type
   VOSKOWN=      0    Vosko Wilk Nusair interpolation
   LHFCALC =     F    Hartree Fock is set to
   LHFONE  =     F    Hartree Fock one center treatment
   AEXX    =    0.0000 exact exchange contribution

 Linear response parameters
   LEPSILON=     F    determine dielectric tensor
   LRPA    =     F    only Hartree local field effects (RPA)
   LNABLA  =     F    use nabla operator in PAW spheres
   LVEL    =     F    velocity operator in full k-point grid
   LINTERFAST=   F  fast interpolation
   KINTER  =     0    interpolate to denser k-point grid
   CSHIFT  =0.1000    complex shift for real part using Kramers Kronig
   OMEGAMAX=  -1.0    maximum frequency
   DEG_THRESHOLD= 0.2000000E-02 threshold for treating states as degnerate
   RTIME   =   -0.100 relaxation time in fs
  (WPLASMAI=    0.000 imaginary part of plasma frequency in eV, 0.658/RTIME)
   DFIELD  = 0.0000000 0.0000000 0.0000000 field for delta impulse in time

 Orbital magnetization related:
   ORBITALMAG=     F  switch on orbital magnetization
   LCHIMAG   =     F  perturbation theory with respect to B field
   DQ        =  0.001000  dq finite difference perturbation B field
   LLRAUG    =     F  two centre corrections for induced B field



--------------------------------------------------------------------------------------------------------


 Static calculation
 charge density and potential will be updated during run
 non-spin polarized calculation
 Variant of blocked Davidson
 Davidson routine will perform the subspace rotation
 perform sub-space diagonalisation
    after iterative eigenvector-optimisation
 modified Broyden-mixing scheme, WC =      100.0
 initial mixing is a Kerker type mixing with AMIX =  0.4000 and BMIX =      1.0000
 Hartree-type preconditioning will be used
 using additional bands            4
 reciprocal scheme for non local part
 use partial core corrections
 calculate Harris-corrections to forces
   (improved forces if not selfconsistent)
 use gradient corrections
 use of overlap-Matrix (Vanderbilt PP)
 Gauss-broadening in eV      SIGMA  =   0.01


--------------------------------------------------------------------------------------------------------


  energy-cutoff  :      700.00
  volume of cell :       74.49
      direct lattice vectors                 reciprocal lattice vectors
     0.000000000  3.339612773  3.339612773    -0.149717957  0.149717957  0.149717957
     3.339612773  0.000000000  3.339612773     0.149717957 -0.149717957  0.149717957
     3.339612773  3.339612773  0.000000000     0.149717957  0.149717957 -0.149717957

  length of vectors
     4.722925676  4.722925676  4.722925676     0.259319108  0.259319108  0.259319108



 k-points in units of 2pi/SCALE and weight: KPOINTS
   0.00000000  0.00000000  0.00000000       0.000
  -0.01159304  0.01159304  0.01159304       0.004
  -0.02318608  0.02318608  0.02318608       0.004
  -0.03477911  0.03477911  0.03477911       0.004
  -0.04637215  0.04637215  0.04637215       0.004
  -0.05796519  0.05796519  0.05796519       0.004
  -0.06955823  0.06955823  0.06955823       0.004
  -0.00000000  0.00000000  0.02318608       0.003
  -0.01159304  0.01159304  0.03477911       0.011
  -0.02318608  0.02318608  0.04637215       0.011
  -0.03477911  0.03477911  0.05796519       0.011
  -0.04637215  0.04637215  0.06955823       0.011
  -0.05796519  0.05796519  0.08115127       0.011
   0.08115127 -0.08115127 -0.05796519       0.011
   0.06955823 -0.06955823 -0.04637215       0.011
   0.05796519 -0.05796519 -0.03477911       0.011
   0.04637215 -0.04637215 -0.02318608       0.011
   0.03477911 -0.03477911 -0.01159304       0.011
   0.02318608 -0.02318608  0.00000000       0.005
  -0.00000000  0.00000000  0.04637215       0.003
  -0.01159304  0.01159304  0.05796519       0.011
  -0.02318608  0.02318608  0.06955823       0.011
  -0.03477911  0.03477911  0.08115127       0.011
  -0.04637215  0.04637215  0.09274430       0.011
   0.09274430 -0.09274430 -0.04637215       0.011
   0.08115127 -0.08115127 -0.03477911       0.011
   0.06955823 -0.06955823 -0.02318608       0.011
   0.05796519 -0.05796519 -0.01159304       0.011
   0.04637215 -0.04637215 -0.00000000       0.005
   0.00000000 -0.00000000  0.06955823       0.003
  -0.01159304  0.01159304  0.08115127       0.011
  -0.02318608  0.02318608  0.09274430       0.011
  -0.03477911  0.03477911  0.10433734       0.011
   0.10433734 -0.10433734 -0.03477911       0.011
   0.09274430 -0.09274430 -0.02318608       0.011
   0.08115127 -0.08115127 -0.01159304       0.011
   0.06955823 -0.06955823  0.00000000       0.005
  -0.00000000  0.00000000  0.09274430       0.003
  -0.01159304  0.01159304  0.10433734       0.011
  -0.02318608  0.02318608  0.11593038       0.011
   0.11593038 -0.11593038 -0.02318608       0.011
   0.10433734 -0.10433734 -0.01159304       0.011
   0.09274430 -0.09274430 -0.00000000       0.005
  -0.00000000 -0.00000000  0.11593038       0.003
  -0.01159304  0.01159304  0.12752342       0.011
   0.12752342 -0.12752342 -0.01159304       0.011
   0.11593038 -0.11593038  0.00000000       0.005
  -0.00000000  0.00000000  0.13911646       0.003
   0.13911646 -0.13911646 -0.00000000       0.005
  -0.00000000  0.02318608  0.04637215       0.011
  -0.01159304  0.03477911  0.05796519       0.022
  -0.02318608  0.04637215  0.06955823       0.022
  -0.03477911  0.05796519  0.08115127       0.022
   0.10433734 -0.08115127 -0.05796519       0.022
   0.00000000  0.02318608  0.06955823       0.011
  -0.01159304  0.03477911  0.08115127       0.022
  -0.02318608  0.04637215  0.09274430       0.022
   0.11593038 -0.09274430 -0.04637215       0.022
   0.10433734 -0.08115127 -0.03477911       0.022
   0.09274430 -0.06955823 -0.02318608       0.022
   0.08115127 -0.05796519 -0.01159304       0.022
   0.06955823 -0.04637215  0.00000000       0.011
  -0.00000000  0.02318608  0.09274430       0.011
  -0.01159304  0.03477911  0.10433734       0.022
   0.12752342 -0.10433734 -0.03477911       0.022
   0.11593038 -0.09274430 -0.02318608       0.022
   0.10433734 -0.08115127 -0.01159304       0.022
   0.09274430 -0.06955823 -0.00000000       0.011
   0.00000000  0.02318608  0.11593038       0.011
   0.13911646 -0.11593038 -0.02318608       0.022
   0.12752342 -0.10433734 -0.01159304       0.022
   0.11593038 -0.09274430  0.00000000       0.011
   0.15070950 -0.12752342 -0.01159304       0.011
   0.13911646 -0.11593038 -0.00000000       0.011
  -0.00000000  0.04637215  0.09274430       0.011
   0.13911646 -0.09274430 -0.04637215       0.022
   0.12752342 -0.08115127 -0.03477911       0.022
   0.15070950 -0.10433734 -0.03477911       0.011
   0.13911646 -0.09274430 -0.02318608       0.022
   0.12752342 -0.08115127 -0.01159304       0.022
   0.11593038 -0.06955823 -0.00000000       0.011
   0.15070950 -0.10433734 -0.01159304       0.011
   0.13911646 -0.09274430  0.00000000       0.011
   0.15070950 -0.08115127 -0.01159304       0.011

 k-points in reciprocal lattice and weights: KPOINTS
   0.00000000  0.00000000  0.00000000       0.000
   0.07692308 -0.00000000  0.00000000       0.004
   0.15384615  0.00000000 -0.00000000       0.004
   0.23076923 -0.00000000  0.00000000       0.004
   0.30769231  0.00000000 -0.00000000       0.004
   0.38461538 -0.00000000  0.00000000       0.004
   0.46153846 -0.00000000  0.00000000       0.004
   0.07692308  0.07692308 -0.00000000       0.003
   0.15384615  0.07692308 -0.00000000       0.011
   0.23076923  0.07692308 -0.00000000       0.011
   0.30769231  0.07692308 -0.00000000       0.011
   0.38461538  0.07692308 -0.00000000       0.011
   0.46153846  0.07692308 -0.00000000       0.011
  -0.46153846  0.07692308  0.00000000       0.011
  -0.38461538  0.07692308 -0.00000000       0.011
  -0.30769231  0.07692308 -0.00000000       0.011
  -0.23076923  0.07692308 -0.00000000       0.011
  -0.15384615  0.07692308 -0.00000000       0.011
  -0.07692308  0.07692308 -0.00000000       0.005
   0.15384615  0.15384615 -0.00000000       0.003
   0.23076923  0.15384615 -0.00000000       0.011
   0.30769231  0.15384615 -0.00000000       0.011
   0.38461538  0.15384615 -0.00000000       0.011
   0.46153846  0.15384615 -0.00000000       0.011
  -0.46153846  0.15384615  0.00000000       0.011
  -0.38461538  0.15384615  0.00000000       0.011
  -0.30769231  0.15384615 -0.00000000       0.011
  -0.23076923  0.15384615 -0.00000000       0.011
  -0.15384615  0.15384615  0.00000000       0.005
   0.23076923  0.23076923 -0.00000000       0.003
   0.30769231  0.23076923 -0.00000000       0.011
   0.38461538  0.23076923 -0.00000000       0.011
   0.46153846  0.23076923 -0.00000000       0.011
  -0.46153846  0.23076923  0.00000000       0.011
  -0.38461538  0.23076923 -0.00000000       0.011
  -0.30769231  0.23076923  0.00000000       0.011
  -0.23076923  0.23076923 -0.00000000       0.005
   0.30769231  0.30769231 -0.00000000       0.003
   0.38461538  0.30769231 -0.00000000       0.011
   0.46153846  0.30769231 -0.00000000       0.011
  -0.46153846  0.30769231  0.00000000       0.011
  -0.38461538  0.30769231 -0.00000000       0.011
  -0.30769231  0.30769231  0.00000000       0.005
   0.38461538  0.38461538 -0.00000000       0.003
   0.46153846  0.38461538 -0.00000000       0.011
  -0.46153846  0.38461538 -0.00000000       0.011
  -0.38461538  0.38461538 -0.00000000       0.005
   0.46153846  0.46153846 -0.00000000       0.003
  -0.46153846  0.46153846 -0.00000000       0.005
   0.23076923  0.15384615  0.07692308       0.011
   0.30769231  0.15384615  0.07692308       0.022
   0.38461538  0.15384615  0.07692308       0.022
   0.46153846  0.15384615  0.07692308       0.022
  -0.46153846  0.15384615  0.07692308       0.022
   0.30769231  0.23076923  0.07692308       0.011
   0.38461538  0.23076923  0.07692308       0.022
   0.46153846  0.23076923  0.07692308       0.022
  -0.46153846  0.23076923  0.07692308       0.022
  -0.38461538  0.23076923  0.07692308       0.022
  -0.30769231  0.23076923  0.07692308       0.022
  -0.23076923  0.23076923  0.07692308       0.022
  -0.15384615  0.23076923  0.07692308       0.011
   0.38461538  0.30769231  0.07692308       0.011
   0.46153846  0.30769231  0.07692308       0.022
  -0.46153846  0.30769231  0.07692308       0.022
  -0.38461538  0.30769231  0.07692308       0.022
  -0.30769231  0.30769231  0.07692308       0.022
  -0.23076923  0.30769231  0.07692308       0.011
   0.46153846  0.38461538  0.07692308       0.011
  -0.46153846  0.38461538  0.07692308       0.022
  -0.38461538  0.38461538  0.07692308       0.022
  -0.30769231  0.38461538  0.07692308       0.011
  -0.46153846  0.46153846  0.07692308       0.011
  -0.38461538  0.46153846  0.07692308       0.011
   0.46153846  0.30769231  0.15384615       0.011
  -0.46153846  0.30769231  0.15384615       0.022
  -0.38461538  0.30769231  0.15384615       0.022
  -0.46153846  0.38461538  0.15384615       0.011
  -0.38461538  0.38461538  0.15384615       0.022
  -0.30769231  0.38461538  0.15384615       0.022
  -0.23076923  0.38461538  0.15384615       0.011
  -0.38461538  0.46153846  0.15384615       0.011
  -0.30769231  0.46153846  0.15384615       0.011
  -0.30769231  0.46153846  0.23076923       0.011

 position of ions in fractional coordinates (direct lattice)
   0.25000000  0.25000000  0.25000000
   0.75000000  0.75000000  0.75000000
   0.00000000  0.00000000  0.00000000

 position of ions in cartesian coordinates  (Angst):
   1.66980639  1.66980639  1.66980639
   5.00941916  5.00941916  5.00941916
   0.00000000  0.00000000  0.00000000



--------------------------------------------------------------------------------------------------------


 k-point  1 :   0.0000 0.0000 0.0000  plane waves:    3119
 k-point  2 :   0.0769-0.0000 0.0000  plane waves:    3140
 k-point  3 :   0.1538 0.0000-0.0000  plane waves:    3125
 k-point  4 :   0.2308-0.0000 0.0000  plane waves:    3128
 k-point  5 :   0.3077 0.0000-0.0000  plane waves:    3131
 k-point  6 :   0.3846-0.0000 0.0000  plane waves:    3142
 k-point  7 :   0.4615-0.0000 0.0000  plane waves:    3133
 k-point  8 :   0.0769 0.0769-0.0000  plane waves:    3123
 k-point  9 :   0.1538 0.0769-0.0000  plane waves:    3137
 k-point 10 :   0.2308 0.0769-0.0000  plane waves:    3130
 k-point 11 :   0.3077 0.0769-0.0000  plane waves:    3121
 k-point 12 :   0.3846 0.0769-0.0000  plane waves:    3132
 k-point 13 :   0.4615 0.0769-0.0000  plane waves:    3129
 k-point 14 :  -0.4615 0.0769 0.0000  plane waves:    3144
 k-point 15 :  -0.3846 0.0769-0.0000  plane waves:    3137
 k-point 16 :  -0.3077 0.0769-0.0000  plane waves:    3118
 k-point 17 :  -0.2308 0.0769-0.0000  plane waves:    3133
 k-point 18 :  -0.1538 0.0769-0.0000  plane waves:    3133
 k-point 19 :  -0.0769 0.0769-0.0000  plane waves:    3129
 k-point 20 :   0.1538 0.1538-0.0000  plane waves:    3143
 k-point 21 :   0.2308 0.1538-0.0000  plane waves:    3140
 k-point 22 :   0.3077 0.1538-0.0000  plane waves:    3125
 k-point 23 :   0.3846 0.1538-0.0000  plane waves:    3123
 k-point 24 :   0.4615 0.1538-0.0000  plane waves:    3123
 k-point 25 :  -0.4615 0.1538 0.0000  plane waves:    3143
 k-point 26 :  -0.3846 0.1538 0.0000  plane waves:    3143
 k-point 27 :  -0.3077 0.1538-0.0000  plane waves:    3125
 k-point 28 :  -0.2308 0.1538-0.0000  plane waves:    3121
 k-point 29 :  -0.1538 0.1538 0.0000  plane waves:    3126
 k-point 30 :   0.2308 0.2308-0.0000  plane waves:    3146
 k-point 31 :   0.3077 0.2308-0.0000  plane waves:    3126
 k-point 32 :   0.3846 0.2308-0.0000  plane waves:    3129
 k-point 33 :   0.4615 0.2308-0.0000  plane waves:    3125
 k-point 34 :  -0.4615 0.2308 0.0000  plane waves:    3140
 k-point 35 :  -0.3846 0.2308-0.0000  plane waves:    3141
 k-point 36 :  -0.3077 0.2308 0.0000  plane waves:    3125
 k-point 37 :  -0.2308 0.2308-0.0000  plane waves:    3124
 k-point 38 :   0.3077 0.3077-0.0000  plane waves:    3114
 k-point 39 :   0.3846 0.3077-0.0000  plane waves:    3123
 k-point 40 :   0.4615 0.3077-0.0000  plane waves:    3130
 k-point 41 :  -0.4615 0.3077 0.0000  plane waves:    3138
 k-point 42 :  -0.3846 0.3077-0.0000  plane waves:    3146
 k-point 43 :  -0.3077 0.3077 0.0000  plane waves:    3134
 k-point 44 :   0.3846 0.3846-0.0000  plane waves:    3134
 k-point 45 :   0.4615 0.3846-0.0000  plane waves:    3139
 k-point 46 :  -0.4615 0.3846-0.0000  plane waves:    3138
 k-point 47 :  -0.3846 0.3846-0.0000  plane waves:    3146
 k-point 48 :   0.4615 0.4615-0.0000  plane waves:    3138
 k-point 49 :  -0.4615 0.4615-0.0000  plane waves:    3142
 k-point 50 :   0.2308 0.1538 0.0769  plane waves:    3133
 k-point 51 :   0.3077 0.1538 0.0769  plane waves:    3134
 k-point 52 :   0.3846 0.1538 0.0769  plane waves:    3119
 k-point 53 :   0.4615 0.1538 0.0769  plane waves:    3125
 k-point 54 :  -0.4615 0.1538 0.0769  plane waves:    3128
 k-point 55 :   0.3077 0.2308 0.0769  plane waves:    3138
 k-point 56 :   0.3846 0.2308 0.0769  plane waves:    3128
 k-point 57 :   0.4615 0.2308 0.0769  plane waves:    3130
 k-point 58 :  -0.4615 0.2308 0.0769  plane waves:    3136
 k-point 59 :  -0.3846 0.2308 0.0769  plane waves:    3132
 k-point 60 :  -0.3077 0.2308 0.0769  plane waves:    3133
 k-point 61 :  -0.2308 0.2308 0.0769  plane waves:    3126
 k-point 62 :  -0.1538 0.2308 0.0769  plane waves:    3125
 k-point 63 :   0.3846 0.3077 0.0769  plane waves:    3137
 k-point 64 :   0.4615 0.3077 0.0769  plane waves:    3134
 k-point 65 :  -0.4615 0.3077 0.0769  plane waves:    3142
 k-point 66 :  -0.3846 0.3077 0.0769  plane waves:    3136
 k-point 67 :  -0.3077 0.3077 0.0769  plane waves:    3140
 k-point 68 :  -0.2308 0.3077 0.0769  plane waves:    3124
 k-point 69 :   0.4615 0.3846 0.0769  plane waves:    3138
 k-point 70 :  -0.4615 0.3846 0.0769  plane waves:    3141
 k-point 71 :  -0.3846 0.3846 0.0769  plane waves:    3138
 k-point 72 :  -0.3077 0.3846 0.0769  plane waves:    3140
 k-point 73 :  -0.4615 0.4615 0.0769  plane waves:    3137
 k-point 74 :  -0.3846 0.4615 0.0769  plane waves:    3152
 k-point 75 :   0.4615 0.3077 0.1538  plane waves:    3125
 k-point 76 :  -0.4615 0.3077 0.1538  plane waves:    3137
 k-point 77 :  -0.3846 0.3077 0.1538  plane waves:    3136
 k-point 78 :  -0.4615 0.3846 0.1538  plane waves:    3127
 k-point 79 :  -0.3846 0.3846 0.1538  plane waves:    3126
 k-point 80 :  -0.3077 0.3846 0.1538  plane waves:    3137
 k-point 81 :  -0.2308 0.3846 0.1538  plane waves:    3131
 k-point 82 :  -0.3846 0.4615 0.1538  plane waves:    3137
 k-point 83 :  -0.3077 0.4615 0.1538  plane waves:    3138
 k-point 84 :  -0.3077 0.4615 0.2308  plane waves:    3145

 maximum and minimum number of plane-waves per node :       795      771

 maximum number of plane-waves:      3152
 maximum index in each direction:
   IXMAX=   10   IYMAX=   10   IZMAX=   10
   IXMIN=  -10   IYMIN=  -10   IZMIN=  -10


 parallel 3D FFT for wavefunctions:
    minimum data exchange during FFTs selected (reduces bandwidth)
 parallel 3D FFT for charge:
    minimum data exchange during FFTs selected (reduces bandwidth)


 total amount of memory used by VASP MPI-rank0    97646. kBytes
=======================================================================

   base      :      30000. kBytes
   nonl-proj :      51131. kBytes
   fftplans  :       6281. kBytes
   grid      :       3541. kBytes
   one-center:         49. kBytes
   wavefun   :       6644. kBytes

     INWAV:  cpu time    0.0003: real time    0.0003
 Broyden mixing: mesh for mixing (old mesh)
   NGX = 21   NGY = 21   NGZ = 21
  (NGX  = 84   NGY  = 84   NGZ  = 84)
  gives a total of   9261 points

 initial charge density was supplied:
 charge density of overlapping atoms calculated
 number of electron      39.0000000 magnetization
 keeping initial charge density in first step


--------------------------------------------------------------------------------------------------------


 Maximum index for augmentation-charges        32610 (set IRDMAX)


--------------------------------------------------------------------------------------------------------


 First call to EWALD:  gamma=   0.421
 Maximum number of real-space cells 3x 3x 3
 Maximum number of reciprocal cells 3x 3x 3

    FEWALD:  cpu time    0.0054: real time    0.0060


--------------------------------------- Iteration      1(   1)  ---------------------------------------


    POTLOK:  cpu time    0.0557: real time    0.1418
    SETDIJ:  cpu time    0.1034: real time    0.1035
     EDDAV:  cpu time    1.5007: real time    1.5411
       DOS:  cpu time    0.0042: real time    0.0051
    --------------------------------------------
      LOOP:  cpu time    1.6644: real time    1.7951

 eigenvalue-minimisations  :  4032
 total energy-change (2. order) : 0.4306659E+03  (-0.2240043E+04)
 number of electron      39.0000000 magnetization
 augmentation part       39.0000000 magnetization

 Free energy of the ion-electron system (eV)
  ---------------------------------------------------
  alpha Z        PSCENC =       211.08937367
  Ewald energy   TEWEN  =     -3569.66826723
  -Hartree energ DENC   =      -794.00866106
  -exchange      EXHF   =         0.00000000
  -V(xc)+E(xc)   XCENC  =        90.10738099
  PAW double counting   =      3513.29252893    -3436.88002192
  entropy T*S    EENTRO =        -0.00029494
  eigenvalues    EBANDS =       321.38180163
  atomic energy  EATOM  =      4095.35208632
  Solvation  Ediel_sol  =         0.00000000
  ---------------------------------------------------
  free energy    TOTEN  =       430.66592639 eV

  energy without entropy =      430.66622133  energy(sigma->0) =      430.66607386


--------------------------------------------------------------------------------------------------------




--------------------------------------- Iteration      1(   2)  ---------------------------------------


     EDDAV:  cpu time    1.6228: real time    1.6459
       DOS:  cpu time    0.0031: real time    0.0033
    --------------------------------------------
      LOOP:  cpu time    1.6261: real time    1.6472

 eigenvalue-minimisations  :  4432
 total energy-change (2. order) :-0.4006031E+03  (-0.3928758E+03)
 number of electron      39.0000000 magnetization
 augmentation part       39.0000000 magnetization

 Free energy of the ion-electron system (eV)
  ---------------------------------------------------
  alpha Z        PSCENC =       211.08937367
  Ewald energy   TEWEN  =     -3569.66826723
  -Hartree energ DENC   =      -794.00866106
  -exchange      EXHF   =         0.00000000
  -V(xc)+E(xc)   XCENC  =        90.10738099
  PAW double counting   =      3513.29252893    -3436.88002192
  entropy T*S    EENTRO =        -0.00034128
  eigenvalues    EBANDS =       -79.22122415
  atomic energy  EATOM  =      4095.35208632
  Solvation  Ediel_sol  =         0.00000000
  ---------------------------------------------------
  free energy    TOTEN  =        30.06285427 eV

  energy without entropy =       30.06319555  energy(sigma->0) =       30.06302491


--------------------------------------------------------------------------------------------------------




--------------------------------------- Iteration      1(   3)  ---------------------------------------


     EDDAV:  cpu time    1.7685: real time    1.7882
       DOS:  cpu time    0.0032: real time    0.0045
    --------------------------------------------
      LOOP:  cpu time    1.7716: real time    1.7936

 eigenvalue-minimisations  :  4944
 total energy-change (2. order) :-0.5057370E+02  (-0.4947414E+02)
 number of electron      39.0000000 magnetization
 augmentation part       39.0000000 magnetization

 Free energy of the ion-electron system (eV)
  ---------------------------------------------------
  alpha Z        PSCENC =       211.08937367
  Ewald energy   TEWEN  =     -3569.66826723
  -Hartree energ DENC   =      -794.00866106
  -exchange      EXHF   =         0.00000000
  -V(xc)+E(xc)   XCENC  =        90.10738099
  PAW double counting   =      3513.29252893    -3436.88002192
  entropy T*S    EENTRO =        -0.00125719
  eigenvalues    EBANDS =      -129.79401185
  atomic energy  EATOM  =      4095.35208632
  Solvation  Ediel_sol  =         0.00000000
  ---------------------------------------------------
  free energy    TOTEN  =       -20.51084933 eV

  energy without entropy =      -20.50959215  energy(sigma->0) =      -20.51022074


--------------------------------------------------------------------------------------------------------




--------------------------------------- Iteration      1(   4)  ---------------------------------------


     EDDAV:  cpu time    2.5039: real time    2.5238
       DOS:  cpu time    0.0031: real time    0.0033
    --------------------------------------------
      LOOP:  cpu time    2.5071: real time    2.5274

 eigenvalue-minimisations  :  7680
 total energy-change (2. order) :-0.5380050E+01  (-0.5355832E+01)
 number of electron      39.0000000 magnetization
 augmentation part       39.0000000 magnetization

 Free energy of the ion-electron system (eV)
  ---------------------------------------------------
  alpha Z        PSCENC =       211.08937367
  Ewald energy   TEWEN  =     -3569.66826723
  -Hartree energ DENC   =      -794.00866106
  -exchange      EXHF   =         0.00000000
  -V(xc)+E(xc)   XCENC  =        90.10738099
  PAW double counting   =      3513.29252893    -3436.88002192
  entropy T*S    EENTRO =        -0.00103205
  eigenvalues    EBANDS =      -135.17428667
  atomic energy  EATOM  =      4095.35208632
  Solvation  Ediel_sol  =         0.00000000
  ---------------------------------------------------
  free energy    TOTEN  =       -25.89089902 eV

  energy without entropy =      -25.88986697  energy(sigma->0) =      -25.89038299


--------------------------------------------------------------------------------------------------------




--------------------------------------- Iteration      1(   5)  ---------------------------------------


     EDDAV:  cpu time    1.8886: real time    1.9074
       DOS:  cpu time    0.0033: real time    0.0034
    CHARGE:  cpu time    0.3664: real time    0.3672
    MIXING:  cpu time    0.0054: real time    0.0057
    --------------------------------------------
      LOOP:  cpu time    2.2636: real time    2.2835

 eigenvalue-minimisations  :  5432
 total energy-change (2. order) :-0.1745041E+00  (-0.1742765E+00)
 number of electron      39.0000000 magnetization
 augmentation part        8.8769596 magnetization

 Broyden mixing:
  rms(total) = 0.14749E+01    rms(broyden)= 0.14749E+01
  rms(prec ) = 0.44002E+01
  weight for this iteration     100.00

 Free energy of the ion-electron system (eV)
  ---------------------------------------------------
  alpha Z        PSCENC =       211.08937367
  Ewald energy   TEWEN  =     -3569.66826723
  -Hartree energ DENC   =      -794.00866106
  -exchange      EXHF   =         0.00000000
  -V(xc)+E(xc)   XCENC  =        90.10738099
  PAW double counting   =      3513.29252893    -3436.88002192
  entropy T*S    EENTRO =        -0.00100627
  eigenvalues    EBANDS =      -135.34881659
  atomic energy  EATOM  =      4095.35208632
  Solvation  Ediel_sol  =         0.00000000
  ---------------------------------------------------
  free energy    TOTEN  =       -26.06540316 eV

  energy without entropy =      -26.06439689  energy(sigma->0) =      -26.06490002


--------------------------------------------------------------------------------------------------------




--------------------------------------- Iteration      1(   6)  ---------------------------------------


    POTLOK:  cpu time    0.0536: real time    0.0777
    SETDIJ:  cpu time    0.0978: real time    0.0979
     EDDAV:  cpu time    2.0169: real time    2.0171
       DOS:  cpu time    0.0028: real time    0.0030
    CHARGE:  cpu time    0.3148: real time    0.3149
    MIXING:  cpu time    0.0107: real time    0.0109
    --------------------------------------------
      LOOP:  cpu time    2.4967: real time    2.5197

 eigenvalue-minimisations  :  6056
 total energy-change (2. order) :-0.7714451E+01  (-0.2031032E+02)
 number of electron      39.0000000 magnetization
 augmentation part        7.0118688 magnetization

 Broyden mixing:
  rms(total) = 0.22008E+01    rms(broyden)= 0.22008E+01
  rms(prec ) = 0.60445E+01
  weight for this iteration     100.00

 eigenvalues of (default mixing * dielectric matrix)
  average eigenvalue GAMMA=   0.3542
  0.3542

 Free energy of the ion-electron system (eV)
  ---------------------------------------------------
  alpha Z        PSCENC =       211.08937367
  Ewald energy   TEWEN  =     -3569.66826723
  -Hartree energ DENC   =      -802.53217914
  -exchange      EXHF   =         0.00000000
  -V(xc)+E(xc)   XCENC  =        90.66858781
  PAW double counting   =      3806.01557114    -3729.73266787
  entropy T*S    EENTRO =        -0.00011361
  eigenvalues    EBANDS =      -134.97224484
  atomic energy  EATOM  =      4095.35208632
  Solvation  Ediel_sol  =         0.00000000
  ---------------------------------------------------
  free energy    TOTEN  =       -33.77985374 eV

  energy without entropy =      -33.77974014  energy(sigma->0) =      -33.77979694


--------------------------------------------------------------------------------------------------------




--------------------------------------- Iteration      1(   7)  ---------------------------------------


    POTLOK:  cpu time    0.0499: real time    0.0760
    SETDIJ:  cpu time    0.0941: real time    0.0942
     EDDAV:  cpu time    1.9588: real time    1.9590
       DOS:  cpu time    0.0032: real time    0.0036
    CHARGE:  cpu time    0.3023: real time    0.3024
    MIXING:  cpu time    0.0048: real time    0.0050
    --------------------------------------------
      LOOP:  cpu time    2.4131: real time    2.4404

 eigenvalue-minimisations  :  5848
 total energy-change (2. order) : 0.9065103E+01  (-0.2672855E+01)
 number of electron      39.0000000 magnetization
 augmentation part        7.5450002 magnetization

 Broyden mixing:
  rms(total) = 0.10042E+01    rms(broyden)= 0.10042E+01
  rms(prec ) = 0.29206E+01
  weight for this iteration     100.00

 eigenvalues of (default mixing * dielectric matrix)
  average eigenvalue GAMMA=   0.7573
  0.7573  0.7573

 Free energy of the ion-electron system (eV)
  ---------------------------------------------------
  alpha Z        PSCENC =       211.08937367
  Ewald energy   TEWEN  =     -3569.66826723
  -Hartree energ DENC   =      -789.25038670
  -exchange      EXHF   =         0.00000000
  -V(xc)+E(xc)   XCENC  =        90.03394114
  PAW double counting   =      3901.64404446    -3829.64672091
  entropy T*S    EENTRO =        -0.00090110
  eigenvalues    EBANDS =      -134.26792043
  atomic energy  EATOM  =      4095.35208632
  Solvation  Ediel_sol  =         0.00000000
  ---------------------------------------------------
  free energy    TOTEN  =       -24.71475077 eV

  energy without entropy =      -24.71384967  energy(sigma->0) =      -24.71430022


--------------------------------------------------------------------------------------------------------




--------------------------------------- Iteration      1(   8)  ---------------------------------------


    POTLOK:  cpu time    0.0453: real time    0.0701
    SETDIJ:  cpu time    0.0964: real time    0.0964
     EDDAV:  cpu time    1.9804: real time    1.9806
       DOS:  cpu time    0.0032: real time    0.0033
    CHARGE:  cpu time    0.3078: real time    0.3079
    MIXING:  cpu time    0.0053: real time    0.0054
    --------------------------------------------
      LOOP:  cpu time    2.4382: real time    2.4649

 eigenvalue-minimisations  :  5896
 total energy-change (2. order) : 0.1139615E+00  (-0.3269720E+01)
 number of electron      39.0000000 magnetization
 augmentation part        8.8995634 magnetization

 Broyden mixing:
  rms(total) = 0.83421E+00    rms(broyden)= 0.83421E+00
  rms(prec ) = 0.27097E+01
  weight for this iteration     100.00

 eigenvalues of (default mixing * dielectric matrix)
  average eigenvalue GAMMA=   0.9393
  1.7307  0.5436  0.5436

 Free energy of the ion-electron system (eV)
  ---------------------------------------------------
  alpha Z        PSCENC =       211.08937367
  Ewald energy   TEWEN  =     -3569.66826723
  -Hartree energ DENC   =      -778.71234956
  -exchange      EXHF   =         0.00000000
  -V(xc)+E(xc)   XCENC  =        89.58407170
  PAW double counting   =      3975.14010765    -3906.21359529
  entropy T*S    EENTRO =        -0.00122732
  eigenvalues    EBANDS =      -141.17098917
  atomic energy  EATOM  =      4095.35208632
  Solvation  Ediel_sol  =         0.00000000
  ---------------------------------------------------
  free energy    TOTEN  =       -24.60078923 eV

  energy without entropy =      -24.59956191  energy(sigma->0) =      -24.60017557


--------------------------------------------------------------------------------------------------------




--------------------------------------- Iteration      1(   9)  ---------------------------------------


    POTLOK:  cpu time    0.0374: real time    0.0730
    SETDIJ:  cpu time    0.0948: real time    0.0948
     EDDAV:  cpu time    2.0939: real time    2.0952
       DOS:  cpu time    0.0031: real time    0.0033
    CHARGE:  cpu time    0.3052: real time    0.3056
    MIXING:  cpu time    0.0054: real time    0.0055
    --------------------------------------------
      LOOP:  cpu time    2.5399: real time    2.5792

 eigenvalue-minimisations  :  6312
 total energy-change (2. order) : 0.8509882E+00  (-0.9464272E+00)
 number of electron      39.0000000 magnetization
 augmentation part        8.0222456 magnetization

 Broyden mixing:
  rms(total) = 0.14366E+00    rms(broyden)= 0.14366E+00
  rms(prec ) = 0.27581E+00
  weight for this iteration     100.00

 eigenvalues of (default mixing * dielectric matrix)
  average eigenvalue GAMMA=   0.9359
  2.0773  0.5833  0.5833  0.4998

 Free energy of the ion-electron system (eV)
  ---------------------------------------------------
  alpha Z        PSCENC =       211.08937367
  Ewald energy   TEWEN  =     -3569.66826723
  -Hartree energ DENC   =      -782.78942247
  -exchange      EXHF   =         0.00000000
  -V(xc)+E(xc)   XCENC  =        89.79645684
  PAW double counting   =      4099.94804652    -4031.88650548
  entropy T*S    EENTRO =        -0.00131260
  eigenvalues    EBANDS =      -135.59025656
  atomic energy  EATOM  =      4095.35208632
  Solvation  Ediel_sol  =         0.00000000
  ---------------------------------------------------
  free energy    TOTEN  =       -23.74980099 eV

  energy without entropy =      -23.74848839  energy(sigma->0) =      -23.74914469


--------------------------------------------------------------------------------------------------------




--------------------------------------- Iteration      1(  10)  ---------------------------------------


    POTLOK:  cpu time    0.0521: real time    0.0748
    SETDIJ:  cpu time    0.0965: real time    0.0968
     EDDAV:  cpu time    2.2601: real time    2.2603
       DOS:  cpu time    0.0032: real time    0.0033
    CHARGE:  cpu time    0.3044: real time    0.3046
    MIXING:  cpu time    0.0055: real time    0.0056
    --------------------------------------------
      LOOP:  cpu time    2.7217: real time    2.7431

 eigenvalue-minimisations  :  6912
 total energy-change (2. order) :-0.5105304E-01  (-0.5438885E-01)
 number of electron      39.0000000 magnetization
 augmentation part        7.9511320 magnetization

 Broyden mixing:
  rms(total) = 0.16283E+00    rms(broyden)= 0.16283E+00
  rms(prec ) = 0.53432E+00
  weight for this iteration     100.00

 eigenvalues of (default mixing * dielectric matrix)
  average eigenvalue GAMMA=   0.9500
  1.8865  1.0908  0.5375  0.5375  0.6979

 Free energy of the ion-electron system (eV)
  ---------------------------------------------------
  alpha Z        PSCENC =       211.08937367
  Ewald energy   TEWEN  =     -3569.66826723
  -Hartree energ DENC   =      -781.68917666
  -exchange      EXHF   =         0.00000000
  -V(xc)+E(xc)   XCENC  =        89.76768090
  PAW double counting   =      4164.39037713    -4097.11916810
  entropy T*S    EENTRO =        -0.00133392
  eigenvalues    EBANDS =      -135.92242614
  atomic energy  EATOM  =      4095.35208632
  Solvation  Ediel_sol  =         0.00000000
  ---------------------------------------------------
  free energy    TOTEN  =       -23.80085403 eV

  energy without entropy =      -23.79952011  energy(sigma->0) =      -23.80018707


--------------------------------------------------------------------------------------------------------




--------------------------------------- Iteration      1(  11)  ---------------------------------------


    POTLOK:  cpu time    0.0498: real time    0.0753
    SETDIJ:  cpu time    0.0955: real time    0.0956
     EDDAV:  cpu time    2.0301: real time    2.0306
       DOS:  cpu time    0.0029: real time    0.0031
    CHARGE:  cpu time    0.3065: real time    0.3065
    MIXING:  cpu time    0.0056: real time    0.0057
    --------------------------------------------
      LOOP:  cpu time    2.4903: real time    2.5162

 eigenvalue-minimisations  :  6016
 total energy-change (2. order) : 0.4275969E-01  (-0.3422423E-01)
 number of electron      39.0000000 magnetization
 augmentation part        8.1033344 magnetization

 Broyden mixing:
  rms(total) = 0.32389E-01    rms(broyden)= 0.32388E-01
  rms(prec ) = 0.47229E-01
  weight for this iteration     100.00

 eigenvalues of (default mixing * dielectric matrix)
  average eigenvalue GAMMA=   1.1789
  2.2500  2.2500  0.5405  0.5405  0.8570  0.6356

 Free energy of the ion-electron system (eV)
  ---------------------------------------------------
  alpha Z        PSCENC =       211.08937367
  Ewald energy   TEWEN  =     -3569.66826723
  -Hartree energ DENC   =      -780.81103513
  -exchange      EXHF   =         0.00000000
  -V(xc)+E(xc)   XCENC  =        89.72248026
  PAW double counting   =      4154.72162212    -4087.57125151
  entropy T*S    EENTRO =        -0.00167390
  eigenvalues    EBANDS =      -136.59142895
  atomic energy  EATOM  =      4095.35208632
  Solvation  Ediel_sol  =         0.00000000
  ---------------------------------------------------
  free energy    TOTEN  =       -23.75809434 eV

  energy without entropy =      -23.75642044  energy(sigma->0) =      -23.75725739


--------------------------------------------------------------------------------------------------------




--------------------------------------- Iteration      1(  12)  ---------------------------------------


    POTLOK:  cpu time    0.0482: real time    0.0705
    SETDIJ:  cpu time    0.0964: real time    0.0965
     EDDAV:  cpu time    2.2010: real time    2.2012
       DOS:  cpu time    0.0033: real time    0.0035
    CHARGE:  cpu time    0.3053: real time    0.3054
    MIXING:  cpu time    0.0057: real time    0.0060
    --------------------------------------------
      LOOP:  cpu time    2.6600: real time    2.6835

 eigenvalue-minimisations  :  6704
 total energy-change (2. order) :-0.9022957E-03  (-0.9656528E-03)
 number of electron      39.0000000 magnetization
 augmentation part        8.1076086 magnetization

 Broyden mixing:
  rms(total) = 0.17255E-01    rms(broyden)= 0.17255E-01
  rms(prec ) = 0.46747E-01
  weight for this iteration     100.00

 eigenvalues of (default mixing * dielectric matrix)
  average eigenvalue GAMMA=   1.2288
  2.5795  2.3817  0.9681  0.9681  0.5417  0.5417  0.6204

 Free energy of the ion-electron system (eV)
  ---------------------------------------------------
  alpha Z        PSCENC =       211.08937367
  Ewald energy   TEWEN  =     -3569.66826723
  -Hartree energ DENC   =      -780.81058771
  -exchange      EXHF   =         0.00000000
  -V(xc)+E(xc)   XCENC  =        89.71944184
  PAW double counting   =      4161.13198052    -4093.98606029
  entropy T*S    EENTRO =        -0.00172965
  eigenvalues    EBANDS =      -136.58523410
  atomic energy  EATOM  =      4095.35208632
  Solvation  Ediel_sol  =         0.00000000
  ---------------------------------------------------
  free energy    TOTEN  =       -23.75899664 eV

  energy without entropy =      -23.75726698  energy(sigma->0) =      -23.75813181


--------------------------------------------------------------------------------------------------------




--------------------------------------- Iteration      1(  13)  ---------------------------------------


    POTLOK:  cpu time    0.0392: real time    0.0851
    SETDIJ:  cpu time    0.0949: real time    0.0959
     EDDAV:  cpu time    2.0759: real time    2.0761
       DOS:  cpu time    0.0031: real time    0.0032
    CHARGE:  cpu time    0.3121: real time    0.3122
    MIXING:  cpu time    0.0058: real time    0.0058
    --------------------------------------------
      LOOP:  cpu time    2.5309: real time    2.5798

 eigenvalue-minimisations  :  6224
 total energy-change (2. order) : 0.2192369E-03  (-0.1516203E-03)
 number of electron      39.0000000 magnetization
 augmentation part        8.0976021 magnetization

 Broyden mixing:
  rms(total) = 0.51646E-02    rms(broyden)= 0.51646E-02
  rms(prec ) = 0.14874E-01
  weight for this iteration     100.00

 eigenvalues of (default mixing * dielectric matrix)
  average eigenvalue GAMMA=   1.2519
  2.5446  2.2102  1.6975  0.5418  0.5418  0.9283  0.9283  0.6227

 Free energy of the ion-electron system (eV)
  ---------------------------------------------------
  alpha Z        PSCENC =       211.08937367
  Ewald energy   TEWEN  =     -3569.66826723
  -Hartree energ DENC   =      -780.96201306
  -exchange      EXHF   =         0.00000000
  -V(xc)+E(xc)   XCENC  =        89.72364203
  PAW double counting   =      4161.92611364    -4094.67539846
  entropy T*S    EENTRO =        -0.00171647
  eigenvalues    EBANDS =      -136.54259783
  atomic energy  EATOM  =      4095.35208632
  Solvation  Ediel_sol  =         0.00000000
  ---------------------------------------------------
  free energy    TOTEN  =       -23.75877740 eV

  energy without entropy =      -23.75706093  energy(sigma->0) =      -23.75791917


--------------------------------------------------------------------------------------------------------




--------------------------------------- Iteration      1(  14)  ---------------------------------------


    POTLOK:  cpu time    0.0527: real time    0.0822
    SETDIJ:  cpu time    0.0965: real time    0.0965
     EDDAV:  cpu time    2.2648: real time    2.2651
       DOS:  cpu time    0.0033: real time    0.0035
    CHARGE:  cpu time    0.3051: real time    0.3052
    MIXING:  cpu time    0.0060: real time    0.0060
    --------------------------------------------
      LOOP:  cpu time    2.7283: real time    2.7570

 eigenvalue-minimisations  :  6896
 total energy-change (2. order) : 0.1835800E-04  (-0.2312569E-04)
 number of electron      39.0000000 magnetization
 augmentation part        8.0939341 magnetization

 Broyden mixing:
  rms(total) = 0.13624E-02    rms(broyden)= 0.13624E-02
  rms(prec ) = 0.38399E-02
  weight for this iteration     100.00

 eigenvalues of (default mixing * dielectric matrix)
  average eigenvalue GAMMA=   1.2290
  2.6179  1.9239  1.9239  0.5417  0.5417  0.6250  0.9873  0.9873  0.9119

 Free energy of the ion-electron system (eV)
  ---------------------------------------------------
  alpha Z        PSCENC =       211.08937367
  Ewald energy   TEWEN  =     -3569.66826723
  -Hartree energ DENC   =      -780.97426685
  -exchange      EXHF   =         0.00000000
  -V(xc)+E(xc)   XCENC  =        89.72402106
  PAW double counting   =      4163.66097283    -4096.38420843
  entropy T*S    EENTRO =        -0.00171648
  eigenvalues    EBANDS =      -136.55675391
  atomic energy  EATOM  =      4095.35208632
  Solvation  Ediel_sol  =         0.00000000
  ---------------------------------------------------
  free energy    TOTEN  =       -23.75875904 eV

  energy without entropy =      -23.75704256  energy(sigma->0) =      -23.75790080


--------------------------------------------------------------------------------------------------------




--------------------------------------- Iteration      1(  15)  ---------------------------------------


    POTLOK:  cpu time    0.0473: real time    0.0679
    SETDIJ:  cpu time    0.0973: real time    0.0974
     EDDAV:  cpu time    1.9752: real time    1.9760
       DOS:  cpu time    0.0032: real time    0.0034
    CHARGE:  cpu time    0.3066: real time    0.3069
    MIXING:  cpu time    0.0061: real time    0.0062
    --------------------------------------------
      LOOP:  cpu time    2.4355: real time    2.4587

 eigenvalue-minimisations  :  5840
 total energy-change (2. order) :-0.6626142E-06  (-0.2108608E-05)
 number of electron      39.0000000 magnetization
 augmentation part        8.0948775 magnetization

 Broyden mixing:
  rms(total) = 0.13355E-02    rms(broyden)= 0.13355E-02
  rms(prec ) = 0.41750E-02
  weight for this iteration     100.00

 eigenvalues of (default mixing * dielectric matrix)
  average eigenvalue GAMMA=   1.2874
  2.6187  2.2156  1.7047  1.7047  0.5417  0.5417  1.0466  1.0466  0.6255  0.8277

 Free energy of the ion-electron system (eV)
  ---------------------------------------------------
  alpha Z        PSCENC =       211.08937367
  Ewald energy   TEWEN  =     -3569.66826723
  -Hartree energ DENC   =      -780.96314939
  -exchange      EXHF   =         0.00000000
  -V(xc)+E(xc)   XCENC  =        89.72363812
  PAW double counting   =      4164.03954848    -4096.76687450
  entropy T*S    EENTRO =        -0.00171669
  eigenvalues    EBANDS =      -136.56339847
  atomic energy  EATOM  =      4095.35208632
  Solvation  Ediel_sol  =         0.00000000
  ---------------------------------------------------
  free energy    TOTEN  =       -23.75875970 eV

  energy without entropy =      -23.75704301  energy(sigma->0) =      -23.75790136


--------------------------------------------------------------------------------------------------------




--------------------------------------- Iteration      1(  16)  ---------------------------------------


    POTLOK:  cpu time    0.0476: real time    0.0752
    SETDIJ:  cpu time    0.0962: real time    0.0965
     EDDAV:  cpu time    2.0336: real time    2.0338
       DOS:  cpu time    0.0029: real time    0.0032
    CHARGE:  cpu time    0.3047: real time    0.3048
    MIXING:  cpu time    0.0070: real time    0.0127
    --------------------------------------------
      LOOP:  cpu time    2.4920: real time    2.5269

 eigenvalue-minimisations  :  6088
 total energy-change (2. order) : 0.1571774E-05  (-0.3005571E-05)
 number of electron      39.0000000 magnetization
 augmentation part        8.0935291 magnetization

 Broyden mixing:
  rms(total) = 0.49368E-03    rms(broyden)= 0.49362E-03
  rms(prec ) = 0.14729E-02
  weight for this iteration     100.00

 eigenvalues of (default mixing * dielectric matrix)
  average eigenvalue GAMMA=   1.3200
  2.8176  2.2679  2.2679  1.5575  0.5417  0.5417  0.6251  1.0743  1.0743  0.8758
  0.8758

 Free energy of the ion-electron system (eV)
  ---------------------------------------------------
  alpha Z        PSCENC =       211.08937367
  Ewald energy   TEWEN  =     -3569.66826723
  -Hartree energ DENC   =      -780.97510948
  -exchange      EXHF   =         0.00000000
  -V(xc)+E(xc)   XCENC  =        89.72413459
  PAW double counting   =      4164.33485027    -4097.05749654
  entropy T*S    EENTRO =        -0.00171348
  eigenvalues    EBANDS =      -136.55661625
  atomic energy  EATOM  =      4095.35208632
  Solvation  Ediel_sol  =         0.00000000
  ---------------------------------------------------
  free energy    TOTEN  =       -23.75875813 eV

  energy without entropy =      -23.75704466  energy(sigma->0) =      -23.75790139


--------------------------------------------------------------------------------------------------------




--------------------------------------- Iteration      1(  17)  ---------------------------------------


    POTLOK:  cpu time    0.0466: real time    0.0746
    SETDIJ:  cpu time    0.0935: real time    0.0938
     EDDAV:  cpu time    2.2759: real time    2.2762
       DOS:  cpu time    0.0033: real time    0.0034
    CHARGE:  cpu time    0.3065: real time    0.3068
    MIXING:  cpu time    0.0064: real time    0.0065
    --------------------------------------------
      LOOP:  cpu time    2.7324: real time    2.7622

 eigenvalue-minimisations  :  6992
 total energy-change (2. order) : 0.1339404E-06  (-0.1301118E-06)
 number of electron      39.0000000 magnetization
 augmentation part        8.0937343 magnetization

 Broyden mixing:
  rms(total) = 0.31390E-03    rms(broyden)= 0.31381E-03
  rms(prec ) = 0.92333E-03
  weight for this iteration     100.00

 eigenvalues of (default mixing * dielectric matrix)
  average eigenvalue GAMMA=   1.3366
  2.7816  2.3389  2.3389  1.8867  0.5417  0.5417  0.6252  1.1596  1.0701  0.8640
  0.9454  0.9454

 Free energy of the ion-electron system (eV)
  ---------------------------------------------------
  alpha Z        PSCENC =       211.08937367
  Ewald energy   TEWEN  =     -3569.66826723
  -Hartree energ DENC   =      -780.97429476
  -exchange      EXHF   =         0.00000000
  -V(xc)+E(xc)   XCENC  =        89.72411935
  PAW double counting   =      4164.44609679    -4097.16822710
  entropy T*S    EENTRO =        -0.00171426
  eigenvalues    EBANDS =      -136.55793079
  atomic energy  EATOM  =      4095.35208632
  Solvation  Ediel_sol  =         0.00000000
  ---------------------------------------------------
  free energy    TOTEN  =       -23.75875800 eV

  energy without entropy =      -23.75704374  energy(sigma->0) =      -23.75790087


--------------------------------------------------------------------------------------------------------




--------------------------------------- Iteration      1(  18)  ---------------------------------------


    POTLOK:  cpu time    0.0471: real time    0.0697
    SETDIJ:  cpu time    0.0943: real time    0.0945
     EDDAV:  cpu time    1.5143: real time    1.5145
       DOS:  cpu time    0.0033: real time    0.0037
    --------------------------------------------
      LOOP:  cpu time    1.6588: real time    1.6792

 eigenvalue-minimisations  :  3968
 total energy-change (2. order) : 0.8684219E-07  (-0.2607421E-07)
 number of electron      39.0000000 magnetization
 augmentation part        8.0937343 magnetization

 Free energy of the ion-electron system (eV)
  ---------------------------------------------------
  alpha Z        PSCENC =       211.08937367
  Ewald energy   TEWEN  =     -3569.66826723
  -Hartree energ DENC   =      -780.97321374
  -exchange      EXHF   =         0.00000000
  -V(xc)+E(xc)   XCENC  =        89.72411461
  PAW double counting   =      4164.42857245    -4097.15203707
  entropy T*S    EENTRO =        -0.00171447
  eigenvalues    EBANDS =      -136.55767245
  atomic energy  EATOM  =      4095.35208632
  Solvation  Ediel_sol  =         0.00000000
  ---------------------------------------------------
  free energy    TOTEN  =       -23.75875791 eV

  energy without entropy =      -23.75704344  energy(sigma->0) =      -23.75790067


--------------------------------------------------------------------------------------------------------




 average (electrostatic) potential at core
  the test charge radii are     1.2087  1.0856  1.2059
  (the norm of the test charge is              1.0000)
       1 -83.8287       2-100.9188       3 -64.7182



 E-fermi :   9.8193     XC(G=0): -11.4136     alpha+bet :-15.7289


 k-point     1 :       0.0000    0.0000    0.0000
  band No.  band energies     occupation
      1     -34.3180      2.00000
      2     -13.0662      2.00000
      3     -13.0662      2.00000
      4     -13.0387      2.00000
      5     -13.0387      2.00000
[...]
  212              fftbas_plan_mpi                       0.080642                     12   6
  213                dfftw_execute                         0.035380                   36   7
  214                map_backward                          0.004986                   12   7
  215                  map_gather                            0.001203                  6   8
  216                  m_alltoallv_z                         0.002310                  6   8
  217                  map_scatter                           0.001184                  6   8
  218                map_forward                           0.037077                   12   7
  219                  map_gather                            0.018635                  6   8
  220                  m_alltoallv_z                         0.006286                  6   8
  221                  map_scatter                           0.011855                  6   8
  222            M_sumb_d                              0.007423                        6   5
  223          M_sumb_d                              0.000030                          1   4
  224        setdij_                               1.640361                           20   3
  225          fft3d_mpi                             0.287110                         40   4
  226            fftbas_plan_mpi                       0.264054                       40   5
  227              dfftw_execute                         0.116937                    120   6
  228              map_backward                          0.016567                     40   6
  229                map_gather                            0.004749                   20   7
  230                m_alltoallv_z                         0.006998                   20   7
  231                map_scatter                           0.003855                   20   7
  232              map_forward                           0.119937                     40   6
  233                map_gather                            0.058307                   20   7
  234                m_alltoallv_z                         0.020025                   20   7
  235                map_scatter                           0.040589                   20   7
  236          M_sumb_d                              0.024487                         20   4
  237        set_dd_magatom                        0.000004                            1   3
  238        set_dd_paw                            0.009389                            1   3
  239          set_rsgf_all                          0.000004                          1   4
  240          M_sumb_d                              0.009216                          8   4
  241        strkin                                0.001394                            1   3
  242          M_sumb_d                              0.000695                          1   4
  243        strelo                                0.003032                            1   3
  244          M_sumb_d                              0.000273                          2   4
  245        strenl                                1.088447                            1   3
  246          spher                                 0.797606                         19   4
  247          phase                                 0.012812                        189   4
  248          proj1                                 0.254642                       1134   4
  249            crexp_mul_wave                        0.032785                     3402   5
  250            M_sumb_d                              0.082430                     1134   5
  251          M_sumb_d                              0.000711                          1   4
  252        M_sumb_d                              0.000219                            6   3
  253        fft3d_mpi                             0.017738                           11   3
  254          fftbas_plan_mpi                       0.016331                         11   4
  255            dfftw_execute                         0.006304                       33   5
  256            map_forward                           0.003363                       10   5
  257              map_gather                            0.000674                      5   6
  258              m_alltoallv_z                         0.001370                      5   6
  259              map_scatter                           0.001074                      5   6
  260            map_backward                          0.004339                       12   5
  261              map_gather                            0.001232                      6   6
  262              m_alltoallv_z                         0.001650                      6   6
  263              map_scatter                           0.001102                      6   6
  264        ggaall_grid                           0.002003                            1   3
  265        forhar                                0.007253                            2   3
  266          M_sumb_d                              0.000122                          2   4
  267        strehar                               0.003139                            1   3
  268          M_sumb_d                              0.000146                          1   4
  269        chggra                                0.007268                            1   3
  270          fft3d_mpi                             0.004840                          3   4
  271            fftbas_plan_mpi                       0.004390                        3   5
  272              dfftw_execute                         0.001782                      9   6
  273              map_backward                          0.000676                      2   6
  274                map_gather                            0.000199                    1   7
  275                m_alltoallv_z                         0.000243                    1   7
  276                map_scatter                           0.000180                    1   7
  277              map_forward                           0.001260                      4   6
  278                map_gather                            0.000244                    2   7
  279                m_alltoallv_z                         0.000497                    2   7
  280                map_scatter                           0.000417                    2   7
  281          M_sumb_d                              0.000118                          3   4
  282        brmix                                 0.022769                            1   3
  283          M_sumb_d                              0.000236                          6   4
  284          brpre                                 0.000054                          1   4
  285          setg0                                 0.001673                          1   4
  286          broyd                                 0.002704                          1   4
  287            M_sumb_d                              0.000552                       20   5
  288            brget                                 0.000425                       74   5
  289            brsav                                 0.000138                       18   5
  290          M_bcast_z                             0.016900                          1   4
  291          M_bcast_d                             0.000055                          1   4
  292        M_bcast_d                             0.000258                            2   3
  293      potlok                                0.031502                              1   2
  294        fft3d_mpi                             0.021517                           13   3
  295          fftbas_plan_mpi                       0.019960                         13   4
  296            dfftw_execute                         0.007279                       39   5
  297            map_forward                           0.004927                       14   5
  298              map_gather                            0.000859                      8   6
  299              m_alltoallv_z                         0.002049                      8   6
  300              map_scatter                           0.001659                      8   6
  301            map_backward                          0.004999                       12   5
  302              map_gather                            0.001632                      6   6
  303              m_alltoallv_z                         0.001789                      6   6
  304              map_scatter                           0.001197                      6   6
  305        ggaall_grid                           0.002068                            1   3
  306        M_sumb_d                              0.000286                            6   3
  307        M_bcast_d                             0.000104                            1   3
  308      potlok_metagga                        0.000003                              1   2
  309      set_dd_magatom                        0.000004                              1   2
  310      set_dd_paw                            0.000509                              1   2
  311        set_rsgf_all                          0.000003                            1   3
  312        M_sumb_d                              0.000309                            8   3
  313      densta                                0.002507                              1   2
  314        M_sumb_d                              0.000865                           44   3
  315      lprj_proall                           0.000008                              1   2

 Flat profile
 ============

             routine name                   CPU           calls
 ---------------------------------------------------------------
 total_time                             14.428457           1
 dfftw_execute                           7.145694       59277
 eddav                                   6.181882          18
 fftbas_plan_mpi                         4.334400       19761
 M_sumb_d                                3.267727       54314
 setdij_                                 2.889372          42
 set_charge                              2.551069          14
 m_alltoallv_z                           2.000380       19788
 pdssyex_zheevx                          1.685310         378
 elmin                                   1.417522           1
 M_alltoall_d                            1.406894       65464
 proj1                                   1.109288        7930
 orth1                                   1.104310       13428
 vhamil                                  1.077547        8938
 gemm                                    0.982068       26814
 spher                                   0.921392          20
 fftwav_mpi                              0.889883       10499
 map_forward                             0.883090       21308
 map_scatter                             0.804252       19788
 map_gather                              0.784733       19788
 vnlac0                                  0.610292        8938
 redis_pw                                0.561149       25344
 M_bcast_z                               0.560108        7024
 hamiltmu                                0.496037        4469
 redis_proj                              0.493319       32035
 crpa_reader                             0.462457           1
 w1_copy                                 0.392028       26814
 work_mul_crexp                          0.334842       26814
 fft3d_mpi                               0.332814       19759
 map_backward                            0.321279       18210
 fftext_mpi                              0.297545        8938
 crexp_mul_wave                          0.249433       23790
 eccp                                    0.234198        2268
 kinhamil                                0.185782        8938
 overl                                   0.176493       15629
 M_bcast_d                               0.145714        4505
 pw_charge                               0.121418        1561
 potlok                                  0.118707          15
 overl1                                  0.107547        8938
 apply_precond                           0.093109        6670
 setup_precond                           0.079358        2268
 w1_projall                              0.074273        3335
 lincom                                  0.068807         399
 force_and_stress                        0.056801           1
 fornl                                   0.047513           1
 phase                                   0.041198         610
 soft_charge                             0.041172          14
 truncate_high_frequency_w1              0.037994       11206
 ggaall_grid                             0.032632          16
 densta                                  0.030246          19
 strenl                                  0.022676           1
 setg0                                   0.020308          15
 broyd                                   0.019011          14
 brmix                                   0.018617          14
 forhar                                  0.007131           2
 depsum                                  0.006092          14
 forloc                                  0.003523           1
 brget                                   0.003084         575
 strehar                                 0.002993           1
 set_dd_paw                              0.002883          16
 strelo                                  0.002759           1
 chggra                                  0.002310           1
 orthch                                  0.002139           1
 choleski                                0.001990          21
 proj                                    0.001660          21
 brsav                                   0.001361         163
 brgrid                                  0.001012           1
 brpre                                   0.000972          14
 strkin                                  0.000699           1
 fordep                                  0.000135           1
 vectorpot                               0.000081          15
 set_rsgf_all                            0.000074          16
 potlok_metagga                          0.000064          15
 set_dd_magatom                          0.000057          16
 set_kineden                             0.000046          13
 rotate_active_occupied_orbital          0.000015           1
 lprj_proall                             0.000008           1
 redis_pw_over_bands                     0.000004           1
 ---------------------------------------------------------------
  summed up times    62.7912390232086

 Accumulative profile
 ====================

             routine name                   CPU           calls
 ---------------------------------------------------------------
 total_time                             62.791239           1
 elmin                                  43.266503           1
 eddav                                  35.897160          18
 fft3d_mpi                              16.535847       19759
 fftbas_plan_mpi                        16.273829       19761
 hamiltmu                               11.421776        4469
 fftwav_mpi                              9.422821       10499
 kinhamil                                7.246936        8938
 dfftw_execute                           7.145694       59277
 fftext_mpi                              7.061154        8938
 set_charge                              4.351703          14
 force_and_stress                        3.731863           1
 setdij_                                 3.576565          42
 M_sumb_d                                3.267727       54314
 map_forward                             2.941423       21308
 vnlac0                                  2.493710        8938
 m_alltoallv_z                           2.000380       19788
 proj1                                   1.910503        7930
 map_backward                            1.852312       18210
 w1_projall                              1.702586        3335
 pdssyex_zheevx                          1.685310         378
 soft_charge                             1.557121          14
 M_alltoall_d                            1.406894       65464
 redis_pw                                1.355141       25344
 redis_proj                              1.106221       32035
 orth1                                   1.104310       13428
 strenl                                  1.088447           1
 vhamil                                  1.077547        8938
 gemm                                    0.982068       26814
 spher                                   0.921392          20
 map_scatter                             0.804252       19788
 map_gather                              0.784733       19788
 M_bcast_z                               0.560108        7024
 fordep                                  0.495417           1
 potlok                                  0.464620          15
 crpa_reader                             0.462457           1
 w1_copy                                 0.392028       26814
 eccp                                    0.364823        2268
 work_mul_crexp                          0.334842       26814
 crexp_mul_wave                          0.249433       23790
 overl                                   0.176493       15629
 set_dd_paw                              0.171020          16
 M_bcast_d                               0.145714        4505
 setup_precond                           0.136312        2268
 pw_charge                               0.121418        1561
 overl1                                  0.107547        8938
 brmix                                   0.105102          14
 apply_precond                           0.093109        6670
 lincom                                  0.068807         399
 fornl                                   0.063919           1
 densta                                  0.045271          19
 phase                                   0.041198         610
 truncate_high_frequency_w1              0.037994       11206
 ggaall_grid                             0.032632          16
 orthch                                  0.031188           1
 proj                                    0.029209          21
 broyd                                   0.028949          14
 setg0                                   0.020308          15
 depsum                                  0.009791          14
 chggra                                  0.007268           1
 forhar                                  0.007253           2
 forloc                                  0.003579           1
 strehar                                 0.003139           1
 brget                                   0.003084         575
 strelo                                  0.003032           1
 choleski                                0.001990          21
 strkin                                  0.001394           1
 brsav                                   0.001361         163
 brgrid                                  0.001012           1
 brpre                                   0.000972          14
 vectorpot                               0.000081          15
 set_rsgf_all                            0.000074          16
 potlok_metagga                          0.000064          15
 set_dd_magatom                          0.000057          16
 set_kineden                             0.000046          13
 rotate_active_occupied_orbital          0.000015           1
 lprj_proall                             0.000008           1
 redis_pw_over_bands                     0.000004           1
 ---------------------------------------------------------------

Profiling took   1.574116  1.883865  0.006733  0.005177 seconds
Profiling took   1.545467 seconds
