<?xml version="1.0" encoding="ISO-8859-1"?>
<modeling>
 <generator>
  <i name="program" type="string">vasp </i>
  <i name="version" type="string">6.0.8  </i>
  <i name="subversion" type="string">29Jun18 (build Jun 13 2019 12:54:44) complex                          parallel </i>
  <i name="platform" type="string">IFC18_CrayMPICH </i>
  <i name="date" type="string">2021 12 05 </i>
  <i name="time" type="string">14:21:49 </i>
 </generator>
 <incar>
  <i type="int" name="KPAR">     4</i>
  <i type="int" name="NPAR">     4</i>
  <i type="int" name="ISTART">     0</i>
  <i type="string" name="PREC"> ACC</i>
  <i type="string" name="ALGO"> Normal</i>
  <i type="logical" name="ADDGRID"> T  </i>
  <i type="int" name="ISPIN">     1</i>
  <i type="int" name="NELMIN">     5</i>
  <i type="int" name="IBRION">    -1</i>
  <i name="EDIFF">      0.00000010</i>
  <i type="int" name="NSW">     0</i>
  <i type="int" name="ISIF">     3</i>
  <i name="ENCUT">    700.00000000</i>
  <i type="logical" name="LREAL"> F  </i>
  <i type="int" name="ISMEAR">     0</i>
  <i name="SIGMA">      0.01000000</i>
  <i type="logical" name="LWAVE"> F  </i>
  <i type="logical" name="LCHARG"> F  </i>
  <i type="logical" name="LVTOT"> F  </i>
  <i type="string" name="ALGO"> Normal</i>
  <i type="string" name="GGA"> PS</i>
  <i name="EDIFF">      0.00000010</i>
  <i type="int" name="ISPIN">     1</i>
 </incar>
 <structure name="primitive_cell" >
  <crystal>
   <varray name="basis" >
    <v>       0.00000000       3.33961277       3.33961277 </v>
    <v>       3.33961277       0.00000000       3.33961277 </v>
    <v>       3.33961277       3.33961277       0.00000000 </v>
   </varray>
   <i name="volume">     74.49349249 </i>
   <varray name="rec_basis" >
    <v>      -0.14971796       0.14971796       0.14971796 </v>
    <v>       0.14971796      -0.14971796       0.14971796 </v>
    <v>       0.14971796       0.14971796      -0.14971796 </v>
   </varray>
  </crystal>
  <varray name="positions" >
   <v>       0.25000000       0.25000000       0.25000000 </v>
   <v>       0.75000000       0.75000000       0.75000000 </v>
   <v>       0.00000000       0.00000000       0.00000000 </v>
  </varray>
 </structure>
 <varray name="primitive_index" >
  <v type="int" >        1 </v>
  <v type="int" >        2 </v>
  <v type="int" >        3 </v>
 </varray>
 <kpoints>
  <generation param="Gamma">
   <v type="int" name="divisions">      13       13       13 </v>
   <v name="usershift">      0.00000000       0.00000000       0.00000000 </v>
   <v name="genvec1">      0.07692308       0.00000000      -0.00000000 </v>
   <v name="genvec2">      0.00000000       0.07692308       0.00000000 </v>
   <v name="genvec3">     -0.00000000      -0.00000000       0.07692308 </v>
   <v name="shift">      0.00000000       0.00000000       0.00000000 </v>
  </generation>
  <varray name="kpointlist" >
   <v>       0.00000000       0.00000000       0.00000000 </v>
   <v>       0.07692308      -0.00000000       0.00000000 </v>
   <v>       0.15384615       0.00000000      -0.00000000 </v>
   <v>       0.23076923      -0.00000000       0.00000000 </v>
   <v>       0.30769231       0.00000000      -0.00000000 </v>
   <v>       0.38461538      -0.00000000       0.00000000 </v>
   <v>       0.46153846      -0.00000000       0.00000000 </v>
   <v>       0.07692308       0.07692308      -0.00000000 </v>
   <v>       0.15384615       0.07692308      -0.00000000 </v>
   <v>       0.23076923       0.07692308      -0.00000000 </v>
   <v>       0.30769231       0.07692308      -0.00000000 </v>
   <v>       0.38461538       0.07692308      -0.00000000 </v>
   <v>       0.46153846       0.07692308      -0.00000000 </v>
   <v>      -0.46153846       0.07692308       0.00000000 </v>
   <v>      -0.38461538       0.07692308      -0.00000000 </v>
   <v>      -0.30769231       0.07692308      -0.00000000 </v>
   <v>      -0.23076923       0.07692308      -0.00000000 </v>
   <v>      -0.15384615       0.07692308      -0.00000000 </v>
   <v>      -0.07692308       0.07692308      -0.00000000 </v>
   <v>       0.15384615       0.15384615      -0.00000000 </v>
   <v>       0.23076923       0.15384615      -0.00000000 </v>
   <v>       0.30769231       0.15384615      -0.00000000 </v>
   <v>       0.38461538       0.15384615      -0.00000000 </v>
   <v>       0.46153846       0.15384615      -0.00000000 </v>
   <v>      -0.46153846       0.15384615       0.00000000 </v>
   <v>      -0.38461538       0.15384615       0.00000000 </v>
   <v>      -0.30769231       0.15384615      -0.00000000 </v>
   <v>      -0.23076923       0.15384615      -0.00000000 </v>
   <v>      -0.15384615       0.15384615       0.00000000 </v>
   <v>       0.23076923       0.23076923      -0.00000000 </v>
   <v>       0.30769231       0.23076923      -0.00000000 </v>
   <v>       0.38461538       0.23076923      -0.00000000 </v>
   <v>       0.46153846       0.23076923      -0.00000000 </v>
   <v>      -0.46153846       0.23076923       0.00000000 </v>
   <v>      -0.38461538       0.23076923      -0.00000000 </v>
   <v>      -0.30769231       0.23076923       0.00000000 </v>
   <v>      -0.23076923       0.23076923      -0.00000000 </v>
   <v>       0.30769231       0.30769231      -0.00000000 </v>
   <v>       0.38461538       0.30769231      -0.00000000 </v>
   <v>       0.46153846       0.30769231      -0.00000000 </v>
   <v>      -0.46153846       0.30769231       0.00000000 </v>
   <v>      -0.38461538       0.30769231      -0.00000000 </v>
   <v>      -0.30769231       0.30769231       0.00000000 </v>
   <v>       0.38461538       0.38461538      -0.00000000 </v>
   <v>       0.46153846       0.38461538      -0.00000000 </v>
   <v>      -0.46153846       0.38461538      -0.00000000 </v>
   <v>      -0.38461538       0.38461538      -0.00000000 </v>
   <v>       0.46153846       0.46153846      -0.00000000 </v>
   <v>      -0.46153846       0.46153846      -0.00000000 </v>
   <v>       0.23076923       0.15384615       0.07692308 </v>
   <v>       0.30769231       0.15384615       0.07692308 </v>
   <v>       0.38461538       0.15384615       0.07692308 </v>
   <v>       0.46153846       0.15384615       0.07692308 </v>
   <v>      -0.46153846       0.15384615       0.07692308 </v>
   <v>       0.30769231       0.23076923       0.07692308 </v>
   <v>       0.38461538       0.23076923       0.07692308 </v>
   <v>       0.46153846       0.23076923       0.07692308 </v>
   <v>      -0.46153846       0.23076923       0.07692308 </v>
   <v>      -0.38461538       0.23076923       0.07692308 </v>
   <v>      -0.30769231       0.23076923       0.07692308 </v>
   <v>      -0.23076923       0.23076923       0.07692308 </v>
   <v>      -0.15384615       0.23076923       0.07692308 </v>
   <v>       0.38461538       0.30769231       0.07692308 </v>
   <v>       0.46153846       0.30769231       0.07692308 </v>
   <v>      -0.46153846       0.30769231       0.07692308 </v>
   <v>      -0.38461538       0.30769231       0.07692308 </v>
   <v>      -0.30769231       0.30769231       0.07692308 </v>
   <v>      -0.23076923       0.30769231       0.07692308 </v>
   <v>       0.46153846       0.38461538       0.07692308 </v>
   <v>      -0.46153846       0.38461538       0.07692308 </v>
   <v>      -0.38461538       0.38461538       0.07692308 </v>
   <v>      -0.30769231       0.38461538       0.07692308 </v>
   <v>      -0.46153846       0.46153846       0.07692308 </v>
   <v>      -0.38461538       0.46153846       0.07692308 </v>
   <v>       0.46153846       0.30769231       0.15384615 </v>
   <v>      -0.46153846       0.30769231       0.15384615 </v>
   <v>      -0.38461538       0.30769231       0.15384615 </v>
   <v>      -0.46153846       0.38461538       0.15384615 </v>
   <v>      -0.38461538       0.38461538       0.15384615 </v>
   <v>      -0.30769231       0.38461538       0.15384615 </v>
   <v>      -0.23076923       0.38461538       0.15384615 </v>
   <v>      -0.38461538       0.46153846       0.15384615 </v>
   <v>      -0.30769231       0.46153846       0.15384615 </v>
   <v>      -0.30769231       0.46153846       0.23076923 </v>
  </varray>
  <varray name="weights" >
   <v>       0.00045517 </v>
   <v>       0.00364133 </v>
   <v>       0.00364133 </v>
   <v>       0.00364133 </v>
   <v>       0.00364133 </v>
   <v>       0.00364133 </v>
   <v>       0.00364133 </v>
   <v>       0.00273100 </v>
   <v>       0.01092399 </v>
   <v>       0.01092399 </v>
   <v>       0.01092399 </v>
   <v>       0.01092399 </v>
   <v>       0.01092399 </v>
   <v>       0.01092399 </v>
   <v>       0.01092399 </v>
   <v>       0.01092399 </v>
   <v>       0.01092399 </v>
   <v>       0.01092399 </v>
   <v>       0.00546199 </v>
   <v>       0.00273100 </v>
   <v>       0.01092399 </v>
   <v>       0.01092399 </v>
   <v>       0.01092399 </v>
   <v>       0.01092399 </v>
   <v>       0.01092399 </v>
   <v>       0.01092399 </v>
   <v>       0.01092399 </v>
   <v>       0.01092399 </v>
   <v>       0.00546199 </v>
   <v>       0.00273100 </v>
   <v>       0.01092399 </v>
   <v>       0.01092399 </v>
   <v>       0.01092399 </v>
   <v>       0.01092399 </v>
   <v>       0.01092399 </v>
   <v>       0.01092399 </v>
   <v>       0.00546199 </v>
   <v>       0.00273100 </v>
   <v>       0.01092399 </v>
   <v>       0.01092399 </v>
   <v>       0.01092399 </v>
   <v>       0.01092399 </v>
   <v>       0.00546199 </v>
   <v>       0.00273100 </v>
   <v>       0.01092399 </v>
   <v>       0.01092399 </v>
   <v>       0.00546199 </v>
   <v>       0.00273100 </v>
   <v>       0.00546199 </v>
   <v>       0.01092399 </v>
   <v>       0.02184797 </v>
   <v>       0.02184797 </v>
   <v>       0.02184797 </v>
   <v>       0.02184797 </v>
   <v>       0.01092399 </v>
   <v>       0.02184797 </v>
   <v>       0.02184797 </v>
   <v>       0.02184797 </v>
   <v>       0.02184797 </v>
   <v>       0.02184797 </v>
   <v>       0.02184797 </v>
   <v>       0.01092399 </v>
   <v>       0.01092399 </v>
   <v>       0.02184797 </v>
   <v>       0.02184797 </v>
   <v>       0.02184797 </v>
   <v>       0.02184797 </v>
   <v>       0.01092399 </v>
   <v>       0.01092399 </v>
   <v>       0.02184797 </v>
   <v>       0.02184797 </v>
   <v>       0.01092399 </v>
   <v>       0.01092399 </v>
   <v>       0.01092399 </v>
   <v>       0.01092399 </v>
   <v>       0.02184797 </v>
   <v>       0.02184797 </v>
   <v>       0.01092399 </v>
   <v>       0.02184797 </v>
   <v>       0.02184797 </v>
   <v>       0.01092399 </v>
   <v>       0.01092399 </v>
   <v>       0.01092399 </v>
   <v>       0.01092399 </v>
  </varray>
 </kpoints>
 <parameters>
  <separator name="general" >
   <i type="string" name="SYSTEM">unknown system</i>
   <i type="logical" name="LCOMPAT"> F  </i>
  </separator>
  <separator name="electronic" >
   <i type="string" name="PREC">acc</i>
   <i name="ENMAX">    700.00000000</i>
   <i name="ENAUG">    526.41000000</i>
   <i name="EDIFF">      0.00000010</i>
   <i type="int" name="IALGO">    38</i>
   <i type="int" name="IWAVPR">    10</i>
   <i type="int" name="NBANDS">    24</i>
   <i type="int" name="NBANDSLOW">    -1</i>
   <i type="int" name="NBANDSHIGH">    -1</i>
   <i name="NELECT">     39.00000000</i>
   <i type="int" name="TURBO">     0</i>
   <i type="int" name="IRESTART">     0</i>
   <i type="int" name="NREBOOT">     0</i>
   <i type="int" name="NMIN">     0</i>
   <i name="EREF">      0.00000000</i>
   <separator name="electronic smearing" >
    <i type="int" name="ISMEAR">     0</i>
    <i name="SIGMA">      0.01000000</i>
    <i name="KSPACING">      0.50000000</i>
    <i type="logical" name="KGAMMA"> T  </i>
    <i type="logical" name="KBLOWUP"> T  </i>
   </separator>
   <separator name="electronic projectors" >
    <i type="logical" name="LREAL"> F  </i>
    <v name="ROPT">      0.00000000      0.00000000      0.00000000</v>
    <i type="int" name="LMAXPAW">  -100</i>
    <i type="int" name="LMAXMIX">     2</i>
    <i type="logical" name="NLSPLINE"> F  </i>
   </separator>
   <separator name="electronic startup" >
    <i type="int" name="ISTART">     0</i>
    <i type="int" name="ICHARG">     2</i>
    <i type="int" name="INIWAV">     1</i>
   </separator>
   <separator name="electronic spin" >
    <i type="int" name="ISPIN">     1</i>
    <i type="logical" name="LNONCOLLINEAR"> F  </i>
    <v name="MAGMOM">      1.00000000      1.00000000      1.00000000</v>
    <i name="NUPDOWN">     -1.00000000</i>
    <i type="logical" name="LSORBIT"> F  </i>
    <v name="SAXIS">      0.00000000      0.00000000      1.00000000</v>
    <i type="logical" name="LSPIRAL"> F  </i>
    <v name="QSPIRAL">      0.00000000      0.00000000      0.00000000</v>
    <i type="logical" name="LZEROZ"> F  </i>
   </separator>
   <separator name="electronic exchange-correlation" >
    <i type="logical" name="LASPH"> F  </i>
    <i type="logical" name="LMETAGGA"> F  </i>
   </separator>
   <separator name="electronic convergence" >
    <i type="int" name="NELM">    60</i>
    <i type="int" name="NELMDL">    -5</i>
    <i type="int" name="NELMIN">     5</i>
    <i name="ENINI">    700.00000000</i>
    <separator name="electronic convergence detail" >
     <i type="logical" name="LDIAG"> T  </i>
     <i type="logical" name="LSUBROT"> F  </i>
     <i name="WEIMIN">      0.00000000</i>
     <i name="EBREAK">      0.00000000</i>
     <i name="DEPER">      0.30000000</i>
     <i type="int" name="NRMM">     4</i>
     <i name="TIME">      0.40000000</i>
    </separator>
   </separator>
   <separator name="electronic mixer" >
    <i name="AMIX">      0.40000000</i>
    <i name="BMIX">      1.00000000</i>
    <i name="AMIN">      0.10000000</i>
    <i name="AMIX_MAG">      1.60000000</i>
    <i name="BMIX_MAG">      1.00000000</i>
    <separator name="electronic mixer details" >
     <i type="int" name="IMIX">     4</i>
     <i type="logical" name="MIXFIRST"> F  </i>
     <i type="int" name="MAXMIX">   -45</i>
     <i name="WC">    100.00000000</i>
     <i type="int" name="INIMIX">     1</i>
     <i type="int" name="MIXPRE">     1</i>
     <i type="int" name="MREMOVE">     5</i>
    </separator>
   </separator>
   <separator name="electronic dipolcorrection" >
    <i type="logical" name="LDIPOL"> F  </i>
    <i type="logical" name="LMONO"> F  </i>
    <i type="int" name="IDIPOL">     0</i>
    <i name="EPSILON">      1.00000000</i>
    <v name="DIPOL">   -100.00000000   -100.00000000   -100.00000000</v>
    <i name="EFIELD">      0.00000000</i>
   </separator>
  </separator>
  <separator name="grids" >
   <i type="int" name="NGX">    42</i>
   <i type="int" name="NGY">    42</i>
   <i type="int" name="NGZ">    42</i>
   <i type="int" name="NGXF">    84</i>
   <i type="int" name="NGYF">    84</i>
   <i type="int" name="NGZF">    84</i>
   <i type="logical" name="ADDGRID"> T  </i>
  </separator>
  <separator name="ionic" >
   <i type="int" name="NSW">     0</i>
   <i type="int" name="IBRION">    -1</i>
   <i type="int" name="MDALGO">     0</i>
   <i type="int" name="ISIF">     3</i>
   <i name="PSTRESS">      0.00000000</i>
   <i name="EDIFFG">      0.00000100</i>
   <i type="int" name="NFREE">     0</i>
   <i name="POTIM">      0.50000000</i>
   <i name="SMASS">     -3.00000000</i>
   <i name="SCALEE">      1.00000000</i>
  </separator>
  <separator name="ionic md" >
   <i name="TEBEG">      0.00010000</i>
   <i name="TEEND">      0.00010000</i>
   <i type="int" name="NBLOCK">     1</i>
   <i type="int" name="KBLOCK">     1</i>
   <i type="int" name="NPACO">   256</i>
   <i name="APACO">     16.00000000</i>
  </separator>
  <separator name="symmetry" >
   <i type="int" name="ISYM">     2</i>
   <i name="SYMPREC">      0.00001000</i>
  </separator>
  <separator name="dos" >
   <i type="int" name="LORBIT">     0</i>
   <v name="RWIGS">     -1.00000000     -1.00000000     -1.00000000</v>
   <i type="int" name="NEDOS">   301</i>
   <i name="EMIN">     10.00000000</i>
   <i name="EMAX">    -10.00000000</i>
   <i name="EFERMI">      0.00000000</i>
  </separator>
  <separator name="writing" >
   <i type="int" name="NWRITE">     2</i>
   <i type="logical" name="LWAVE"> F  </i>
   <i type="logical" name="LDOWNSAMPLE"> F  </i>
   <i type="logical" name="LCHARG"> F  </i>
   <i type="logical" name="LPARD"> F  </i>
   <i type="logical" name="LVTOT"> F  </i>
   <i type="logical" name="LVHAR"> F  </i>
   <i type="logical" name="LELF"> F  </i>
   <i type="logical" name="LOPTICS"> F  </i>
   <v name="STM">      0.00000000      0.00000000      0.00000000      0.00000000      0.00000000      0.00000000      0.00000000</v>
  </separator>
  <separator name="performance" >
   <i type="int" name="NPAR">     4</i>
   <i type="int" name="NSIM">     4</i>
   <i type="int" name="NBLK">    -1</i>
   <i type="logical" name="LPLANE"> T  </i>
   <i type="logical" name="LSCALAPACK"> T  </i>
   <i type="logical" name="LSCAAWARE"> F  </i>
   <i type="logical" name="LSCALU"> F  </i>
   <i type="logical" name="LASYNC"> F  </i>
   <i type="logical" name="LORBITALREAL"> F  </i>
  </separator>
  <separator name="miscellaneous" >
   <i type="int" name="IDIOT">     3</i>
   <i type="int" name="PHON_NSTRUCT">    -1</i>
   <i type="logical" name="LMUSIC"> F  </i>
   <v name="POMASS">    238.02900000    208.98000000    195.08000000</v>
   <v name="DARWINR">      0.00000000      0.00000000      0.00000000</v>
   <v name="DARWINV">      1.00000000      1.00000000      1.00000000</v>
   <i type="logical" name="LCORR"> T  </i>
  </separator>
  <i type="logical" name="GGA_COMPAT"> T  </i>
  <i type="logical" name="LBERRY"> F  </i>
  <i type="int" name="ICORELEVEL">     0</i>
  <i type="logical" name="LDAU"> F  </i>
  <i type="int" name="I_CONSTRAINED_M">     0</i>
  <separator name="electronic exchange-correlation" >
   <i type="string" name="GGA">PS</i>
   <i type="int" name="VOSKOWN">     0</i>
   <i type="logical" name="LHFCALC"> F  </i>
   <i type="string" name="PRECFOCK"></i>
   <i type="logical" name="LSYMGRAD"> F  </i>
   <i type="logical" name="LHFONE"> F  </i>
   <i type="logical" name="LRHFCALC"> F  </i>
   <i type="logical" name="LTHOMAS"> F  </i>
   <i type="logical" name="LMODELHF"> F  </i>
   <i type="logical" name="LFOCKACE"> F  </i>
   <i name="ENCUT4O">     -1.00000000</i>
   <i type="int" name="EXXOEP">     0</i>
   <i type="int" name="FOURORBIT">     0</i>
   <i name="AEXX">      0.00000000</i>
   <i name="HFALPHA">      0.00000000</i>
   <i name="MCALPHA">      0.00000000</i>
   <i name="ALDAX">      1.00000000</i>
   <i name="AGGAX">      1.00000000</i>
   <i name="ALDAC">      1.00000000</i>
   <i name="AGGAC">      1.00000000</i>
   <i type="int" name="NKREDX">     1</i>
   <i type="int" name="NKREDY">     1</i>
   <i type="int" name="NKREDZ">     1</i>
   <i type="logical" name="SHIFTRED"> F  </i>
   <i type="logical" name="ODDONLY"> F  </i>
   <i type="logical" name="EVENONLY"> F  </i>
   <i type="int" name="LMAXFOCK">     0</i>
   <i type="int" name="NMAXFOCKAE">     0</i>
   <i type="logical" name="LFOCKAEDFT"> F  </i>
   <i name="HFSCREEN">      0.00000000</i>
   <i name="HFSCREENC">      0.00000000</i>
   <i type="int" name="NBANDSGWLOW">     0</i>
  </separator>
  <separator name="vdW DFT" >
   <i type="logical" name="LUSE_VDW"> F  </i>
   <i name="Zab_VDW">     -0.84910000</i>
   <i name="PARAM1">      0.12340000</i>
   <i name="PARAM2">      1.00000000</i>
   <i name="PARAM3">      0.00000000</i>
  </separator>
  <separator name="model GW" >
   <i type="int" name="MODEL_GW">     0</i>
   <i name="MODEL_EPS0">     14.89869850</i>
   <i name="MODEL_ALPHA">      1.00000000</i>
  </separator>
  <separator name="linear response parameters" >
   <i type="logical" name="LEPSILON"> F  </i>
   <i type="logical" name="LRPA"> F  </i>
   <i type="logical" name="LNABLA"> F  </i>
   <i type="logical" name="LVEL"> F  </i>
   <i type="int" name="KINTER">     0</i>
   <i name="CSHIFT">      0.10000000</i>
   <i name="OMEGAMAX">     -1.00000000</i>
   <i name="DEG_THRESHOLD">      0.00200000</i>
   <i name="RTIME">     -0.10000000</i>
   <i name="WPLASMAI">      0.00000000</i>
   <v name="DFIELD">      0.00000000      0.00000000      0.00000000</v>
   <v name="WPLASMA">      0.00000000      0.00000000      0.00000000      0.00000000      0.00000000      0.00000000      0.00000000      0.00000000      0.00000000</v>
  </separator>
  <separator name="orbital magnetization" >
   <i type="logical" name="NUCIND"> F  </i>
   <v name="MAGPOS">      0.00000000      0.00000000      0.00000000</v>
   <i type="logical" name="LNICSALL"> T  </i>
   <i type="logical" name="ORBITALMAG"> F  </i>
   <i type="logical" name="LMAGBLOCH"> F  </i>
   <i type="logical" name="LCHIMAG"> F  </i>
   <i type="logical" name="LGAUGE"> T  </i>
   <i type="int" name="MAGATOM">     0</i>
   <v name="MAGDIPOL">      0.00000000      0.00000000      0.00000000</v>
   <v name="AVECCONST">      0.00000000      0.00000000      0.00000000</v>
  </separator>
  <separator name="response functions" >
   <i type="logical" name="LFINITE_TEMPERATURE"> F  </i>
   <i type="logical" name="LADDER"> F  </i>
   <i type="logical" name="LRPAFORCE"> F  </i>
   <i type="logical" name="LFXC"> F  </i>
   <i type="logical" name="LHARTREE"> T  </i>
   <i type="int" name="IBSE">     0</i>
   <v type="int" name="KPOINT">    -1     0     0     0</v>
   <i type="logical" name="LTCTC"> F  </i>
   <i type="logical" name="LTCTE"> F  </i>
   <i type="logical" name="LTETE"> F  </i>
   <i type="logical" name="LTRIPLET"> F  </i>
   <i type="logical" name="LFXCEPS"> F  </i>
   <i type="logical" name="LFXHEG"> F  </i>
   <i type="int" name="NATURALO">     2</i>
   <i type="logical" name="L2ORDER"> F  </i>
   <i type="logical" name="LDMP1"> F  </i>
   <i type="logical" name="LMP2LT"> F  </i>
   <i type="logical" name="LSMP2LT"> F  </i>
   <i type="logical" name="LUSEW"> F  </i>
   <i name="ENCUTGW">     -2.00000000</i>
   <i name="ENCUTGWSOFT">     -2.00000000</i>
   <i name="ENCUTLF">     -1.00000000</i>
   <i type="int" name="LMAXMP2">    -1</i>
   <i name="SCISSOR">      0.00000000</i>
   <i type="int" name="NOMEGA">     0</i>
   <i type="int" name="NOMEGAR">     0</i>
   <i type="int" name="NBANDSGW">    -1</i>
   <i type="int" name="NBANDSO">    -1</i>
   <i type="int" name="NBANDSV">    -1</i>
   <i type="int" name="NELM">     1</i>
   <i type="int" name="NELMHF">     1</i>
   <i type="int" name="DIM">     3</i>
   <i type="int" name="IESPILON">     4</i>
   <i type="int" name="ANTIRES">     0</i>
   <i name="OMEGAMAX">    -30.00000000</i>
   <i name="OMEGAMIN">    -30.00000000</i>
   <i name="OMEGATL">   -200.00000000</i>
   <i type="int" name="OMEGAGRID">   145</i>
   <i name="CSHIFT">     -0.10000000</i>
   <i type="logical" name="LSELFENERGY"> F  </i>
   <i type="logical" name="LSPECTRAL"> F  </i>
   <i type="logical" name="LSPECTRALGW"> F  </i>
   <i type="logical" name="LSINGLES"> F  </i>
   <i type="logical" name="LFERMIGW"> F  </i>
   <i type="logical" name="ODDONLYGW"> F  </i>
   <i type="logical" name="EVENONLYGW"> F  </i>
   <i type="int" name="NKREDLFX">     1</i>
   <i type="int" name="NKREDLFY">     1</i>
   <i type="int" name="NKREDLFZ">     1</i>
   <i type="int" name="MAXMEM">  2800</i>
   <i type="int" name="TELESCOPE">     0</i>
   <i type="int" name="NTAUPAR">     1</i>
   <i type="int" name="NOMEGAPAR">    -1</i>
   <i name="LAMBDA">      1.00000000</i>
  </separator>
  <separator name="External order field" >
   <i name="OFIELD_KAPPA">      0.00000000</i>
   <v name="OFIELD_K">      0.00000000      0.00000000      0.00000000</v>
   <i name="OFIELD_Q6_NEAR">      0.00000000</i>
   <i name="OFIELD_Q6_FAR">      0.00000000</i>
   <i name="OFIELD_A">      0.00000000</i>
  </separator>
 </parameters>
 <atominfo>
  <atoms>       3 </atoms>
  <types>       3 </types>
  <array name="atoms" >
   <dimension dim="1">ion</dimension>
   <field type="string">element</field>
   <field type="int">atomtype</field>
   <set>
    <rc><c>U </c><c>   1</c></rc>
    <rc><c>Bi</c><c>   2</c></rc>
    <rc><c>Pt</c><c>   3</c></rc>
   </set>
  </array>
  <array name="atomtypes" >
   <dimension dim="1">type</dimension>
   <field type="int">atomspertype</field>
   <field type="string">element</field>
   <field>mass</field>
   <field>valence</field>
   <field type="string">pseudopotential</field>
   <set>
    <rc><c>   1</c><c>U </c><c>    238.02900000</c><c>     14.00000000</c><c>  PAW_PBE U 06Sep2000                   </c></rc>
    <rc><c>   1</c><c>Bi</c><c>    208.98000000</c><c>     15.00000000</c><c>  PAW_PBE Bi_d 06Sep2000                </c></rc>
    <rc><c>   1</c><c>Pt</c><c>    195.08000000</c><c>     10.00000000</c><c>  PAW_PBE Pt 04Feb2005                  </c></rc>
   </set>
  </array>
 </atominfo>
 <structure name="initialpos" >
  <crystal>
   <varray name="basis" >
    <v>       0.00000000       3.33961277       3.33961277 </v>
    <v>       3.33961277       0.00000000       3.33961277 </v>
    <v>       3.33961277       3.33961277       0.00000000 </v>
   </varray>
   <i name="volume">     74.49349249 </i>
   <varray name="rec_basis" >
    <v>      -0.14971796       0.14971796       0.14971796 </v>
    <v>       0.14971796      -0.14971796       0.14971796 </v>
    <v>       0.14971796       0.14971796      -0.14971796 </v>
   </varray>
  </crystal>
  <varray name="positions" >
   <v>       0.25000000       0.25000000       0.25000000 </v>
   <v>       0.75000000       0.75000000       0.75000000 </v>
   <v>       0.00000000       0.00000000       0.00000000 </v>
  </varray>
 </structure>
 <calculation>
  <scstep>
   <time name="dav">    1.50    1.54</time>
   <time name="total">    1.66    1.80</time>
   <energy>
    <i name="alphaZ">    211.08937367 </i>
    <i name="ewald">  -3569.66826723 </i>
    <i name="hartreedc">   -794.00866106 </i>
    <i name="XCdc">     90.10738099 </i>
    <i name="pawpsdc">   3513.29252893 </i>
    <i name="pawaedc">  -3436.88002192 </i>
    <i name="eentropy">     -0.00029494 </i>
    <i name="bandstr">    321.38180163 </i>
    <i name="atom">   4095.35208632 </i>
    <i name="e_fr_energy">    430.66592639 </i>
    <i name="e_wo_entrp">    430.66622133 </i>
    <i name="e_0_energy">    430.66607386 </i>
   </energy>
  </scstep>
  <scstep>
   <time name="dav">    1.62    1.65</time>
   <time name="total">    1.63    1.65</time>
   <energy>
    <i name="e_fr_energy">     30.06285427 </i>
    <i name="e_wo_entrp">     30.06319555 </i>
    <i name="e_0_energy">     30.06302491 </i>
   </energy>
  </scstep>
  <scstep>
   <time name="dav">    1.77    1.79</time>
   <time name="total">    1.77    1.79</time>
   <energy>
    <i name="e_fr_energy">    -20.51084933 </i>
    <i name="e_wo_entrp">    -20.50959215 </i>
    <i name="e_0_energy">    -20.51022074 </i>
   </energy>
  </scstep>
  <scstep>
   <time name="dav">    2.50    2.52</time>
   <time name="total">    2.51    2.53</time>
   <energy>
    <i name="e_fr_energy">    -25.89089902 </i>
    <i name="e_wo_entrp">    -25.88986697 </i>
    <i name="e_0_energy">    -25.89038299 </i>
   </energy>
  </scstep>
  <scstep>
   <time name="dav">    1.89    1.91</time>
   <time name="total">    2.26    2.28</time>
   <energy>
    <i name="e_fr_energy">    -26.06540316 </i>
    <i name="e_wo_entrp">    -26.06439689 </i>
    <i name="e_0_energy">    -26.06490002 </i>
   </energy>
  </scstep>
  <scstep>
   <time name="dav">    2.02    2.02</time>
   <time name="total">    2.50    2.52</time>
   <energy>
    <i name="e_fr_energy">    -33.77985374 </i>
    <i name="e_wo_entrp">    -33.77974014 </i>
    <i name="e_0_energy">    -33.77979694 </i>
   </energy>
  </scstep>
  <scstep>
   <time name="dav">    1.96    1.96</time>
   <time name="total">    2.41    2.44</time>
   <energy>
    <i name="e_fr_energy">    -24.71475077 </i>
    <i name="e_wo_entrp">    -24.71384967 </i>
    <i name="e_0_energy">    -24.71430022 </i>
   </energy>
  </scstep>
  <scstep>
   <time name="dav">    1.98    1.98</time>
   <time name="total">    2.44    2.46</time>
   <energy>
    <i name="e_fr_energy">    -24.60078923 </i>
    <i name="e_wo_entrp">    -24.59956191 </i>
    <i name="e_0_energy">    -24.60017557 </i>
   </energy>
  </scstep>
  <scstep>
   <time name="dav">    2.09    2.10</time>
   <time name="total">    2.54    2.58</time>
   <energy>
    <i name="e_fr_energy">    -23.74980099 </i>
    <i name="e_wo_entrp">    -23.74848839 </i>
    <i name="e_0_energy">    -23.74914469 </i>
   </energy>
  </scstep>
  <scstep>
   <time name="dav">    2.26    2.26</time>
   <time name="total">    2.72    2.74</time>
   <energy>
    <i name="e_fr_energy">    -23.80085403 </i>
    <i name="e_wo_entrp">    -23.79952011 </i>
    <i name="e_0_energy">    -23.80018707 </i>
   </energy>
  </scstep>
  <scstep>
   <time name="dav">    2.03    2.03</time>
   <time name="total">    2.49    2.52</time>
   <energy>
    <i name="e_fr_energy">    -23.75809434 </i>
    <i name="e_wo_entrp">    -23.75642044 </i>
    <i name="e_0_energy">    -23.75725739 </i>
   </energy>
  </scstep>
  <scstep>
   <time name="dav">    2.20    2.20</time>
   <time name="total">    2.66    2.68</time>
   <energy>
    <i name="e_fr_energy">    -23.75899664 </i>
    <i name="e_wo_entrp">    -23.75726698 </i>
    <i name="e_0_energy">    -23.75813181 </i>
   </energy>
  </scstep>
  <scstep>
   <time name="dav">    2.08    2.08</time>
   <time name="total">    2.53    2.58</time>
   <energy>
    <i name="e_fr_energy">    -23.75877740 </i>
    <i name="e_wo_entrp">    -23.75706093 </i>
    <i name="e_0_energy">    -23.75791917 </i>
   </energy>
  </scstep>
  <scstep>
   <time name="dav">    2.26    2.27</time>
   <time name="total">    2.73    2.76</time>
   <energy>
    <i name="e_fr_energy">    -23.75875904 </i>
    <i name="e_wo_entrp">    -23.75704256 </i>
    <i name="e_0_energy">    -23.75790080 </i>
   </energy>
  </scstep>
  <scstep>
   <time name="dav">    1.98    1.98</time>
   <time name="total">    2.44    2.46</time>
   <energy>
    <i name="e_fr_energy">    -23.75875970 </i>
    <i name="e_wo_entrp">    -23.75704301 </i>
    <i name="e_0_energy">    -23.75790136 </i>
   </energy>
  </scstep>
  <scstep>
   <time name="dav">    2.03    2.03</time>
   <time name="total">    2.49    2.53</time>
   <energy>
    <i name="e_fr_energy">    -23.75875813 </i>
    <i name="e_wo_entrp">    -23.75704466 </i>
    <i name="e_0_energy">    -23.75790139 </i>
   </energy>
  </scstep>
  <scstep>
   <time name="dav">    2.28    2.28</time>
   <time name="total">    2.73    2.76</time>
   <energy>
    <i name="e_fr_energy">    -23.75875800 </i>
    <i name="e_wo_entrp">    -23.75704374 </i>
    <i name="e_0_energy">    -23.75790087 </i>
   </energy>
  </scstep>
  <scstep>
   <time name="dav">    1.51    1.51</time>
   <time name="total">    1.66    1.68</time>
   <energy>
    <i name="alphaZ">    211.08937367 </i>
    <i name="ewald">  -3569.66826723 </i>
    <i name="hartreedc">   -780.97321374 </i>
    <i name="XCdc">     89.72411461 </i>
    <i name="pawpsdc">   4164.42857245 </i>
    <i name="pawaedc">  -4097.15203707 </i>
    <i name="eentropy">     -0.00171447 </i>
    <i name="bandstr">   -136.55767245 </i>
    <i name="atom">   4095.35208632 </i>
    <i name="e_fr_energy">    -23.75875791 </i>
    <i name="e_wo_entrp">    -23.75704344 </i>
    <i name="e_0_energy">    -23.75790067 </i>
   </energy>
  </scstep>
  <structure>
   <crystal>
    <varray name="basis" >
     <v>       0.00000000       3.33961277       3.33961277 </v>
     <v>       3.33961277       0.00000000       3.33961277 </v>
     <v>       3.33961277       3.33961277       0.00000000 </v>
    </varray>
    <i name="volume">     74.49349249 </i>
    <varray name="rec_basis" >
     <v>      -0.14971796       0.14971796       0.14971796 </v>
     <v>       0.14971796      -0.14971796       0.14971796 </v>
     <v>       0.14971796       0.14971796      -0.14971796 </v>
    </varray>
   </crystal>
   <varray name="positions" >
    <v>       0.25000000       0.25000000       0.25000000 </v>
    <v>       0.75000000       0.75000000       0.75000000 </v>
    <v>       0.00000000       0.00000000       0.00000000 </v>
   </varray>
  </structure>
  <varray name="forces" >
   <v>       0.00000000      -0.00000000       0.00000000 </v>
   <v>       0.00000000      -0.00000000      -0.00000000 </v>
   <v>      -0.00000000       0.00000000      -0.00000000 </v>
  </varray>
  <varray name="stress" >
   <v>     -22.03545677       0.00000000       0.00000000 </v>
   <v>       0.00000000     -22.03545677      -0.00000000 </v>
   <v>      -0.00000000       0.00000000     -22.03545677 </v>
  </varray>
  <energy>
   <i name="e_fr_energy">    -23.75875791 </i>
   <i name="e_wo_entrp">    -23.75790067 </i>
   <i name="e_0_energy">     -0.00171447 </i>
  </energy>
  <time name="totalsc">   46.17   47.20</time>
  <eigenvalues>
   <array>
    <dimension dim="1">band</dimension>
    <dimension dim="2">kpoint</dimension>
    <dimension dim="3">spin</dimension>
    <field>eigene</field>
    <field>occ</field>
    <set>
     <set comment="spin 1">
      <set comment="kpoint 1">
       <r>  -34.3180    1.0000 </r>
       <r>  -13.0662    1.0000 </r>
       <r>  -13.0662    1.0000 </r>
       <r>  -13.0387    1.0000 </r>
       <r>  -13.0387    1.0000 </r>
       <r>  -13.0387    1.0000 </r>
       <r>   -9.5910    1.0000 </r>
       <r>   -9.5910    1.0000 </r>
       <r>   -9.5910    1.0000 </r>
       <r>   -2.6016    1.0000 </r>
       <r>    5.2792    1.0000 </r>
       <r>    5.2792    1.0000 </r>
       <r>    5.2792    1.0000 </r>
       <r>    5.5465    1.0000 </r>
       <r>    5.5465    1.0000 </r>
       <r>    8.1554    1.0000 </r>
       <r>    8.6736    1.0000 </r>
       <r>    8.6736    1.0000 </r>
       <r>    8.6736    1.0000 </r>
       <r>    9.7945    0.9998 </r>
       <r>    9.7945    0.9998 </r>
       <r>    9.7945    0.9998 </r>
       <r>    9.9198    0.0000 </r>
       <r>   10.0495    0.0000 </r>
      </set>
      <set comment="kpoint 2">
       <r>  -34.3178    1.0000 </r>
       <r>  -13.0677    1.0000 </r>
       <r>  -13.0677    1.0000 </r>
       <r>  -13.0390    1.0000 </r>
       <r>  -13.0385    1.0000 </r>
       <r>  -13.0385    1.0000 </r>
       <r>   -9.6045    1.0000 </r>
       <r>   -9.5878    1.0000 </r>
       <r>   -9.5878    1.0000 </r>
       <r>   -2.5366    1.0000 </r>
       <r>    5.1529    1.0000 </r>
       <r>    5.1679    1.0000 </r>
       <r>    5.1679    1.0000 </r>
       <r>    5.6510    1.0000 </r>
       <r>    5.6510    1.0000 </r>
       <r>    7.7848    1.0000 </r>
       <r>    8.6157    1.0000 </r>
       <r>    8.6157    1.0000 </r>
       <r>    8.9042    1.0000 </r>
       <r>    9.7542    1.0000 </r>
       <r>    9.7809    1.0000 </r>
       <r>    9.7809    1.0000 </r>
       <r>   10.0540    0.0000 </r>
       <r>   10.1235    0.0000 </r>
      </set>
      <set comment="kpoint 3">
       <r>  -34.3171    1.0000 </r>
       <r>  -13.0718    1.0000 </r>
       <r>  -13.0718    1.0000 </r>
       <r>  -13.0398    1.0000 </r>
       <r>  -13.0380    1.0000 </r>
       <r>  -13.0380    1.0000 </r>
       <r>   -9.6406    1.0000 </r>
       <r>   -9.5791    1.0000 </r>
       <r>   -9.5791    1.0000 </r>
       <r>   -2.3551    1.0000 </r>
       <r>    4.8323    1.0000 </r>
       <r>    5.0075    1.0000 </r>
       <r>    5.0075    1.0000 </r>
       <r>    5.7810    1.0000 </r>
       <r>    5.7810    1.0000 </r>
       <r>    7.2219    1.0000 </r>
       <r>    8.4898    1.0000 </r>
       <r>    8.4898    1.0000 </r>
       <r>    8.9923    1.0000 </r>
       <r>    9.7724    1.0000 </r>
       <r>    9.7724    1.0000 </r>
       <r>    9.9600    0.0000 </r>
       <r>   10.0536    0.0000 </r>
       <r>   10.2585    0.0000 </r>
      </set>
      <set comment="kpoint 4">
       <r>  -34.3162    1.0000 </r>
       <r>  -13.0776    1.0000 </r>
       <r>  -13.0776    1.0000 </r>
       <r>  -13.0411    1.0000 </r>
       <r>  -13.0372    1.0000 </r>
       <r>  -13.0372    1.0000 </r>
       <r>   -9.6886    1.0000 </r>
       <r>   -9.5669    1.0000 </r>
       <r>   -9.5669    1.0000 </r>
       <r>   -2.0952    1.0000 </r>
       <r>    4.4339    1.0000 </r>
       <r>    4.8849    1.0000 </r>
       <r>    4.8849    1.0000 </r>
       <r>    5.8319    1.0000 </r>
       <r>    5.8319    1.0000 </r>
       <r>    6.6936    1.0000 </r>
       <r>    8.3784    1.0000 </r>
       <r>    8.3784    1.0000 </r>
       <r>    8.9896    1.0000 </r>
       <r>    9.7834    1.0000 </r>
       <r>    9.7834    1.0000 </r>
       <r>   10.0581    0.0000 </r>
       <r>   10.1031    0.0000 </r>
       <r>   10.3294    0.0000 </r>
      </set>
      <set comment="kpoint 5">
       <r>  -34.3152    1.0000 </r>
       <r>  -13.0838    1.0000 </r>
       <r>  -13.0838    1.0000 </r>
       <r>  -13.0427    1.0000 </r>
       <r>  -13.0362    1.0000 </r>
       <r>  -13.0362    1.0000 </r>
       <r>   -9.7361    1.0000 </r>
       <r>   -9.5540    1.0000 </r>
       <r>   -9.5540    1.0000 </r>
       <r>   -1.8132    1.0000 </r>
       <r>    4.0592    1.0000 </r>
       <r>    4.8169    1.0000 </r>
       <r>    4.8169    1.0000 </r>
       <r>    5.7885    1.0000 </r>
       <r>    5.7885    1.0000 </r>
       <r>    6.2714    1.0000 </r>
       <r>    8.3244    1.0000 </r>
       <r>    8.3244    1.0000 </r>
       <r>    9.0264    1.0000 </r>
       <r>    9.8115    0.8648 </r>
       <r>    9.8115    0.8648 </r>
       <r>   10.0631    0.0000 </r>
       <r>   10.1700    0.0000 </r>
       <r>   10.2977    0.0000 </r>
      </set>
      <set comment="kpoint 6">
       <r>  -34.3144    1.0000 </r>
       <r>  -13.0889    1.0000 </r>
       <r>  -13.0889    1.0000 </r>
       <r>  -13.0442    1.0000 </r>
       <r>  -13.0355    1.0000 </r>
       <r>  -13.0355    1.0000 </r>
       <r>   -9.7730    1.0000 </r>
       <r>   -9.5434    1.0000 </r>
       <r>   -9.5434    1.0000 </r>
       <r>   -1.5741    1.0000 </r>
       <r>    3.7769    1.0000 </r>
       <r>    4.7985    1.0000 </r>
       <r>    4.7985    1.0000 </r>
       <r>    5.6914    1.0000 </r>
       <r>    5.6914    1.0000 </r>
       <r>    5.9853    1.0000 </r>
       <r>    8.3176    1.0000 </r>
       <r>    8.3176    1.0000 </r>
       <r>    9.0988    1.0000 </r>
       <r>    9.8522    0.0000 </r>
       <r>    9.8522    0.0000 </r>
       <r>   10.2108    0.0000 </r>
       <r>   10.2189    0.0000 </r>
       <r>   10.2216    0.0000 </r>
      </set>
      <set comment="kpoint 7">
       <r>  -34.3139    1.0000 </r>
       <r>  -13.0917    1.0000 </r>
       <r>  -13.0917    1.0000 </r>
       <r>  -13.0452    1.0000 </r>
       <r>  -13.0350    1.0000 </r>
       <r>  -13.0350    1.0000 </r>
       <r>   -9.7928    1.0000 </r>
       <r>   -9.5374    1.0000 </r>
       <r>   -9.5374    1.0000 </r>
       <r>   -1.4367    1.0000 </r>
       <r>    3.6269    1.0000 </r>
       <r>    4.8050    1.0000 </r>
       <r>    4.8050    1.0000 </r>
       <r>    5.6124    1.0000 </r>
       <r>    5.6124    1.0000 </r>
       <r>    5.8425    1.0000 </r>
       <r>    8.3253    1.0000 </r>
       <r>    8.3253    1.0000 </r>
       <r>    9.1609    1.0000 </r>
       <r>    9.8906    0.0000 </r>
       <r>    9.8906    0.0000 </r>
       <r>   10.1527    0.0000 </r>
       <r>   10.1532    0.0000 </r>
       <r>   10.2530    0.0000 </r>
      </set>
      <set comment="kpoint 8">
       <r>  -34.3177    1.0000 </r>
       <r>  -13.0703    1.0000 </r>
       <r>  -13.0659    1.0000 </r>
       <r>  -13.0392    1.0000 </r>
       <r>  -13.0384    1.0000 </r>
       <r>  -13.0384    1.0000 </r>
       <r>   -9.5980    1.0000 </r>
       <r>   -9.5924    1.0000 </r>
       <r>   -9.5924    1.0000 </r>
       <r>   -2.5164    1.0000 </r>
       <r>    4.9075    1.0000 </r>
       <r>    5.2930    1.0000 </r>
       <r>    5.2930    1.0000 </r>
       <r>    5.5605    1.0000 </r>
       <r>    5.6951    1.0000 </r>
       <r>    7.7648    1.0000 </r>
       <r>    8.5222    1.0000 </r>
       <r>    8.5222    1.0000 </r>
       <r>    9.0670    1.0000 </r>
       <r>    9.6748    1.0000 </r>
       <r>    9.7980    0.9987 </r>
       <r>    9.7980    0.9987 </r>
       <r>   10.0601    0.0000 </r>
       <r>   10.0812    0.0000 </r>
      </set>
      <set comment="kpoint 9">
       <r>  -34.3172    1.0000 </r>
       <r>  -13.0748    1.0000 </r>
       <r>  -13.0670    1.0000 </r>
       <r>  -13.0398    1.0000 </r>
       <r>  -13.0380    1.0000 </r>
       <r>  -13.0379    1.0000 </r>
       <r>   -9.6256    1.0000 </r>
       <r>   -9.5906    1.0000 </r>
       <r>   -9.5824    1.0000 </r>
       <r>   -2.3783    1.0000 </r>
       <r>    4.6287    1.0000 </r>
       <r>    5.1820    1.0000 </r>
       <r>    5.2110    1.0000 </r>
       <r>    5.6519    1.0000 </r>
       <r>    5.7925    1.0000 </r>
       <r>    7.3889    1.0000 </r>
       <r>    8.3819    1.0000 </r>
       <r>    8.3856    1.0000 </r>
       <r>    9.1761    1.0000 </r>
       <r>    9.7359    1.0000 </r>
       <r>    9.7952    0.9997 </r>
       <r>    9.8798    0.0000 </r>
       <r>   10.0657    0.0000 </r>
       <r>   10.2081    0.0000 </r>
      </set>
      <set comment="kpoint 10">
       <r>  -34.3163    1.0000 </r>
       <r>  -13.0803    1.0000 </r>
       <r>  -13.0710    1.0000 </r>
       <r>  -13.0408    1.0000 </r>
       <r>  -13.0375    1.0000 </r>
       <r>  -13.0371    1.0000 </r>
       <r>   -9.6700    1.0000 </r>
       <r>   -9.5827    1.0000 </r>
       <r>   -9.5688    1.0000 </r>
       <r>   -2.1522    1.0000 </r>
       <r>    4.3457    1.0000 </r>
       <r>    4.9673    1.0000 </r>
       <r>    5.0912    1.0000 </r>
       <r>    5.7281    1.0000 </r>
       <r>    5.8795    1.0000 </r>
       <r>    6.9020    1.0000 </r>
       <r>    8.2390    1.0000 </r>
       <r>    8.2827    1.0000 </r>
       <r>    9.1558    1.0000 </r>
       <r>    9.7668    1.0000 </r>
       <r>    9.7959    0.9995 </r>
       <r>   10.0608    0.0000 </r>
       <r>   10.0685    0.0000 </r>
       <r>   10.2963    0.0000 </r>
      </set>
      <set comment="kpoint 11">
       <r>  -34.3154    1.0000 </r>
       <r>  -13.0855    1.0000 </r>
       <r>  -13.0769    1.0000 </r>
       <r>  -13.0422    1.0000 </r>
       <r>  -13.0368    1.0000 </r>
       <r>  -13.0361    1.0000 </r>
       <r>   -9.7176    1.0000 </r>
       <r>   -9.5708    1.0000 </r>
       <r>   -9.5564    1.0000 </r>
       <r>   -1.8885    1.0000 </r>
       <r>    4.0723    1.0000 </r>
       <r>    4.8029    1.0000 </r>
       <r>    5.0008    1.0000 </r>
       <r>    5.7147    1.0000 </r>
       <r>    5.8868    1.0000 </r>
       <r>    6.4506    1.0000 </r>
       <r>    8.1575    1.0000 </r>
       <r>    8.2472    1.0000 </r>
       <r>    9.1427    1.0000 </r>
       <r>    9.8034    0.9876 </r>
       <r>    9.8104    0.8950 </r>
       <r>   10.0708    0.0000 </r>
       <r>   10.1336    0.0000 </r>
       <r>   10.2903    0.0000 </r>
      </set>
      <set comment="kpoint 12">
       <r>  -34.3145    1.0000 </r>
       <r>  -13.0892    1.0000 </r>
       <r>  -13.0831    1.0000 </r>
       <r>  -13.0436    1.0000 </r>
       <r>  -13.0360    1.0000 </r>
       <r>  -13.0353    1.0000 </r>
       <r>   -9.7577    1.0000 </r>
       <r>   -9.5575    1.0000 </r>
       <r>   -9.5480    1.0000 </r>
       <r>   -1.6473    1.0000 </r>
       <r>    3.8465    1.0000 </r>
       <r>    4.7344    1.0000 </r>
       <r>    4.9363    1.0000 </r>
       <r>    5.6490    1.0000 </r>
       <r>    5.8161    1.0000 </r>
       <r>    6.1069    1.0000 </r>
       <r>    8.1375    1.0000 </r>
       <r>    8.2592    1.0000 </r>
       <r>    9.1709    1.0000 </r>
       <r>    9.8413    0.0009 </r>
       <r>    9.8483    0.0000 </r>
       <r>   10.0714    0.0000 </r>
       <r>   10.1647    0.0000 </r>
       <r>   10.2477    0.0000 </r>
      </set>
      <set comment="kpoint 13">
       <r>  -34.3139    1.0000 </r>
       <r>  -13.0907    1.0000 </r>
       <r>  -13.0884    1.0000 </r>
       <r>  -13.0446    1.0000 </r>
       <r>  -13.0355    1.0000 </r>
       <r>  -13.0348    1.0000 </r>
       <r>   -9.7827    1.0000 </r>
       <r>   -9.5458    1.0000 </r>
       <r>   -9.5453    1.0000 </r>
       <r>   -1.4854    1.0000 </r>
       <r>    3.7065    1.0000 </r>
       <r>    4.7505    1.0000 </r>
       <r>    4.8701    1.0000 </r>
       <r>    5.6106    1.0000 </r>
       <r>    5.7123    1.0000 </r>
       <r>    5.9016    1.0000 </r>
       <r>    8.1450    1.0000 </r>
       <r>    8.2800    1.0000 </r>
       <r>    9.2196    1.0000 </r>
       <r>    9.8838    0.0000 </r>
       <r>    9.8875    0.0000 </r>
       <r>   10.0669    0.0000 </r>
       <r>   10.1447    0.0000 </r>
       <r>   10.2143    0.0000 </r>
      </set>
      <set comment="kpoint 14">
       <r>  -34.3138    1.0000 </r>
       <r>  -13.0914    1.0000 </r>
       <r>  -13.0895    1.0000 </r>
       <r>  -13.0449    1.0000 </r>
       <r>  -13.0353    1.0000 </r>
       <r>  -13.0348    1.0000 </r>
       <r>   -9.7890    1.0000 </r>
       <r>   -9.5489    1.0000 </r>
       <r>   -9.5384    1.0000 </r>
       <r>   -1.4411    1.0000 </r>
       <r>    3.6700    1.0000 </r>
       <r>    4.7868    1.0000 </r>
       <r>    4.8192    1.0000 </r>
       <r>    5.6293    1.0000 </r>
       <r>    5.6523    1.0000 </r>
       <r>    5.8511    1.0000 </r>
       <r>    8.1422    1.0000 </r>
       <r>    8.2889    1.0000 </r>
       <r>    9.2400    1.0000 </r>
       <r>    9.8902    0.0000 </r>
       <r>    9.9133    0.0000 </r>
       <r>   10.0591    0.0000 </r>
       <r>   10.1505    0.0000 </r>
       <r>   10.1824    0.0000 </r>
      </set>
      <set comment="kpoint 15">
       <r>  -34.3141    1.0000 </r>
       <r>  -13.0917    1.0000 </r>
       <r>  -13.0860    1.0000 </r>
       <r>  -13.0443    1.0000 </r>
       <r>  -13.0354    1.0000 </r>
       <r>  -13.0353    1.0000 </r>
       <r>   -9.7759    1.0000 </r>
       <r>   -9.5578    1.0000 </r>
       <r>   -9.5369    1.0000 </r>
       <r>   -1.5248    1.0000 </r>
       <r>    3.7435    1.0000 </r>
       <r>    4.7115    1.0000 </r>
       <r>    4.9042    1.0000 </r>
       <r>    5.6115    1.0000 </r>
       <r>    5.7578    1.0000 </r>
       <r>    5.9563    1.0000 </r>
       <r>    8.1084    1.0000 </r>
       <r>    8.2916    1.0000 </r>
       <r>    9.2101    1.0000 </r>
       <r>    9.8567    0.0000 </r>
       <r>    9.8911    0.0000 </r>
       <r>   10.0633    0.0000 </r>
       <r>   10.1772    0.0000 </r>
       <r>   10.1942    0.0000 </r>
      </set>
      <set comment="kpoint 16">
       <r>  -34.3148    1.0000 </r>
       <r>  -13.0890    1.0000 </r>
       <r>  -13.0809    1.0000 </r>
       <r>  -13.0430    1.0000 </r>
       <r>  -13.0360    1.0000 </r>
       <r>  -13.0359    1.0000 </r>
       <r>   -9.7452    1.0000 </r>
       <r>   -9.5699    1.0000 </r>
       <r>   -9.5418    1.0000 </r>
       <r>   -1.7174    1.0000 </r>
       <r>    3.9283    1.0000 </r>
       <r>    4.6796    1.0000 </r>
       <r>    4.9907    1.0000 </r>
       <r>    5.6567    1.0000 </r>
       <r>    5.8710    1.0000 </r>
       <r>    6.2077    1.0000 </r>
       <r>    8.0531    1.0000 </r>
       <r>    8.3135    1.0000 </r>
       <r>    9.1637    1.0000 </r>
       <r>    9.8211    0.4009 </r>
       <r>    9.8429    0.0004 </r>
       <r>   10.0680    0.0000 </r>
       <r>   10.1743    0.0000 </r>
       <r>   10.2405    0.0000 </r>
      </set>
      <set comment="kpoint 17">
       <r>  -34.3157    1.0000 </r>
       <r>  -13.0841    1.0000 </r>
       <r>  -13.0753    1.0000 </r>
       <r>  -13.0415    1.0000 </r>
       <r>  -13.0369    1.0000 </r>
       <r>  -13.0367    1.0000 </r>
       <r>   -9.7021    1.0000 </r>
       <r>   -9.5824    1.0000 </r>
       <r>   -9.5518    1.0000 </r>
       <r>   -1.9730    1.0000 </r>
       <r>    4.2100    1.0000 </r>
       <r>    4.7120    1.0000 </r>
       <r>    5.0952    1.0000 </r>
       <r>    5.7002    1.0000 </r>
       <r>    5.9329    1.0000 </r>
       <r>    6.5896    1.0000 </r>
       <r>    8.0224    1.0000 </r>
       <r>    8.3823    1.0000 </r>
       <r>    9.1421    1.0000 </r>
       <r>    9.7977    0.9989 </r>
       <r>    9.7981    0.9986 </r>
       <r>   10.0664    0.0000 </r>
       <r>   10.1229    0.0000 </r>
       <r>   10.3040    0.0000 </r>
      </set>
      <set comment="kpoint 18">
       <r>  -34.3166    1.0000 </r>
       <r>  -13.0780    1.0000 </r>
       <r>  -13.0705    1.0000 </r>
       <r>  -13.0403    1.0000 </r>
       <r>  -13.0377    1.0000 </r>
       <r>  -13.0375    1.0000 </r>
       <r>   -9.6558    1.0000 </r>
       <r>   -9.5918    1.0000 </r>
       <r>   -9.5649    1.0000 </r>
       <r>   -2.2316    1.0000 </r>
       <r>    4.5477    1.0000 </r>
       <r>    4.8138    1.0000 </r>
       <r>    5.2259    1.0000 </r>
       <r>    5.6752    1.0000 </r>
       <r>    5.9074    1.0000 </r>
       <r>    7.0544    1.0000 </r>
       <r>    8.0912    1.0000 </r>
       <r>    8.4964    1.0000 </r>
       <r>    9.1500    1.0000 </r>
       <r>    9.7669    1.0000 </r>
       <r>    9.7858    1.0000 </r>
       <r>   10.0330    0.0000 </r>
       <r>   10.0624    0.0000 </r>
       <r>   10.2871    0.0000 </r>
      </set>
      <set comment="kpoint 19">
       <r>  -34.3174    1.0000 </r>
       <r>  -13.0721    1.0000 </r>
       <r>  -13.0678    1.0000 </r>
       <r>  -13.0394    1.0000 </r>
       <r>  -13.0383    1.0000 </r>
       <r>  -13.0382    1.0000 </r>
       <r>   -9.6195    1.0000 </r>
       <r>   -9.5941    1.0000 </r>
       <r>   -9.5779    1.0000 </r>
       <r>   -2.4343    1.0000 </r>
       <r>    4.8821    1.0000 </r>
       <r>    4.9755    1.0000 </r>
       <r>    5.3051    1.0000 </r>
       <r>    5.6151    1.0000 </r>
       <r>    5.8001    1.0000 </r>
       <r>    7.4923    1.0000 </r>
       <r>    8.3277    1.0000 </r>
       <r>    8.6007    1.0000 </r>
       <r>    9.1020    1.0000 </r>
       <r>    9.7593    1.0000 </r>
       <r>    9.7665    1.0000 </r>
       <r>    9.8579    0.0000 </r>
       <r>   10.0567    0.0000 </r>
       <r>   10.1616    0.0000 </r>
      </set>
      <set comment="kpoint 20">
       <r>  -34.3168    1.0000 </r>
       <r>  -13.0787    1.0000 </r>
       <r>  -13.0649    1.0000 </r>
       <r>  -13.0405    1.0000 </r>
       <r>  -13.0375    1.0000 </r>
       <r>  -13.0375    1.0000 </r>
       <r>   -9.6188    1.0000 </r>
       <r>   -9.5965    1.0000 </r>
       <r>   -9.5965    1.0000 </r>
       <r>   -2.2965    1.0000 </r>
       <r>    4.3372    1.0000 </r>
       <r>    5.3206    1.0000 </r>
       <r>    5.3206    1.0000 </r>
       <r>    5.6000    1.0000 </r>
       <r>    5.7370    1.0000 </r>
       <r>    7.3563    1.0000 </r>
       <r>    8.2509    1.0000 </r>
       <r>    8.2509    1.0000 </r>
       <r>    9.2312    1.0000 </r>
       <r>    9.8073    0.9548 </r>
       <r>    9.8073    0.9548 </r>
       <r>    9.8175    0.5998 </r>
       <r>   10.0919    0.0000 </r>
       <r>   10.2772    0.0000 </r>
      </set>
      <set comment="kpoint 21">
       <r>  -34.3161    1.0000 </r>
       <r>  -13.0826    1.0000 </r>
       <r>  -13.0659    1.0000 </r>
       <r>  -13.0414    1.0000 </r>
       <r>  -13.0370    1.0000 </r>
       <r>  -13.0368    1.0000 </r>
       <r>   -9.6518    1.0000 </r>
       <r>   -9.5956    1.0000 </r>
       <r>   -9.5868    1.0000 </r>
       <r>   -2.1310    1.0000 </r>
       <r>    4.0982    1.0000 </r>
       <r>    5.2000    1.0000 </r>
       <r>    5.2686    1.0000 </r>
       <r>    5.6556    1.0000 </r>
       <r>    5.7860    1.0000 </r>
       <r>    7.0914    1.0000 </r>
       <r>    8.0767    1.0000 </r>
       <r>    8.1576    1.0000 </r>
       <r>    9.2539    1.0000 </r>
       <r>    9.7775    1.0000 </r>
       <r>    9.8122    0.8429 </r>
       <r>    9.9914    0.0000 </r>
       <r>   10.1045    0.0000 </r>
       <r>   10.3118    0.0000 </r>
      </set>
      <set comment="kpoint 22">
       <r>  -34.3153    1.0000 </r>
       <r>  -13.0855    1.0000 </r>
       <r>  -13.0698    1.0000 </r>
       <r>  -13.0423    1.0000 </r>
       <r>  -13.0365    1.0000 </r>
       <r>  -13.0358    1.0000 </r>
       <r>   -9.6959    1.0000 </r>
       <r>   -9.5882    1.0000 </r>
       <r>   -9.5749    1.0000 </r>
       <r>   -1.9225    1.0000 </r>
       <r>    3.9392    1.0000 </r>
       <r>    4.9824    1.0000 </r>
       <r>    5.1810    1.0000 </r>
       <r>    5.6721    1.0000 </r>
       <r>    5.8557    1.0000 </r>
       <r>    6.7156    1.0000 </r>
       <r>    7.9026    1.0000 </r>
       <r>    8.1363    1.0000 </r>
       <r>    9.2827    1.0000 </r>
       <r>    9.7952    0.9997 </r>
       <r>    9.8225    0.3259 </r>
       <r>   10.0719    0.0000 </r>
       <r>   10.1057    0.0000 </r>
       <r>   10.3087    0.0000 </r>
      </set>
      <set comment="kpoint 23">
       <r>  -34.3144    1.0000 </r>
       <r>  -13.0870    1.0000 </r>
       <r>  -13.0758    1.0000 </r>
       <r>  -13.0432    1.0000 </r>
       <r>  -13.0363    1.0000 </r>
       <r>  -13.0349    1.0000 </r>
       <r>   -9.7354    1.0000 </r>
       <r>   -9.5759    1.0000 </r>
       <r>   -9.5687    1.0000 </r>
       <r>   -1.7206    1.0000 </r>
       <r>    3.8651    1.0000 </r>
       <r>    4.8145    1.0000 </r>
       <r>    5.0858    1.0000 </r>
       <r>    5.6461    1.0000 </r>
       <r>    5.8608    1.0000 </r>
       <r>    6.3433    1.0000 </r>
       <r>    7.8129    1.0000 </r>
       <r>    8.1616    1.0000 </r>
       <r>    9.2971    1.0000 </r>
       <r>    9.8391    0.0025 </r>
       <r>    9.8463    0.0001 </r>
       <r>   10.1005    0.0000 </r>
       <r>   10.1013    0.0000 </r>
       <r>   10.2790    0.0000 </r>
      </set>
      <set comment="kpoint 24">
       <r>  -34.3138    1.0000 </r>
       <r>  -13.0866    1.0000 </r>
       <r>  -13.0822    1.0000 </r>
       <r>  -13.0438    1.0000 </r>
       <r>  -13.0361    1.0000 </r>
       <r>  -13.0344    1.0000 </r>
       <r>   -9.7623    1.0000 </r>
       <r>   -9.5695    1.0000 </r>
       <r>   -9.5616    1.0000 </r>
       <r>   -1.5698    1.0000 </r>
       <r>    3.8506    1.0000 </r>
       <r>    4.7459    1.0000 </r>
       <r>    4.9631    1.0000 </r>
       <r>    5.6493    1.0000 </r>
       <r>    5.8002    1.0000 </r>
       <r>    6.0698    1.0000 </r>
       <r>    7.7819    1.0000 </r>
       <r>    8.1887    1.0000 </r>
       <r>    9.3251    1.0000 </r>
       <r>    9.8766    0.0000 </r>
       <r>    9.8862    0.0000 </r>
       <r>   10.0865    0.0000 </r>
       <r>   10.1164    0.0000 </r>
       <r>   10.2573    0.0000 </r>
      </set>
      <set comment="kpoint 25">
       <r>  -34.3135    1.0000 </r>
       <r>  -13.0877    1.0000 </r>
       <r>  -13.0846    1.0000 </r>
       <r>  -13.0439    1.0000 </r>
       <r>  -13.0361    1.0000 </r>
       <r>  -13.0343    1.0000 </r>
       <r>   -9.7724    1.0000 </r>
       <r>   -9.5767    1.0000 </r>
       <r>   -9.5485    1.0000 </r>
       <r>   -1.4987    1.0000 </r>
       <r>    3.8500    1.0000 </r>
       <r>    4.7835    1.0000 </r>
       <r>    4.8192    1.0000 </r>
       <r>    5.7080    1.0000 </r>
       <r>    5.7178    1.0000 </r>
       <r>    5.9594    1.0000 </r>
       <r>    7.7592    1.0000 </r>
       <r>    8.1966    1.0000 </r>
       <r>    9.3533    1.0000 </r>
       <r>    9.8786    0.0000 </r>
       <r>    9.9341    0.0000 </r>
       <r>   10.0575    0.0000 </r>
       <r>   10.1441    0.0000 </r>
       <r>   10.2365    0.0000 </r>
      </set>
      <set comment="kpoint 26">
       <r>  -34.3137    1.0000 </r>
       <r>  -13.0910    1.0000 </r>
       <r>  -13.0813    1.0000 </r>
       <r>  -13.0434    1.0000 </r>
       <r>  -13.0362    1.0000 </r>
       <r>  -13.0348    1.0000 </r>
       <r>   -9.7650    1.0000 </r>
       <r>   -9.5882    1.0000 </r>
       <r>   -9.5396    1.0000 </r>
       <r>   -1.5204    1.0000 </r>
       <r>    3.8468    1.0000 </r>
       <r>    4.6911    1.0000 </r>
       <r>    4.9007    1.0000 </r>
       <r>    5.6364    1.0000 </r>
       <r>    5.8305    1.0000 </r>
       <r>    6.0286    1.0000 </r>
       <r>    7.7041    1.0000 </r>
       <r>    8.1977    1.0000 </r>
       <r>    9.3529    1.0000 </r>
       <r>    9.8502    0.0000 </r>
       <r>    9.9483    0.0000 </r>
       <r>   10.0422    0.0000 </r>
       <r>   10.1753    0.0000 </r>
       <r>   10.2239    0.0000 </r>
      </set>
      <set comment="kpoint 27">
       <r>  -34.3142    1.0000 </r>
       <r>  -13.0915    1.0000 </r>
       <r>  -13.0774    1.0000 </r>
       <r>  -13.0425    1.0000 </r>
       <r>  -13.0364    1.0000 </r>
       <r>  -13.0355    1.0000 </r>
       <r>   -9.7421    1.0000 </r>
       <r>   -9.6003    1.0000 </r>
       <r>   -9.5369    1.0000 </r>
       <r>   -1.6341    1.0000 </r>
       <r>    3.8821    1.0000 </r>
       <r>    4.6127    1.0000 </r>
       <r>    5.0561    1.0000 </r>
       <r>    5.6078    1.0000 </r>
       <r>    5.9419    1.0000 </r>
       <r>    6.2552    1.0000 </r>
       <r>    7.6123    1.0000 </r>
       <r>    8.2224    1.0000 </r>
       <r>    9.3269    1.0000 </r>
       <r>    9.8216    0.3695 </r>
       <r>    9.9009    0.0000 </r>
       <r>   10.0669    0.0000 </r>
       <r>   10.1654    0.0000 </r>
       <r>   10.2018    0.0000 </r>
      </set>
      <set comment="kpoint 28">
       <r>  -34.3150    1.0000 </r>
       <r>  -13.0890    1.0000 </r>
       <r>  -13.0738    1.0000 </r>
       <r>  -13.0416    1.0000 </r>
       <r>  -13.0367    1.0000 </r>
       <r>  -13.0364    1.0000 </r>
       <r>   -9.7096    1.0000 </r>
       <r>   -9.6082    1.0000 </r>
       <r>   -9.5410    1.0000 </r>
       <r>   -1.8203    1.0000 </r>
       <r>    4.0088    1.0000 </r>
       <r>    4.6042    1.0000 </r>
       <r>    5.2137    1.0000 </r>
       <r>    5.6018    1.0000 </r>
       <r>    6.0046    1.0000 </r>
       <r>    6.5836    1.0000 </r>
       <r>    7.5443    1.0000 </r>
       <r>    8.2963    1.0000 </r>
       <r>    9.2965    1.0000 </r>
       <r>    9.8049    0.9787 </r>
       <r>    9.8443    0.0002 </r>
       <r>   10.0774    0.0000 </r>
       <r>   10.1347    0.0000 </r>
       <r>   10.2525    0.0000 </r>
      </set>
      <set comment="kpoint 29">
       <r>  -34.3159    1.0000 </r>
       <r>  -13.0842    1.0000 </r>
       <r>  -13.0712    1.0000 </r>
       <r>  -13.0409    1.0000 </r>
       <r>  -13.0372    1.0000 </r>
       <r>  -13.0370    1.0000 </r>
       <r>   -9.6775    1.0000 </r>
       <r>   -9.6061    1.0000 </r>
       <r>   -9.5511    1.0000 </r>
       <r>   -2.0372    1.0000 </r>
       <r>    4.2415    1.0000 </r>
       <r>    4.6729    1.0000 </r>
       <r>    5.3190    1.0000 </r>
       <r>    5.5954    1.0000 </r>
       <r>    5.9912    1.0000 </r>
       <r>    6.8834    1.0000 </r>
       <r>    7.6693    1.0000 </r>
       <r>    8.4082    1.0000 </r>
       <r>    9.2580    1.0000 </r>
       <r>    9.7952    0.9997 </r>
       <r>    9.7958    0.9996 </r>
       <r>   10.0735    0.0000 </r>
       <r>   10.0930    0.0000 </r>
       <r>   10.3073    0.0000 </r>
      </set>
      <set comment="kpoint 30">
       <r>  -34.3156    1.0000 </r>
       <r>  -13.0838    1.0000 </r>
       <r>  -13.0634    1.0000 </r>
       <r>  -13.0424    1.0000 </r>
       <r>  -13.0361    1.0000 </r>
       <r>  -13.0361    1.0000 </r>
       <r>   -9.6517    1.0000 </r>
       <r>   -9.6026    1.0000 </r>
       <r>   -9.6026    1.0000 </r>
       <r>   -2.0418    1.0000 </r>
       <r>    3.9138    1.0000 </r>
       <r>    5.3290    1.0000 </r>
       <r>    5.3290    1.0000 </r>
       <r>    5.6386    1.0000 </r>
       <r>    5.6569    1.0000 </r>
       <r>    7.0577    1.0000 </r>
       <r>    8.0734    1.0000 </r>
       <r>    8.0734    1.0000 </r>
       <r>    9.2125    1.0000 </r>
       <r>    9.8230    0.2994 </r>
       <r>    9.8230    0.2994 </r>
       <r>    9.9543    0.0000 </r>
       <r>   10.1441    0.0000 </r>
       <r>   10.3857    0.0000 </r>
      </set>
      <set comment="kpoint 31">
       <r>  -34.3149    1.0000 </r>
       <r>  -13.0838    1.0000 </r>
       <r>  -13.0644    1.0000 </r>
       <r>  -13.0434    1.0000 </r>
       <r>  -13.0355    1.0000 </r>
       <r>  -13.0352    1.0000 </r>
       <r>   -9.6824    1.0000 </r>
       <r>   -9.6022    1.0000 </r>
       <r>   -9.5986    1.0000 </r>
       <r>   -1.9128    1.0000 </r>
       <r>    3.8416    1.0000 </r>
       <r>    5.1786    1.0000 </r>
       <r>    5.2865    1.0000 </r>
       <r>    5.6803    1.0000 </r>
       <r>    5.6827    1.0000 </r>
       <r>    6.8567    1.0000 </r>
       <r>    7.9149    1.0000 </r>
       <r>    8.0615    1.0000 </r>
       <r>    9.2968    1.0000 </r>
       <r>    9.8098    0.9097 </r>
       <r>    9.8345    0.0157 </r>
       <r>    9.9999    0.0000 </r>
       <r>   10.1623    0.0000 </r>
       <r>   10.3661    0.0000 </r>
      </set>
      <set comment="kpoint 32">
       <r>  -34.3142    1.0000 </r>
       <r>  -13.0825    1.0000 </r>
       <r>  -13.0685    1.0000 </r>
       <r>  -13.0439    1.0000 </r>
       <r>  -13.0353    1.0000 </r>
       <r>  -13.0343    1.0000 </r>
       <r>   -9.7166    1.0000 </r>
       <r>   -9.5952    1.0000 </r>
       <r>   -9.5944    1.0000 </r>
       <r>   -1.7782    1.0000 </r>
       <r>    3.8885    1.0000 </r>
       <r>    4.9645    1.0000 </r>
       <r>    5.1953    1.0000 </r>
       <r>    5.6876    1.0000 </r>
       <r>    5.7658    1.0000 </r>
       <r>    6.5745    1.0000 </r>
       <r>    7.6795    1.0000 </r>
       <r>    8.0942    1.0000 </r>
       <r>    9.3863    1.0000 </r>
       <r>    9.8225    0.3226 </r>
       <r>    9.8548    0.0000 </r>
       <r>   10.0355    0.0000 </r>
       <r>   10.1591    0.0000 </r>
       <r>   10.3226    0.0000 </r>
      </set>
      <set comment="kpoint 33">
       <r>  -34.3136    1.0000 </r>
       <r>  -13.0803    1.0000 </r>
       <r>  -13.0745    1.0000 </r>
       <r>  -13.0439    1.0000 </r>
       <r>  -13.0357    1.0000 </r>
       <r>  -13.0337    1.0000 </r>
       <r>   -9.7404    1.0000 </r>
       <r>   -9.5999    1.0000 </r>
       <r>   -9.5811    1.0000 </r>
       <r>   -1.6656    1.0000 </r>
       <r>    4.0165    1.0000 </r>
       <r>    4.8167    1.0000 </r>
       <r>    5.0579    1.0000 </r>
       <r>    5.7140    1.0000 </r>
       <r>    5.7904    1.0000 </r>
       <r>    6.2961    1.0000 </r>
       <r>    7.5021    1.0000 </r>
       <r>    8.1190    1.0000 </r>
       <r>    9.4248    1.0000 </r>
       <r>    9.8539    0.0000 </r>
       <r>    9.8887    0.0000 </r>
       <r>   10.0728    0.0000 </r>
       <r>   10.1392    0.0000 </r>
       <r>   10.2788    0.0000 </r>
      </set>
      <set comment="kpoint 34">
       <r>  -34.3133    1.0000 </r>
       <r>  -13.0812    1.0000 </r>
       <r>  -13.0778    1.0000 </r>
       <r>  -13.0433    1.0000 </r>
       <r>  -13.0365    1.0000 </r>
       <r>  -13.0336    1.0000 </r>
       <r>   -9.7492    1.0000 </r>
       <r>   -9.6118    1.0000 </r>
       <r>   -9.5654    1.0000 </r>
       <r>   -1.5909    1.0000 </r>
       <r>    4.1258    1.0000 </r>
       <r>    4.7660    1.0000 </r>
       <r>    4.8922    1.0000 </r>
       <r>    5.7347    1.0000 </r>
       <r>    5.7864    1.0000 </r>
       <r>    6.1488    1.0000 </r>
       <r>    7.3850    1.0000 </r>
       <r>    8.1140    1.0000 </r>
       <r>    9.4508    1.0000 </r>
       <r>    9.8562    0.0000 </r>
       <r>    9.9346    0.0000 </r>
       <r>   10.0992    0.0000 </r>
       <r>   10.1285    0.0000 </r>
       <r>   10.2462    0.0000 </r>
      </set>
      <set comment="kpoint 35">
       <r>  -34.3133    1.0000 </r>
       <r>  -13.0870    1.0000 </r>
       <r>  -13.0756    1.0000 </r>
       <r>  -13.0421    1.0000 </r>
       <r>  -13.0373    1.0000 </r>
       <r>  -13.0340    1.0000 </r>
       <r>   -9.7433    1.0000 </r>
       <r>   -9.6269    1.0000 </r>
       <r>   -9.5507    1.0000 </r>
       <r>   -1.5632    1.0000 </r>
       <r>    4.1038    1.0000 </r>
       <r>    4.7358    1.0000 </r>
       <r>    4.8263    1.0000 </r>
       <r>    5.6660    1.0000 </r>
       <r>    5.8872    1.0000 </r>
       <r>    6.1908    1.0000 </r>
       <r>    7.2896    1.0000 </r>
       <r>    8.0996    1.0000 </r>
       <r>    9.4625    1.0000 </r>
       <r>    9.8300    0.0644 </r>
       <r>    9.9828    0.0000 </r>
       <r>   10.0439    0.0000 </r>
       <r>   10.1645    0.0000 </r>
       <r>   10.2222    0.0000 </r>
      </set>
      <set comment="kpoint 36">
       <r>  -34.3137    1.0000 </r>
       <r>  -13.0906    1.0000 </r>
       <r>  -13.0741    1.0000 </r>
       <r>  -13.0413    1.0000 </r>
       <r>  -13.0376    1.0000 </r>
       <r>  -13.0348    1.0000 </r>
       <r>   -9.7284    1.0000 </r>
       <r>   -9.6371    1.0000 </r>
       <r>   -9.5404    1.0000 </r>
       <r>   -1.5916    1.0000 </r>
       <r>    3.9940    1.0000 </r>
       <r>    4.6224    1.0000 </r>
       <r>    4.9641    1.0000 </r>
       <r>    5.6297    1.0000 </r>
       <r>    5.9787    1.0000 </r>
       <r>    6.3801    1.0000 </r>
       <r>    7.1998    1.0000 </r>
       <r>    8.1147    1.0000 </r>
       <r>    9.4421    1.0000 </r>
       <r>    9.8074    0.9535 </r>
       <r>    9.9668    0.0000 </r>
       <r>   10.0440    0.0000 </r>
       <r>   10.1596    0.0000 </r>
       <r>   10.2008    0.0000 </r>
      </set>
      <set comment="kpoint 37">
       <r>  -34.3143    1.0000 </r>
       <r>  -13.0914    1.0000 </r>
       <r>  -13.0734    1.0000 </r>
       <r>  -13.0413    1.0000 </r>
       <r>  -13.0371    1.0000 </r>
       <r>  -13.0356    1.0000 </r>
       <r>   -9.7156    1.0000 </r>
       <r>   -9.6313    1.0000 </r>
       <r>   -9.5369    1.0000 </r>
       <r>   -1.6815    1.0000 </r>
       <r>    3.9356    1.0000 </r>
       <r>    4.5745    1.0000 </r>
       <r>    5.1237    1.0000 </r>
       <r>    5.6050    1.0000 </r>
       <r>    6.0234    1.0000 </r>
       <r>    6.5664    1.0000 </r>
       <r>    7.2240    1.0000 </r>
       <r>    8.1858    1.0000 </r>
       <r>    9.3870    1.0000 </r>
       <r>    9.8037    0.9865 </r>
       <r>    9.9049    0.0000 </r>
       <r>   10.0733    0.0000 </r>
       <r>   10.1467    0.0000 </r>
       <r>   10.2112    0.0000 </r>
      </set>
      <set comment="kpoint 38">
       <r>  -34.3144    1.0000 </r>
       <r>  -13.0806    1.0000 </r>
       <r>  -13.0619    1.0000 </r>
       <r>  -13.0445    1.0000 </r>
       <r>  -13.0343    1.0000 </r>
       <r>  -13.0343    1.0000 </r>
       <r>   -9.6917    1.0000 </r>
       <r>   -9.6096    1.0000 </r>
       <r>   -9.6096    1.0000 </r>
       <r>   -1.8712    1.0000 </r>
       <r>    3.8561    1.0000 </r>
       <r>    5.2970    1.0000 </r>
       <r>    5.2970    1.0000 </r>
       <r>    5.4741    1.0000 </r>
       <r>    5.7193    1.0000 </r>
       <r>    6.7610    1.0000 </r>
       <r>    8.0588    1.0000 </r>
       <r>    8.0588    1.0000 </r>
       <r>    9.2870    1.0000 </r>
       <r>    9.8467    0.0001 </r>
       <r>    9.8467    0.0001 </r>
       <r>    9.9464    0.0000 </r>
       <r>   10.2130    0.0000 </r>
       <r>   10.4576    0.0000 </r>
      </set>
      <set comment="kpoint 39">
       <r>  -34.3138    1.0000 </r>
       <r>  -13.0767    1.0000 </r>
       <r>  -13.0630    1.0000 </r>
       <r>  -13.0452    1.0000 </r>
       <r>  -13.0338    1.0000 </r>
       <r>  -13.0335    1.0000 </r>
       <r>   -9.7148    1.0000 </r>
       <r>   -9.6118    1.0000 </r>
       <r>   -9.6087    1.0000 </r>
       <r>   -1.8135    1.0000 </r>
       <r>    3.9932    1.0000 </r>
       <r>    5.1177    1.0000 </r>
       <r>    5.2441    1.0000 </r>
       <r>    5.5490    1.0000 </r>
       <r>    5.7413    1.0000 </r>
       <r>    6.5570    1.0000 </r>
       <r>    7.9211    1.0000 </r>
       <r>    8.1002    1.0000 </r>
       <r>    9.4186    1.0000 </r>
       <r>    9.8319    0.0370 </r>
       <r>    9.8643    0.0000 </r>
       <r>    9.9671    0.0000 </r>
       <r>   10.2331    0.0000 </r>
       <r>   10.3904    0.0000 </r>
      </set>
      <set comment="kpoint 40">
       <r>  -34.3133    1.0000 </r>
       <r>  -13.0731    1.0000 </r>
       <r>  -13.0672    1.0000 </r>
       <r>  -13.0452    1.0000 </r>
       <r>  -13.0341    1.0000 </r>
       <r>  -13.0329    1.0000 </r>
       <r>   -9.7316    1.0000 </r>
       <r>   -9.6199    1.0000 </r>
       <r>   -9.5999    1.0000 </r>
       <r>   -1.7515    1.0000 </r>
       <r>    4.2150    1.0000 </r>
       <r>    4.9277    1.0000 </r>
       <r>    5.1364    1.0000 </r>
       <r>    5.6633    1.0000 </r>
       <r>    5.7709    1.0000 </r>
       <r>    6.3277    1.0000 </r>
       <r>    7.6033    1.0000 </r>
       <r>    8.1231    1.0000 </r>
       <r>    9.5202    1.0000 </r>
       <r>    9.8311    0.0474 </r>
       <r>    9.8914    0.0000 </r>
       <r>   10.0211    0.0000 </r>
       <r>   10.2217    0.0000 </r>
       <r>   10.3090    0.0000 </r>
      </set>
      <set comment="kpoint 41">
       <r>  -34.3130    1.0000 </r>
       <r>  -13.0736    1.0000 </r>
       <r>  -13.0707    1.0000 </r>
       <r>  -13.0443    1.0000 </r>
       <r>  -13.0353    1.0000 </r>
       <r>  -13.0328    1.0000 </r>
       <r>   -9.7336    1.0000 </r>
       <r>   -9.6372    1.0000 </r>
       <r>   -9.5851    1.0000 </r>
       <r>   -1.6906    1.0000 </r>
       <r>    4.4240    1.0000 </r>
       <r>    4.8075    1.0000 </r>
       <r>    4.9882    1.0000 </r>
       <r>    5.6959    1.0000 </r>
       <r>    5.8304    1.0000 </r>
       <r>    6.1966    1.0000 </r>
       <r>    7.2858    1.0000 </r>
       <r>    8.0997    1.0000 </r>
       <r>    9.5449    1.0000 </r>
       <r>    9.8349    0.0136 </r>
       <r>    9.9272    0.0000 </r>
       <r>   10.1009    0.0000 </r>
       <r>   10.1761    0.0000 </r>
       <r>   10.2439    0.0000 </r>
      </set>
      <set comment="kpoint 42">
       <r>  -34.3130    1.0000 </r>
       <r>  -13.0806    1.0000 </r>
       <r>  -13.0702    1.0000 </r>
       <r>  -13.0424    1.0000 </r>
       <r>  -13.0370    1.0000 </r>
       <r>  -13.0332    1.0000 </r>
       <r>   -9.7216    1.0000 </r>
       <r>   -9.6591    1.0000 </r>
       <r>   -9.5677    1.0000 </r>
       <r>   -1.6352    1.0000 </r>
       <r>    4.4495    1.0000 </r>
       <r>    4.7663    1.0000 </r>
       <r>    4.8319    1.0000 </r>
       <r>    5.6566    1.0000 </r>
       <r>    5.9059    1.0000 </r>
       <r>    6.2718    1.0000 </r>
       <r>    7.0518    1.0000 </r>
       <r>    8.0592    1.0000 </r>
       <r>    9.5448    1.0000 </r>
       <r>    9.8149    0.7314 </r>
       <r>    9.9667    0.0000 </r>
       <r>   10.1056    0.0000 </r>
       <r>   10.1566    0.0000 </r>
       <r>   10.2292    0.0000 </r>
      </set>
      <set comment="kpoint 43">
       <r>  -34.3132    1.0000 </r>
       <r>  -13.0867    1.0000 </r>
       <r>  -13.0715    1.0000 </r>
       <r>  -13.0405    1.0000 </r>
       <r>  -13.0386    1.0000 </r>
       <r>  -13.0339    1.0000 </r>
       <r>   -9.7134    1.0000 </r>
       <r>   -9.6656    1.0000 </r>
       <r>   -9.5515    1.0000 </r>
       <r>   -1.5964    1.0000 </r>
       <r>    4.2312    1.0000 </r>
       <r>    4.7013    1.0000 </r>
       <r>    4.8421    1.0000 </r>
       <r>    5.6436    1.0000 </r>
       <r>    5.9649    1.0000 </r>
       <r>    6.4173    1.0000 </r>
       <r>    6.9730    1.0000 </r>
       <r>    8.0539    1.0000 </r>
       <r>    9.5159    1.0000 </r>
       <r>    9.7980    0.9987 </r>
       <r>   10.0033    0.0000 </r>
       <r>   10.0383    0.0000 </r>
       <r>   10.1598    0.0000 </r>
       <r>   10.2275    0.0000 </r>
      </set>
      <set comment="kpoint 44">
       <r>  -34.3134    1.0000 </r>
       <r>  -13.0710    1.0000 </r>
       <r>  -13.0606    1.0000 </r>
       <r>  -13.0463    1.0000 </r>
       <r>  -13.0327    1.0000 </r>
       <r>  -13.0327    1.0000 </r>
       <r>   -9.7294    1.0000 </r>
       <r>   -9.6157    1.0000 </r>
       <r>   -9.6157    1.0000 </r>
       <r>   -1.8252    1.0000 </r>
       <r>    4.1967    1.0000 </r>
       <r>    5.2419    1.0000 </r>
       <r>    5.2419    1.0000 </r>
       <r>    5.3222    1.0000 </r>
       <r>    5.7726    1.0000 </r>
       <r>    6.3646    1.0000 </r>
       <r>    8.1578    1.0000 </r>
       <r>    8.1578    1.0000 </r>
       <r>    9.4694    1.0000 </r>
       <r>    9.8775    0.0000 </r>
       <r>    9.8775    0.0000 </r>
       <r>    9.9058    0.0000 </r>
       <r>   10.2864    0.0000 </r>
       <r>   10.4543    0.0000 </r>
      </set>
      <set comment="kpoint 45">
       <r>  -34.3130    1.0000 </r>
       <r>  -13.0667    1.0000 </r>
       <r>  -13.0620    1.0000 </r>
       <r>  -13.0466    1.0000 </r>
       <r>  -13.0326    1.0000 </r>
       <r>  -13.0322    1.0000 </r>
       <r>   -9.7415    1.0000 </r>
       <r>   -9.6214    1.0000 </r>
       <r>   -9.6136    1.0000 </r>
       <r>   -1.8122    1.0000 </r>
       <r>    4.4610    1.0000 </r>
       <r>    5.0600    1.0000 </r>
       <r>    5.1885    1.0000 </r>
       <r>    5.4479    1.0000 </r>
       <r>    5.7963    1.0000 </r>
       <r>    6.1272    1.0000 </r>
       <r>    8.0108    1.0000 </r>
       <r>    8.1931    1.0000 </r>
       <r>    9.6048    1.0000 </r>
       <r>    9.8377    0.0047 </r>
       <r>    9.8963    0.0000 </r>
       <r>    9.9639    0.0000 </r>
       <r>   10.3031    0.0000 </r>
       <r>   10.3189    0.0000 </r>
      </set>
      <set comment="kpoint 46">
       <r>  -34.3128    1.0000 </r>
       <r>  -13.0665    1.0000 </r>
       <r>  -13.0649    1.0000 </r>
       <r>  -13.0459    1.0000 </r>
       <r>  -13.0334    1.0000 </r>
       <r>  -13.0321    1.0000 </r>
       <r>   -9.7400    1.0000 </r>
       <r>   -9.6364    1.0000 </r>
       <r>   -9.6032    1.0000 </r>
       <r>   -1.7738    1.0000 </r>
       <r>    4.6707    1.0000 </r>
       <r>    4.9222    1.0000 </r>
       <r>    5.0865    1.0000 </r>
       <r>    5.5827    1.0000 </r>
       <r>    5.8357    1.0000 </r>
       <r>    5.9752    1.0000 </r>
       <r>    7.6162    1.0000 </r>
       <r>    8.1613    1.0000 </r>
       <r>    9.6424    1.0000 </r>
       <r>    9.8240    0.2528 </r>
       <r>    9.9194    0.0000 </r>
       <r>   10.0714    0.0000 </r>
       <r>   10.2179    0.0000 </r>
       <r>   10.2862    0.0000 </r>
      </set>
      <set comment="kpoint 47">
       <r>  -34.3128    1.0000 </r>
       <r>  -13.0732    1.0000 </r>
       <r>  -13.0662    1.0000 </r>
       <r>  -13.0443    1.0000 </r>
       <r>  -13.0352    1.0000 </r>
       <r>  -13.0325    1.0000 </r>
       <r>   -9.7258    1.0000 </r>
       <r>   -9.6571    1.0000 </r>
       <r>   -9.5866    1.0000 </r>
       <r>   -1.7118    1.0000 </r>
       <r>    4.7031    1.0000 </r>
       <r>    4.7951    1.0000 </r>
       <r>    4.9578    1.0000 </r>
       <r>    5.6220    1.0000 </r>
       <r>    5.8819    1.0000 </r>
       <r>    6.0995    1.0000 </r>
       <r>    7.2188    1.0000 </r>
       <r>    8.0936    1.0000 </r>
       <r>    9.6045    1.0000 </r>
       <r>    9.8176    0.5933 </r>
       <r>    9.9437    0.0000 </r>
       <r>   10.1503    0.0000 </r>
       <r>   10.1899    0.0000 </r>
       <r>   10.1935    0.0000 </r>
      </set>
      <set comment="kpoint 48">
       <r>  -34.3128    1.0000 </r>
       <r>  -13.0628    1.0000 </r>
       <r>  -13.0599    1.0000 </r>
       <r>  -13.0473    1.0000 </r>
       <r>  -13.0318    1.0000 </r>
       <r>  -13.0318    1.0000 </r>
       <r>   -9.7527    1.0000 </r>
       <r>   -9.6192    1.0000 </r>
       <r>   -9.6192    1.0000 </r>
       <r>   -1.8382    1.0000 </r>
       <r>    4.7151    1.0000 </r>
       <r>    5.2014    1.0000 </r>
       <r>    5.2014    1.0000 </r>
       <r>    5.2386    1.0000 </r>
       <r>    5.8034    1.0000 </r>
       <r>    5.8918    1.0000 </r>
       <r>    8.2549    1.0000 </r>
       <r>    8.2549    1.0000 </r>
       <r>    9.6976    1.0000 </r>
       <r>    9.8893    0.0000 </r>
       <r>    9.9034    0.0000 </r>
       <r>    9.9034    0.0000 </r>
       <r>   10.2334    0.0000 </r>
       <r>   10.3382    0.0000 </r>
      </set>
      <set comment="kpoint 49">
       <r>  -34.3128    1.0000 </r>
       <r>  -13.0621    1.0000 </r>
       <r>  -13.0616    1.0000 </r>
       <r>  -13.0471    1.0000 </r>
       <r>  -13.0321    1.0000 </r>
       <r>  -13.0317    1.0000 </r>
       <r>   -9.7520    1.0000 </r>
       <r>   -9.6248    1.0000 </r>
       <r>   -9.6155    1.0000 </r>
       <r>   -1.8253    1.0000 </r>
       <r>    4.8103    1.0000 </r>
       <r>    5.0596    1.0000 </r>
       <r>    5.1648    1.0000 </r>
       <r>    5.4089    1.0000 </r>
       <r>    5.7960    1.0000 </r>
       <r>    5.8177    1.0000 </r>
       <r>    8.0602    1.0000 </r>
       <r>    8.2394    1.0000 </r>
       <r>    9.7264    1.0000 </r>
       <r>    9.8336    0.0217 </r>
       <r>    9.9115    0.0000 </r>
       <r>   10.0104    0.0000 </r>
       <r>   10.1719    0.0000 </r>
       <r>   10.3386    0.0000 </r>
      </set>
      <set comment="kpoint 50">
       <r>  -34.3166    1.0000 </r>
       <r>  -13.0797    1.0000 </r>
       <r>  -13.0677    1.0000 </r>
       <r>  -13.0405    1.0000 </r>
       <r>  -13.0375    1.0000 </r>
       <r>  -13.0374    1.0000 </r>
       <r>   -9.6463    1.0000 </r>
       <r>   -9.5990    1.0000 </r>
       <r>   -9.5719    1.0000 </r>
       <r>   -2.2232    1.0000 </r>
       <r>    4.3475    1.0000 </r>
       <r>    5.0038    1.0000 </r>
       <r>    5.3260    1.0000 </r>
       <r>    5.6186    1.0000 </r>
       <r>    5.8729    1.0000 </r>
       <r>    7.1583    1.0000 </r>
       <r>    8.0126    1.0000 </r>
       <r>    8.3866    1.0000 </r>
       <r>    9.2455    1.0000 </r>
       <r>    9.7555    1.0000 </r>
       <r>    9.8005    0.9960 </r>
       <r>    9.9971    0.0000 </r>
       <r>   10.0777    0.0000 </r>
       <r>   10.2835    0.0000 </r>
      </set>
      <set comment="kpoint 51">
       <r>  -34.3157    1.0000 </r>
       <r>  -13.0847    1.0000 </r>
       <r>  -13.0707    1.0000 </r>
       <r>  -13.0414    1.0000 </r>
       <r>  -13.0370    1.0000 </r>
       <r>  -13.0366    1.0000 </r>
       <r>   -9.6840    1.0000 </r>
       <r>   -9.5986    1.0000 </r>
       <r>   -9.5587    1.0000 </r>
       <r>   -2.0059    1.0000 </r>
       <r>    4.1071    1.0000 </r>
       <r>    4.8283    1.0000 </r>
       <r>    5.2516    1.0000 </r>
       <r>    5.6397    1.0000 </r>
       <r>    5.9356    1.0000 </r>
       <r>    6.8097    1.0000 </r>
       <r>    7.8033    1.0000 </r>
       <r>    8.3106    1.0000 </r>
       <r>    9.2609    1.0000 </r>
       <r>    9.7847    1.0000 </r>
       <r>    9.8103    0.8975 </r>
       <r>   10.0828    0.0000 </r>
       <r>   10.0864    0.0000 </r>
       <r>   10.3025    0.0000 </r>
      </set>
      <set comment="kpoint 52">
       <r>  -34.3148    1.0000 </r>
       <r>  -13.0884    1.0000 </r>
       <r>  -13.0755    1.0000 </r>
       <r>  -13.0424    1.0000 </r>
       <r>  -13.0365    1.0000 </r>
       <r>  -13.0357    1.0000 </r>
       <r>   -9.7250    1.0000 </r>
       <r>   -9.5901    1.0000 </r>
       <r>   -9.5490    1.0000 </r>
       <r>   -1.7781    1.0000 </r>
       <r>    3.9316    1.0000 </r>
       <r>    4.7163    1.0000 </r>
[...]
       <r>    9.5678    1.0000 </r>
       <r>    9.8435    0.0003 </r>
       <r>   10.0185    0.0000 </r>
       <r>   10.0745    0.0000 </r>
       <r>   10.1587    0.0000 </r>
       <r>   10.2506    0.0000 </r>
      </set>
      <set comment="kpoint 81">
       <r>  -34.3130    1.0000 </r>
       <r>  -13.0831    1.0000 </r>
       <r>  -13.0679    1.0000 </r>
       <r>  -13.0417    1.0000 </r>
       <r>  -13.0385    1.0000 </r>
       <r>  -13.0328    1.0000 </r>
       <r>   -9.7138    1.0000 </r>
       <r>   -9.6594    1.0000 </r>
       <r>   -9.5721    1.0000 </r>
       <r>   -1.6413    1.0000 </r>
       <r>    4.3707    1.0000 </r>
       <r>    4.6394    1.0000 </r>
       <r>    5.0671    1.0000 </r>
       <r>    5.6880    1.0000 </r>
       <r>    5.9061    1.0000 </r>
       <r>    6.3759    1.0000 </r>
       <r>    6.7741    1.0000 </r>
       <r>    8.1953    1.0000 </r>
       <r>    9.5460    1.0000 </r>
       <r>    9.8276    0.1208 </r>
       <r>   10.0084    0.0000 </r>
       <r>   10.0638    0.0000 </r>
       <r>   10.1355    0.0000 </r>
       <r>   10.2441    0.0000 </r>
      </set>
      <set comment="kpoint 82">
       <r>  -34.3128    1.0000 </r>
       <r>  -13.0740    1.0000 </r>
       <r>  -13.0621    1.0000 </r>
       <r>  -13.0448    1.0000 </r>
       <r>  -13.0357    1.0000 </r>
       <r>  -13.0317    1.0000 </r>
       <r>   -9.7277    1.0000 </r>
       <r>   -9.6433    1.0000 </r>
       <r>   -9.6031    1.0000 </r>
       <r>   -1.7354    1.0000 </r>
       <r>    4.6217    1.0000 </r>
       <r>    4.8239    1.0000 </r>
       <r>    5.1898    1.0000 </r>
       <r>    5.6410    1.0000 </r>
       <r>    5.8866    1.0000 </r>
       <r>    6.0144    1.0000 </r>
       <r>    7.0385    1.0000 </r>
       <r>    8.3034    1.0000 </r>
       <r>    9.6242    1.0000 </r>
       <r>    9.8428    0.0004 </r>
       <r>    9.9603    0.0000 </r>
       <r>   10.1180    0.0000 </r>
       <r>   10.1928    0.0000 </r>
       <r>   10.2264    0.0000 </r>
      </set>
      <set comment="kpoint 83">
       <r>  -34.3127    1.0000 </r>
       <r>  -13.0777    1.0000 </r>
       <r>  -13.0622    1.0000 </r>
       <r>  -13.0433    1.0000 </r>
       <r>  -13.0375    1.0000 </r>
       <r>  -13.0317    1.0000 </r>
       <r>   -9.7152    1.0000 </r>
       <r>   -9.6583    1.0000 </r>
       <r>   -9.5967    1.0000 </r>
       <r>   -1.7024    1.0000 </r>
       <r>    4.6017    1.0000 </r>
       <r>    4.8225    1.0000 </r>
       <r>    5.1566    1.0000 </r>
       <r>    5.6613    1.0000 </r>
       <r>    5.9199    1.0000 </r>
       <r>    6.1057    1.0000 </r>
       <r>    6.7103    1.0000 </r>
       <r>    8.2960    1.0000 </r>
       <r>    9.6058    1.0000 </r>
       <r>    9.8538    0.0000 </r>
       <r>    9.9932    0.0000 </r>
       <r>   10.1330    0.0000 </r>
       <r>   10.1754    0.0000 </r>
       <r>   10.1963    0.0000 </r>
      </set>
      <set comment="kpoint 84">
       <r>  -34.3127    1.0000 </r>
       <r>  -13.0799    1.0000 </r>
       <r>  -13.0622    1.0000 </r>
       <r>  -13.0421    1.0000 </r>
       <r>  -13.0390    1.0000 </r>
       <r>  -13.0317    1.0000 </r>
       <r>   -9.7078    1.0000 </r>
       <r>   -9.6637    1.0000 </r>
       <r>   -9.5953    1.0000 </r>
       <r>   -1.6860    1.0000 </r>
       <r>    4.5676    1.0000 </r>
       <r>    4.7870    1.0000 </r>
       <r>    5.1738    1.0000 </r>
       <r>    5.6845    1.0000 </r>
       <r>    5.9513    1.0000 </r>
       <r>    6.2320    1.0000 </r>
       <r>    6.4618    1.0000 </r>
       <r>    8.3137    1.0000 </r>
       <r>    9.5942    1.0000 </r>
       <r>    9.8627    0.0000 </r>
       <r>   10.0279    0.0000 </r>
       <r>   10.0894    0.0000 </r>
       <r>   10.1628    0.0000 </r>
       <r>   10.2219    0.0000 </r>
      </set>
     </set>
    </set>
   </array>
  </eigenvalues>
  <separator name="orbital magnetization" >
   <v name="MAGDIPOLOUT">      0.00000000      0.00000000      0.00000000</v>
  </separator>
  <dos>
   <i name="efermi">      9.81928848 </i>
   <total>
    <array>
     <dimension dim="1">gridpoints</dimension>
     <dimension dim="2">spin</dimension>
     <field>energy</field>
     <field>total</field>
     <field>integrated</field>
     <set>
      <set comment="spin 1">
       <r>   -36.5568     0.0000     0.0000 </r>
       <r>   -36.3926     0.0000     0.0000 </r>
       <r>   -36.2284     0.0000     0.0000 </r>
       <r>   -36.0642     0.0000     0.0000 </r>
       <r>   -35.9001     0.0000     0.0000 </r>
       <r>   -35.7359     0.0000     0.0000 </r>
       <r>   -35.5717     0.0000     0.0000 </r>
       <r>   -35.4075     0.0000     0.0000 </r>
       <r>   -35.2434     0.0000     0.0000 </r>
       <r>   -35.0792     0.0000     0.0000 </r>
       <r>   -34.9150     0.0000     0.0000 </r>
       <r>   -34.7508     0.0000     0.0000 </r>
       <r>   -34.5866     0.0000     0.0000 </r>
       <r>   -34.4225     0.0000     0.0000 </r>
       <r>   -34.2583    12.1820     2.0000 </r>
       <r>   -34.0941     0.0000     2.0000 </r>
       <r>   -33.9299     0.0000     2.0000 </r>
       <r>   -33.7658     0.0000     2.0000 </r>
       <r>   -33.6016     0.0000     2.0000 </r>
       <r>   -33.4374     0.0000     2.0000 </r>
       <r>   -33.2732     0.0000     2.0000 </r>
       <r>   -33.1090     0.0000     2.0000 </r>
       <r>   -32.9449     0.0000     2.0000 </r>
       <r>   -32.7807     0.0000     2.0000 </r>
       <r>   -32.6165     0.0000     2.0000 </r>
       <r>   -32.4523     0.0000     2.0000 </r>
       <r>   -32.2882     0.0000     2.0000 </r>
       <r>   -32.1240     0.0000     2.0000 </r>
       <r>   -31.9598     0.0000     2.0000 </r>
       <r>   -31.7956     0.0000     2.0000 </r>
       <r>   -31.6315     0.0000     2.0000 </r>
       <r>   -31.4673     0.0000     2.0000 </r>
       <r>   -31.3031     0.0000     2.0000 </r>
       <r>   -31.1389     0.0000     2.0000 </r>
       <r>   -30.9747     0.0000     2.0000 </r>
       <r>   -30.8106     0.0000     2.0000 </r>
       <r>   -30.6464     0.0000     2.0000 </r>
       <r>   -30.4822     0.0000     2.0000 </r>
       <r>   -30.3180     0.0000     2.0000 </r>
       <r>   -30.1539     0.0000     2.0000 </r>
       <r>   -29.9897     0.0000     2.0000 </r>
       <r>   -29.8255     0.0000     2.0000 </r>
       <r>   -29.6613     0.0000     2.0000 </r>
       <r>   -29.4972     0.0000     2.0000 </r>
       <r>   -29.3330     0.0000     2.0000 </r>
       <r>   -29.1688     0.0000     2.0000 </r>
       <r>   -29.0046     0.0000     2.0000 </r>
       <r>   -28.8404     0.0000     2.0000 </r>
       <r>   -28.6763     0.0000     2.0000 </r>
       <r>   -28.5121     0.0000     2.0000 </r>
       <r>   -28.3479     0.0000     2.0000 </r>
       <r>   -28.1837     0.0000     2.0000 </r>
       <r>   -28.0196     0.0000     2.0000 </r>
       <r>   -27.8554     0.0000     2.0000 </r>
       <r>   -27.6912     0.0000     2.0000 </r>
       <r>   -27.5270     0.0000     2.0000 </r>
       <r>   -27.3628     0.0000     2.0000 </r>
       <r>   -27.1987     0.0000     2.0000 </r>
       <r>   -27.0345     0.0000     2.0000 </r>
       <r>   -26.8703     0.0000     2.0000 </r>
       <r>   -26.7061     0.0000     2.0000 </r>
       <r>   -26.5420     0.0000     2.0000 </r>
       <r>   -26.3778     0.0000     2.0000 </r>
       <r>   -26.2136     0.0000     2.0000 </r>
       <r>   -26.0494     0.0000     2.0000 </r>
       <r>   -25.8853     0.0000     2.0000 </r>
       <r>   -25.7211     0.0000     2.0000 </r>
       <r>   -25.5569     0.0000     2.0000 </r>
       <r>   -25.3927     0.0000     2.0000 </r>
       <r>   -25.2285     0.0000     2.0000 </r>
       <r>   -25.0644     0.0000     2.0000 </r>
       <r>   -24.9002     0.0000     2.0000 </r>
       <r>   -24.7360     0.0000     2.0000 </r>
       <r>   -24.5718     0.0000     2.0000 </r>
       <r>   -24.4077     0.0000     2.0000 </r>
       <r>   -24.2435     0.0000     2.0000 </r>
       <r>   -24.0793     0.0000     2.0000 </r>
       <r>   -23.9151     0.0000     2.0000 </r>
       <r>   -23.7510     0.0000     2.0000 </r>
       <r>   -23.5868     0.0000     2.0000 </r>
       <r>   -23.4226     0.0000     2.0000 </r>
       <r>   -23.2584     0.0000     2.0000 </r>
       <r>   -23.0942     0.0000     2.0000 </r>
       <r>   -22.9301     0.0000     2.0000 </r>
       <r>   -22.7659     0.0000     2.0000 </r>
       <r>   -22.6017     0.0000     2.0000 </r>
       <r>   -22.4375     0.0000     2.0000 </r>
       <r>   -22.2734     0.0000     2.0000 </r>
       <r>   -22.1092     0.0000     2.0000 </r>
       <r>   -21.9450     0.0000     2.0000 </r>
       <r>   -21.7808     0.0000     2.0000 </r>
       <r>   -21.6166     0.0000     2.0000 </r>
       <r>   -21.4525     0.0000     2.0000 </r>
       <r>   -21.2883     0.0000     2.0000 </r>
       <r>   -21.1241     0.0000     2.0000 </r>
       <r>   -20.9599     0.0000     2.0000 </r>
       <r>   -20.7958     0.0000     2.0000 </r>
       <r>   -20.6316     0.0000     2.0000 </r>
       <r>   -20.4674     0.0000     2.0000 </r>
       <r>   -20.3032     0.0000     2.0000 </r>
       <r>   -20.1391     0.0000     2.0000 </r>
       <r>   -19.9749     0.0000     2.0000 </r>
       <r>   -19.8107     0.0000     2.0000 </r>
       <r>   -19.6465     0.0000     2.0000 </r>
       <r>   -19.4823     0.0000     2.0000 </r>
       <r>   -19.3182     0.0000     2.0000 </r>
       <r>   -19.1540     0.0000     2.0000 </r>
       <r>   -18.9898     0.0000     2.0000 </r>
       <r>   -18.8256     0.0000     2.0000 </r>
       <r>   -18.6615     0.0000     2.0000 </r>
       <r>   -18.4973     0.0000     2.0000 </r>
       <r>   -18.3331     0.0000     2.0000 </r>
       <r>   -18.1689     0.0000     2.0000 </r>
       <r>   -18.0048     0.0000     2.0000 </r>
       <r>   -17.8406     0.0000     2.0000 </r>
       <r>   -17.6764     0.0000     2.0000 </r>
       <r>   -17.5122     0.0000     2.0000 </r>
       <r>   -17.3480     0.0000     2.0000 </r>
       <r>   -17.1839     0.0000     2.0000 </r>
       <r>   -17.0197     0.0000     2.0000 </r>
       <r>   -16.8555     0.0000     2.0000 </r>
       <r>   -16.6913     0.0000     2.0000 </r>
       <r>   -16.5272     0.0000     2.0000 </r>
       <r>   -16.3630     0.0000     2.0000 </r>
       <r>   -16.1988     0.0000     2.0000 </r>
       <r>   -16.0346     0.0000     2.0000 </r>
       <r>   -15.8704     0.0000     2.0000 </r>
       <r>   -15.7063     0.0000     2.0000 </r>
       <r>   -15.5421     0.0000     2.0000 </r>
       <r>   -15.3779     0.0000     2.0000 </r>
       <r>   -15.2137     0.0000     2.0000 </r>
       <r>   -15.0496     0.0000     2.0000 </r>
       <r>   -14.8854     0.0000     2.0000 </r>
       <r>   -14.7212     0.0000     2.0000 </r>
       <r>   -14.5570     0.0000     2.0000 </r>
       <r>   -14.3929     0.0000     2.0000 </r>
       <r>   -14.2287     0.0000     2.0000 </r>
       <r>   -14.0645     0.0000     2.0000 </r>
       <r>   -13.9003     0.0000     2.0000 </r>
       <r>   -13.7361     0.0000     2.0000 </r>
       <r>   -13.5720     0.0000     2.0000 </r>
       <r>   -13.4078     0.0000     2.0000 </r>
       <r>   -13.2436     0.0000     2.0000 </r>
       <r>   -13.0794    10.4679     3.7186 </r>
       <r>   -12.9153     0.0000    12.0000 </r>
       <r>   -12.7511     0.0000    12.0000 </r>
       <r>   -12.5869     0.0000    12.0000 </r>
       <r>   -12.4227     0.0000    12.0000 </r>
       <r>   -12.2586     0.0000    12.0000 </r>
       <r>   -12.0944     0.0000    12.0000 </r>
       <r>   -11.9302     0.0000    12.0000 </r>
       <r>   -11.7660     0.0000    12.0000 </r>
       <r>   -11.6018     0.0000    12.0000 </r>
       <r>   -11.4377     0.0000    12.0000 </r>
       <r>   -11.2735     0.0000    12.0000 </r>
       <r>   -11.1093     0.0000    12.0000 </r>
       <r>   -10.9451     0.0000    12.0000 </r>
       <r>   -10.7810     0.0000    12.0000 </r>
       <r>   -10.6168     0.0000    12.0000 </r>
       <r>   -10.4526     0.0000    12.0000 </r>
       <r>   -10.2884     0.0000    12.0000 </r>
       <r>   -10.1242     0.0000    12.0000 </r>
       <r>    -9.9601     0.0000    12.0000 </r>
       <r>    -9.7959     0.0419    12.0069 </r>
       <r>    -9.6317     6.1503    14.5500 </r>
       <r>    -9.4675     2.6393    18.0000 </r>
       <r>    -9.3034     0.0000    18.0000 </r>
       <r>    -9.1392     0.0000    18.0000 </r>
       <r>    -8.9750     0.0000    18.0000 </r>
       <r>    -8.8108     0.0000    18.0000 </r>
       <r>    -8.6467     0.0000    18.0000 </r>
       <r>    -8.4825     0.0000    18.0000 </r>
       <r>    -8.3183     0.0000    18.0000 </r>
       <r>    -8.1541     0.0000    18.0000 </r>
       <r>    -7.9899     0.0000    18.0000 </r>
       <r>    -7.8258     0.0000    18.0000 </r>
       <r>    -7.6616     0.0000    18.0000 </r>
       <r>    -7.4974     0.0000    18.0000 </r>
       <r>    -7.3332     0.0000    18.0000 </r>
       <r>    -7.1691     0.0000    18.0000 </r>
       <r>    -7.0049     0.0000    18.0000 </r>
       <r>    -6.8407     0.0000    18.0000 </r>
       <r>    -6.6765     0.0000    18.0000 </r>
       <r>    -6.5123     0.0000    18.0000 </r>
       <r>    -6.3482     0.0000    18.0000 </r>
       <r>    -6.1840     0.0000    18.0000 </r>
       <r>    -6.0198     0.0000    18.0000 </r>
       <r>    -5.8556     0.0000    18.0000 </r>
       <r>    -5.6915     0.0000    18.0000 </r>
       <r>    -5.5273     0.0000    18.0000 </r>
       <r>    -5.3631     0.0000    18.0000 </r>
       <r>    -5.1989     0.0000    18.0000 </r>
       <r>    -5.0348     0.0000    18.0000 </r>
       <r>    -4.8706     0.0000    18.0000 </r>
       <r>    -4.7064     0.0000    18.0000 </r>
       <r>    -4.5422     0.0000    18.0000 </r>
       <r>    -4.3780     0.0000    18.0000 </r>
       <r>    -4.2139     0.0000    18.0000 </r>
       <r>    -4.0497     0.0000    18.0000 </r>
       <r>    -3.8855     0.0000    18.0000 </r>
       <r>    -3.7213     0.0000    18.0000 </r>
       <r>    -3.5572     0.0000    18.0000 </r>
       <r>    -3.3930     0.0000    18.0000 </r>
       <r>    -3.2288     0.0000    18.0000 </r>
       <r>    -3.0646     0.0000    18.0000 </r>
       <r>    -2.9005     0.0000    18.0000 </r>
       <r>    -2.7363     0.0000    18.0000 </r>
       <r>    -2.5721     0.0055    18.0009 </r>
       <r>    -2.4079     0.0665    18.0246 </r>
       <r>    -2.2437     0.0392    18.0601 </r>
       <r>    -2.0796     0.3099    18.1537 </r>
       <r>    -1.9154     0.4259    18.2839 </r>
       <r>    -1.7512     2.0882    18.6988 </r>
       <r>    -1.5870     2.7514    19.6397 </r>
       <r>    -1.4229     0.7079    19.9997 </r>
       <r>    -1.2587     0.0000    20.0000 </r>
       <r>    -1.0945     0.0000    20.0000 </r>
       <r>    -0.9303     0.0000    20.0000 </r>
       <r>    -0.7661     0.0000    20.0000 </r>
       <r>    -0.6020     0.0000    20.0000 </r>
       <r>    -0.4378     0.0000    20.0000 </r>
       <r>    -0.2736     0.0000    20.0000 </r>
       <r>    -0.1094     0.0000    20.0000 </r>
       <r>     0.0547     0.0000    20.0000 </r>
       <r>     0.2189     0.0000    20.0000 </r>
       <r>     0.3831     0.0000    20.0000 </r>
       <r>     0.5473     0.0000    20.0000 </r>
       <r>     0.7114     0.0000    20.0000 </r>
       <r>     0.8756     0.0000    20.0000 </r>
       <r>     1.0398     0.0000    20.0000 </r>
       <r>     1.2040     0.0000    20.0000 </r>
       <r>     1.3682     0.0000    20.0000 </r>
       <r>     1.5323     0.0000    20.0000 </r>
       <r>     1.6965     0.0000    20.0000 </r>
       <r>     1.8607     0.0000    20.0000 </r>
       <r>     2.0249     0.0000    20.0000 </r>
       <r>     2.1890     0.0000    20.0000 </r>
       <r>     2.3532     0.0000    20.0000 </r>
       <r>     2.5174     0.0000    20.0000 </r>
       <r>     2.6816     0.0000    20.0000 </r>
       <r>     2.8457     0.0000    20.0000 </r>
       <r>     3.0099     0.0000    20.0000 </r>
       <r>     3.1741     0.0000    20.0000 </r>
       <r>     3.3383     0.0000    20.0000 </r>
       <r>     3.5025     0.0000    20.0000 </r>
       <r>     3.6666     0.0868    20.0142 </r>
       <r>     3.8308     0.4436    20.1456 </r>
       <r>     3.9950     1.7867    20.7558 </r>
       <r>     4.1592     0.9315    21.1361 </r>
       <r>     4.3233     0.4019    21.3823 </r>
       <r>     4.4875     0.7547    21.6205 </r>
       <r>     4.6517     2.0600    22.1042 </r>
       <r>     4.8159     3.2032    23.3243 </r>
       <r>     4.9801     2.8213    24.2884 </r>
       <r>     5.1442     2.8933    25.1832 </r>
       <r>     5.3084     1.6362    25.9273 </r>
       <r>     5.4726     0.2439    26.0510 </r>
       <r>     5.6368     3.2019    26.6204 </r>
       <r>     5.8009     3.2626    28.5748 </r>
       <r>     5.9651     3.8801    30.0544 </r>
       <r>     6.1293     1.3494    30.4928 </r>
       <r>     6.2935     1.8542    31.0236 </r>
       <r>     6.4576     0.8887    31.4022 </r>
       <r>     6.6218     0.7319    31.6495 </r>
       <r>     6.7860     0.5594    31.8579 </r>
       <r>     6.9502     0.3326    32.0446 </r>
       <r>     7.1144     1.6424    32.3689 </r>
       <r>     7.2785     0.6374    32.5371 </r>
       <r>     7.4427     1.1099    32.8240 </r>
       <r>     7.6069     0.5017    33.1065 </r>
       <r>     7.7711     0.5977    33.2861 </r>
       <r>     7.9352     0.6621    33.6153 </r>
       <r>     8.0994     1.4488    33.8974 </r>
       <r>     8.2636     3.7994    35.4859 </r>
       <r>     8.4278     0.6874    35.9253 </r>
       <r>     8.5919     0.0738    35.9739 </r>
       <r>     8.7561     0.0000    36.0009 </r>
       <r>     8.9203     0.0439    36.0081 </r>
       <r>     9.0845     0.0788    36.0357 </r>
       <r>     9.2487     0.8553    36.3107 </r>
       <r>     9.4128     1.7977    36.9733 </r>
       <r>     9.5770     2.5256    37.7210 </r>
       <r>     9.7412     0.3724    38.0229 </r>
       <r>     9.9054    11.1134    41.0399 </r>
       <r>    10.0695     7.3524    43.1470 </r>
       <r>    10.2337     8.4937    46.5506 </r>
       <r>    10.3979     1.0884    47.9857 </r>
       <r>    10.5621     0.0000    48.0000 </r>
       <r>    10.7263     0.0000    48.0000 </r>
       <r>    10.8904     0.0000    48.0000 </r>
       <r>    11.0546     0.0000    48.0000 </r>
       <r>    11.2188     0.0000    48.0000 </r>
       <r>    11.3830     0.0000    48.0000 </r>
       <r>    11.5471     0.0000    48.0000 </r>
       <r>    11.7113     0.0000    48.0000 </r>
       <r>    11.8755     0.0000    48.0000 </r>
       <r>    12.0397     0.0000    48.0000 </r>
       <r>    12.2038     0.0000    48.0000 </r>
       <r>    12.3680     0.0000    48.0000 </r>
       <r>    12.5322     0.0000    48.0000 </r>
       <r>    12.6964     0.0000    48.0000 </r>
      </set>
     </set>
    </array>
   </total>
  </dos>
 </calculation>
 <structure name="finalpos" >
  <crystal>
   <varray name="basis" >
    <v>       0.00000000       3.33961277       3.33961277 </v>
    <v>       3.33961277       0.00000000       3.33961277 </v>
    <v>       3.33961277       3.33961277       0.00000000 </v>
   </varray>
   <i name="volume">     74.49349249 </i>
   <varray name="rec_basis" >
    <v>      -0.14971796       0.14971796       0.14971796 </v>
    <v>       0.14971796      -0.14971796       0.14971796 </v>
    <v>       0.14971796       0.14971796      -0.14971796 </v>
   </varray>
  </crystal>
  <varray name="positions" >
   <v>       0.25000000       0.25000000       0.25000000 </v>
   <v>       0.75000000       0.75000000       0.75000000 </v>
   <v>       0.00000000       0.00000000       0.00000000 </v>
  </varray>
 </structure>
</modeling>
