   3   3   0   0
  0.2356782E+02  0.4641431E-09  0.4641431E-09  0.4641431E-09  0.5000000E-15
  1.000000000000000E-004
  CAR
 unknown system
     14.73608060    -31.69855176  301     10.11804671      1.00000000
    -31.699  0.0000E+00  0.0000E+00
    -31.544  0.0000E+00  0.0000E+00
    -31.389  0.0000E+00  0.0000E+00
    -31.234  0.0000E+00  0.0000E+00
    -31.079  0.0000E+00  0.0000E+00
    -30.925  0.0000E+00  0.0000E+00
    -30.770  0.0000E+00  0.0000E+00
    -30.615  0.0000E+00  0.0000E+00
    -30.460  0.0000E+00  0.0000E+00
    -30.306  0.0000E+00  0.0000E+00
    -30.151  0.0000E+00  0.0000E+00
    -29.996  0.0000E+00  0.0000E+00
    -29.841  0.0000E+00  0.0000E+00
    -29.686  0.0000E+00  0.0000E+00
    -29.532  0.1292E+02  0.2000E+01
    -29.377  0.0000E+00  0.2000E+01
    -29.222  0.0000E+00  0.2000E+01
    -29.067  0.0000E+00  0.2000E+01
    -28.912  0.0000E+00  0.2000E+01
    -28.758  0.0000E+00  0.2000E+01
    -28.603  0.0000E+00  0.2000E+01
    -28.448  0.0000E+00  0.2000E+01
    -28.293  0.0000E+00  0.2000E+01
    -28.139  0.0000E+00  0.2000E+01
    -27.984  0.0000E+00  0.2000E+01
    -27.829  0.0000E+00  0.2000E+01
    -27.674  0.0000E+00  0.2000E+01
    -27.519  0.0000E+00  0.2000E+01
    -27.365  0.0000E+00  0.2000E+01
    -27.210  0.0000E+00  0.2000E+01
    -27.055  0.0000E+00  0.2000E+01
    -26.900  0.0000E+00  0.2000E+01
    -26.746  0.0000E+00  0.2000E+01
    -26.591  0.0000E+00  0.2000E+01
    -26.436  0.0000E+00  0.2000E+01
    -26.281  0.0000E+00  0.2000E+01
    -26.126  0.0000E+00  0.2000E+01
    -25.972  0.0000E+00  0.2000E+01
    -25.817  0.0000E+00  0.2000E+01
    -25.662  0.0000E+00  0.2000E+01
    -25.507  0.0000E+00  0.2000E+01
    -25.352  0.0000E+00  0.2000E+01
    -25.198  0.0000E+00  0.2000E+01
    -25.043  0.0000E+00  0.2000E+01
    -24.888  0.0000E+00  0.2000E+01
    -24.733  0.0000E+00  0.2000E+01
    -24.579  0.0000E+00  0.2000E+01
    -24.424  0.0000E+00  0.2000E+01
    -24.269  0.0000E+00  0.2000E+01
    -24.114  0.0000E+00  0.2000E+01
    -23.959  0.0000E+00  0.2000E+01
    -23.805  0.0000E+00  0.2000E+01
    -23.650  0.0000E+00  0.2000E+01
    -23.495  0.0000E+00  0.2000E+01
    -23.340  0.0000E+00  0.2000E+01
    -23.186  0.0000E+00  0.2000E+01
    -23.031  0.0000E+00  0.2000E+01
    -22.876  0.0000E+00  0.2000E+01
    -22.721  0.0000E+00  0.2000E+01
    -22.566  0.0000E+00  0.2000E+01
    -22.412  0.0000E+00  0.2000E+01
    -22.257  0.0000E+00  0.2000E+01
    -22.102  0.0000E+00  0.2000E+01
    -21.947  0.0000E+00  0.2000E+01
    -21.792  0.0000E+00  0.2000E+01
    -21.638  0.0000E+00  0.2000E+01
    -21.483  0.0000E+00  0.2000E+01
    -21.328  0.0000E+00  0.2000E+01
    -21.173  0.0000E+00  0.2000E+01
    -21.019  0.0000E+00  0.2000E+01
    -20.864  0.0000E+00  0.2000E+01
    -20.709  0.0000E+00  0.2000E+01
    -20.554  0.0000E+00  0.2000E+01
    -20.399  0.0000E+00  0.2000E+01
    -20.245  0.0000E+00  0.2000E+01
    -20.090  0.0000E+00  0.2000E+01
    -19.935  0.0000E+00  0.2000E+01
    -19.780  0.0000E+00  0.2000E+01
    -19.626  0.0000E+00  0.2000E+01
    -19.471  0.0000E+00  0.2000E+01
    -19.316  0.0000E+00  0.2000E+01
    -19.161  0.0000E+00  0.2000E+01
    -19.006  0.0000E+00  0.2000E+01
    -18.852  0.0000E+00  0.2000E+01
    -18.697  0.0000E+00  0.2000E+01
    -18.542  0.0000E+00  0.2000E+01
    -18.387  0.0000E+00  0.2000E+01
    -18.233  0.0000E+00  0.2000E+01
    -18.078  0.0000E+00  0.2000E+01
    -17.923  0.0000E+00  0.2000E+01
    -17.768  0.0000E+00  0.2000E+01
    -17.613  0.0000E+00  0.2000E+01
    -17.459  0.0000E+00  0.2000E+01
    -17.304  0.0000E+00  0.2000E+01
    -17.149  0.0000E+00  0.2000E+01
    -16.994  0.0000E+00  0.2000E+01
    -16.839  0.0000E+00  0.2000E+01
    -16.685  0.0000E+00  0.2000E+01
    -16.530  0.0000E+00  0.2000E+01
    -16.375  0.0000E+00  0.2000E+01
    -16.220  0.0000E+00  0.2000E+01
    -16.066  0.0000E+00  0.2000E+01
    -15.911  0.0000E+00  0.2000E+01
    -15.756  0.0000E+00  0.2000E+01
    -15.601  0.0000E+00  0.2000E+01
    -15.446  0.0000E+00  0.2000E+01
    -15.292  0.0000E+00  0.2000E+01
    -15.137  0.0000E+00  0.2000E+01
    -14.982  0.0000E+00  0.2000E+01
    -14.827  0.0000E+00  0.2000E+01
    -14.673  0.0000E+00  0.2000E+01
    -14.518  0.0000E+00  0.2000E+01
    -14.363  0.0000E+00  0.2000E+01
    -14.208  0.0000E+00  0.2000E+01
    -14.053  0.0000E+00  0.2000E+01
    -13.899  0.0000E+00  0.2000E+01
    -13.744  0.0000E+00  0.2000E+01
    -13.589  0.0000E+00  0.2000E+01
    -13.434  0.0000E+00  0.2000E+01
    -13.279  0.0000E+00  0.2000E+01
    -13.125  0.1199E+02  0.3856E+01
    -12.970  0.0000E+00  0.1200E+02
    -12.815  0.0000E+00  0.1200E+02
    -12.660  0.0000E+00  0.1200E+02
    -12.506  0.0000E+00  0.1200E+02
    -12.351  0.0000E+00  0.1200E+02
    -12.196  0.0000E+00  0.1200E+02
    -12.041  0.0000E+00  0.1200E+02
    -11.886  0.0000E+00  0.1200E+02
    -11.732  0.0000E+00  0.1200E+02
    -11.577  0.0000E+00  0.1200E+02
    -11.422  0.0000E+00  0.1200E+02
    -11.267  0.0000E+00  0.1200E+02
    -11.113  0.0000E+00  0.1200E+02
    -10.958  0.0000E+00  0.1200E+02
    -10.803  0.0000E+00  0.1200E+02
    -10.648  0.0000E+00  0.1200E+02
    -10.493  0.0000E+00  0.1200E+02
    -10.339  0.0000E+00  0.1200E+02
    -10.184  0.0000E+00  0.1200E+02
    -10.029  0.0000E+00  0.1200E+02
     -9.874  0.0000E+00  0.1200E+02
     -9.719  0.0000E+00  0.1200E+02
     -9.565  0.0000E+00  0.1200E+02
     -9.410  0.0000E+00  0.1200E+02
     -9.255  0.0000E+00  0.1200E+02
     -9.100  0.0000E+00  0.1200E+02
     -8.946  0.0000E+00  0.1200E+02
     -8.791  0.0000E+00  0.1200E+02
     -8.636  0.0000E+00  0.1200E+02
     -8.481  0.0000E+00  0.1200E+02
     -8.326  0.0000E+00  0.1200E+02
     -8.172  0.1060E+01  0.1216E+02
     -8.017  0.7263E+01  0.1377E+02
     -7.862  0.4892E+01  0.1470E+02
     -7.707  0.1102E+02  0.1797E+02
     -7.553  0.0000E+00  0.1800E+02
     -7.398  0.0000E+00  0.1800E+02
     -7.243  0.0000E+00  0.1800E+02
     -7.088  0.0000E+00  0.1800E+02
     -6.933  0.0000E+00  0.1800E+02
     -6.779  0.0000E+00  0.1800E+02
     -6.624  0.0000E+00  0.1800E+02
     -6.469  0.0000E+00  0.1800E+02
     -6.314  0.0000E+00  0.1800E+02
     -6.160  0.0000E+00  0.1800E+02
     -6.005  0.0000E+00  0.1800E+02
     -5.850  0.0000E+00  0.1800E+02
     -5.695  0.0000E+00  0.1800E+02
     -5.540  0.0000E+00  0.1800E+02
     -5.386  0.0000E+00  0.1800E+02
     -5.231  0.0000E+00  0.1800E+02
     -5.076  0.0000E+00  0.1800E+02
     -4.921  0.0000E+00  0.1800E+02
     -4.766  0.0000E+00  0.1800E+02
     -4.612  0.0000E+00  0.1800E+02
     -4.457  0.0000E+00  0.1800E+02
     -4.302  0.0000E+00  0.1800E+02
     -4.147  0.0000E+00  0.1800E+02
     -3.993  0.0000E+00  0.1800E+02
     -3.838  0.0000E+00  0.1800E+02
     -3.683  0.0000E+00  0.1800E+02
     -3.528  0.0000E+00  0.1800E+02
     -3.373  0.0000E+00  0.1800E+02
     -3.219  0.0000E+00  0.1800E+02
     -3.064  0.0000E+00  0.1800E+02
     -2.909  0.3612E-13  0.1800E+02
     -2.754  0.4730E-01  0.1801E+02
     -2.600  0.7057E-01  0.1802E+02
     -2.445  0.6270E-01  0.1806E+02
     -2.290  0.2823E+00  0.1810E+02
     -2.135  0.1110E+00  0.1816E+02
     -1.980  0.1350E+01  0.1848E+02
     -1.826  0.2178E+01  0.1900E+02
     -1.671  0.1692E+01  0.1955E+02
     -1.516  0.6302E+00  0.1986E+02
     -1.361  0.3057E+00  0.2000E+02
     -1.206  0.0000E+00  0.2000E+02
     -1.052  0.0000E+00  0.2000E+02
     -0.897  0.0000E+00  0.2000E+02
     -0.742  0.0000E+00  0.2000E+02
     -0.587  0.0000E+00  0.2000E+02
     -0.433  0.0000E+00  0.2000E+02
     -0.278  0.0000E+00  0.2000E+02
     -0.123  0.0000E+00  0.2000E+02
      0.032  0.0000E+00  0.2000E+02
      0.187  0.0000E+00  0.2000E+02
      0.341  0.0000E+00  0.2000E+02
      0.496  0.0000E+00  0.2000E+02
      0.651  0.0000E+00  0.2000E+02
      0.806  0.0000E+00  0.2000E+02
      0.960  0.0000E+00  0.2000E+02
      1.115  0.0000E+00  0.2000E+02
      1.270  0.0000E+00  0.2000E+02
      1.425  0.0000E+00  0.2000E+02
      1.580  0.0000E+00  0.2000E+02
      1.734  0.0000E+00  0.2000E+02
      1.889  0.0000E+00  0.2000E+02
      2.044  0.0000E+00  0.2000E+02
      2.199  0.0000E+00  0.2000E+02
      2.354  0.0000E+00  0.2000E+02
      2.508  0.0000E+00  0.2000E+02
      2.663  0.0000E+00  0.2000E+02
      2.818  0.0000E+00  0.2000E+02
      2.973  0.0000E+00  0.2000E+02
      3.127  0.0000E+00  0.2000E+02
      3.282  0.0000E+00  0.2000E+02
      3.437  0.1538E-02  0.2000E+02
      3.592  0.2764E+00  0.2007E+02
      3.747  0.1965E+01  0.2045E+02
      3.901  0.8346E+00  0.2080E+02
      4.056  0.4224E+00  0.2111E+02
      4.211  0.8091E+00  0.2130E+02
      4.366  0.2198E+01  0.2180E+02
      4.520  0.3446E+01  0.2283E+02
      4.675  0.3151E+01  0.2363E+02
      4.830  0.2407E+01  0.2437E+02
      4.985  0.3461E+01  0.2530E+02
      5.140  0.1227E+01  0.2575E+02
      5.294  0.6994E+00  0.2602E+02
      5.449  0.6149E+00  0.2617E+02
      5.604  0.5680E+01  0.2783E+02
      5.759  0.3151E+01  0.2883E+02
      5.914  0.2653E+01  0.2981E+02
      6.068  0.1066E+01  0.3020E+02
      6.223  0.1390E+01  0.3053E+02
      6.378  0.2513E+01  0.3098E+02
      6.533  0.1005E+01  0.3138E+02
      6.687  0.7267E+00  0.3160E+02
      6.842  0.9989E+00  0.3186E+02
      6.997  0.5003E+00  0.3200E+02
      7.152  0.7437E+00  0.3218E+02
      7.307  0.8334E+00  0.3247E+02
      7.461  0.6964E+00  0.3265E+02
      7.616  0.2208E+01  0.3309E+02
      7.771  0.3109E+00  0.3317E+02
      7.926  0.1089E+01  0.3349E+02
      8.080  0.7281E+00  0.3371E+02
      8.235  0.3366E+01  0.3436E+02
      8.390  0.2170E+01  0.3542E+02
      8.545  0.9575E+00  0.3581E+02
      8.700  0.4491E+00  0.3598E+02
      8.854  0.1764E-01  0.3600E+02
      9.009  0.0000E+00  0.3600E+02
      9.164  0.0000E+00  0.3600E+02
      9.319  0.0000E+00  0.3600E+02
      9.473  0.1523E-07  0.3601E+02
      9.628  0.1060E+00  0.3604E+02
      9.783  0.4403E+00  0.3612E+02
      9.938  0.8705E+00  0.3642E+02
     10.093  0.2471E+01  0.3696E+02
     10.247  0.1485E+01  0.3739E+02
     10.402  0.1417E+01  0.3779E+02
     10.557  0.5948E+00  0.3803E+02
     10.712  0.3766E+00  0.3819E+02
     10.867  0.3599E+00  0.3829E+02
     11.021  0.1074E+01  0.3850E+02
     11.176  0.1738E+01  0.3889E+02
     11.331  0.1986E+01  0.3943E+02
     11.486  0.1747E+01  0.4005E+02
     11.640  0.1711E+01  0.4054E+02
     11.795  0.1788E+01  0.4096E+02
     11.950  0.2972E+01  0.4174E+02
     12.105  0.2729E+01  0.4278E+02
     12.260  0.6034E+01  0.4415E+02
     12.414  0.4392E+01  0.4607E+02
     12.569  0.6001E+01  0.4723E+02
     12.724  0.0000E+00  0.4800E+02
     12.879  0.0000E+00  0.4800E+02
     13.033  0.0000E+00  0.4800E+02
     13.188  0.0000E+00  0.4800E+02
     13.343  0.0000E+00  0.4800E+02
     13.498  0.0000E+00  0.4800E+02
     13.653  0.0000E+00  0.4800E+02
     13.807  0.0000E+00  0.4800E+02
     13.962  0.0000E+00  0.4800E+02
     14.117  0.0000E+00  0.4800E+02
     14.272  0.0000E+00  0.4800E+02
     14.427  0.0000E+00  0.4800E+02
     14.581  0.0000E+00  0.4800E+02
     14.736  0.0000E+00  0.4800E+02
