       N       E                     dE             d eps       ncg     rms          rms(c)
DAV:   1     0.451567944296E+03    0.45157E+03   -0.20756E+04  4032   0.208E+03
DAV:   2     0.465981650028E+02   -0.40497E+03   -0.39593E+03  4120   0.511E+02
DAV:   3    -0.181391571710E+02   -0.64737E+02   -0.64061E+02  5624   0.171E+02
DAV:   4    -0.222335722026E+02   -0.40944E+01   -0.40844E+01  7296   0.434E+01
DAV:   5    -0.223389003192E+02   -0.10533E+00   -0.10530E+00  5608   0.556E+00    0.410E+01
DAV:   6    -0.215505155842E+02    0.78838E+00   -0.14313E+00  5088   0.841E+00    0.246E+01
DAV:   7    -0.213998201272E+02    0.15070E+00   -0.17694E+00  6024   0.801E+00    0.573E+00
DAV:   8    -0.213683081962E+02    0.31512E-01   -0.31398E-01  5488   0.302E+00    0.308E+00
DAV:   9    -0.213627653338E+02    0.55429E-02   -0.11078E-01  5960   0.196E+00    0.284E+00
DAV:  10    -0.213592719643E+02    0.34934E-02   -0.20249E-02  5720   0.825E-01    0.694E-01
DAV:  11    -0.213593397504E+02   -0.67786E-04   -0.94566E-04  5568   0.186E-01    0.441E-01
DAV:  12    -0.213592932595E+02    0.46491E-04   -0.26692E-04  5968   0.956E-02    0.856E-02
DAV:  13    -0.213592954317E+02   -0.21722E-05   -0.45596E-05  6304   0.381E-02    0.337E-02
DAV:  14    -0.213592949827E+02    0.44906E-06   -0.23166E-06  5456   0.105E-02    0.190E-02
DAV:  15    -0.213592946881E+02    0.29460E-06   -0.11538E-06  6712   0.647E-03    0.564E-04
DAV:  16    -0.213592946762E+02    0.11843E-07   -0.43643E-08  3376   0.129E-03
   1 F= -.21359295E+02 E0= -.21359242E+02  d E =-.105768E-03
