 vasp.6.0.8 29Jun18 (build Jun 13 2019 12:54:44) complex

 executed on      IFC18_CrayMPICH date 2021.12.05  14:21:46
 running   64 mpi-ranks, with    1 threads/rank
 distrk:  each k-point on   16 cores,    4 groups
 distr:  one band on NCORES_PER_BAND=   4 cores,    4 groups


--------------------------------------------------------------------------------------------------------


 INCAR:
 POTCAR:    PAW_PBE Th 07Sep2000
 POTCAR:    PAW_PBE Bi_d 06Sep2000
 POTCAR:    PAW_PBE Pt 04Feb2005
 POTCAR:    PAW_PBE Th 07Sep2000
   VRHFIN =Th:  [Xe,5d,4f]
   LEXCH  = PE
   EATOM  =   984.7553 eV,   72.3775 Ry

   TITEL  = PAW_PBE Th 07Sep2000
   LULTRA =        F    use ultrasoft PP ?
   IUNSCR =        1    unscreen: 0-lin 1-nonlin 2-no
   RPACOR =    2.200    partial core radius
   POMASS =  232.039; ZVAL   =   12.000    mass and valenz
   RCORE  =    2.800    outmost cutoff radius
   RWIGS  =    3.000; RWIGS  =    1.588    wigner-seitz radius (au A)
   ENMAX  =  247.306; ENMIN  =  185.480 eV
   RCLOC  =    2.211    cutoff for local pot
   LCOR   =        T    correct aug charges
   LPAW   =        T    paw PP
   EAUG   =  535.431
   DEXC   =    0.000
   RMAX   =    2.862    core radius for proj-oper
   RAUG   =    1.300    factor for augmentation sphere
   RDEP   =    2.926    radius for radial grids
   RDEPT  =    2.250    core radius for aug-charge

   Atomic configuration
   18 entries
     n  l   j            E        occ.
     1  0  0.50   -109990.1879   2.0000
     2  0  0.50    -20388.0147   2.0000
     2  1  1.50    -17049.6156   6.0000
     3  0  0.50     -5106.5436   2.0000
     3  1  1.50     -4175.1262   6.0000
     3  2  2.50     -3342.8437  10.0000
     4  0  0.50     -1280.8211   2.0000
     4  1  1.50      -976.4859   6.0000
     4  2  2.50      -661.8358  10.0000
     4  3  3.50      -324.9124  14.0000
     5  0  0.50      -278.7726   2.0000
     5  1  1.50      -186.2212   6.0000
     5  2  2.50       -86.9031  10.0000
     6  0  0.50       -43.3059   2.0000
     7  0  0.50        -4.0783   2.0000
     6  1  1.50       -21.4071   6.0000
     6  2  1.50        -2.3664   1.0000
     5  3  2.50        -1.2804   1.0000
   Description
     l       E           TYP  RCUT    TYP  RCUT
     0    -43.3059201     23  2.800
     0     -4.0782900     23  2.800
     1    -21.4071032     23  2.500
     1    -22.7676858     23  2.500
     2     -2.3664170     23  2.500
     2      3.0546543     23  2.500
     3     -1.2803910     23  2.800
     3      0.1360583     23  2.800
  local pseudopotential read in
  partial core-charges read in
  partial kinetic energy density read in
  atomic valenz-charges read in
  non local Contribution for L=           0  read in
    real space projection operators read in
  non local Contribution for L=           0  read in
    real space projection operators read in
  non local Contribution for L=           1  read in
    real space projection operators read in
  non local Contribution for L=           1  read in
    real space projection operators read in
  non local Contribution for L=           2  read in
    real space projection operators read in
  non local Contribution for L=           2  read in
    real space projection operators read in
  non local Contribution for L=           3  read in
    real space projection operators read in
  non local Contribution for L=           3  read in
    real space projection operators read in
    PAW grid and wavefunctions read in

   number of l-projection  operators is LMAX  =           8
   number of lm-projection operators is LMMAX =          32

 POTCAR:    PAW_PBE Bi_d 06Sep2000
   VRHFIN =Bi:
   LEXCH  = PE
   EATOM  =  1959.2045 eV,  143.9975 Ry

   TITEL  = PAW_PBE Bi_d 06Sep2000
   LULTRA =        F    use ultrasoft PP ?
   IUNSCR =        1    unscreen: 0-lin 1-nonlin 2-no
   RPACOR =    2.200    partial core radius
   POMASS =  208.980; ZVAL   =   15.000    mass and valenz
   RCORE  =    2.500    outmost cutoff radius
   RWIGS  =    3.090; RWIGS  =    1.635    wigner-seitz radius (au A)
   ENMAX  =  242.839; ENMIN  =  182.129 eV
   ICORE  =        3    local potential
   LCOR   =        T    correct aug charges
   LPAW   =        T    paw PP
   EAUG   =  442.899
   DEXC   =    0.000
   RMAX   =    2.551    core radius for proj-oper
   RAUG   =    1.300    factor for augmentation sphere
   RDEP   =    2.650    radius for radial grids
   RDEPT  =    2.039    core radius for aug-charge

   Atomic configuration
   16 entries
     n  l   j            E        occ.
     1  0  0.50    -90639.6581   2.0000
     2  0  0.50    -16282.4666   2.0000
     2  1  1.50    -13922.8286   6.0000
     3  0  0.50     -3930.4763   2.0000
     3  1  1.50     -3256.7013   6.0000
     3  2  2.50     -2581.6168  10.0000
     4  0  0.50      -902.2614   2.0000
     4  1  1.50      -681.5915   6.0000
     4  2  2.50      -429.8249  10.0000
     4  3  3.50      -152.6004  14.0000
     5  0  0.50      -157.7156   2.0000
     5  1  1.50       -95.8054   6.0000
     5  2  2.50       -27.0806  10.0000
     6  0  0.50       -14.4732   2.0000
     6  1  1.50        -4.5702   3.0000
     5  3  2.50        -2.7212   0.0000
   Description
     l       E           TYP  RCUT    TYP  RCUT
     2    -27.0805982     23  2.500
     2     -1.3605826     23  2.500
     0    -14.4732271     23  2.500
     0      6.8029130     23  2.500
     1     -4.5701651     23  2.500
     1     13.6058260     23  2.500
     3     -1.3605826      7  2.500
  local pseudopotential read in
  partial core-charges read in
  partial kinetic energy density read in
  atomic valenz-charges read in
  non local Contribution for L=           2  read in
    real space projection operators read in
  non local Contribution for L=           2  read in
    real space projection operators read in
  non local Contribution for L=           0  read in
    real space projection operators read in
  non local Contribution for L=           0  read in
    real space projection operators read in
  non local Contribution for L=           1  read in
    real space projection operators read in
  non local Contribution for L=           1  read in
    real space projection operators read in
    PAW grid and wavefunctions read in

   number of l-projection  operators is LMAX  =           6
   number of lm-projection operators is LMMAX =          18

 POTCAR:    PAW_PBE Pt 04Feb2005
   VRHFIN =Pt: s1d9
   LEXCH  = PE
   EATOM  =   729.1176 eV,   53.5886 Ry

   TITEL  = PAW_PBE Pt 04Feb2005
   LULTRA =        F    use ultrasoft PP ?
   IUNSCR =        1    unscreen: 0-lin 1-nonlin 2-no
   RPACOR =    2.330    partial core radius
   POMASS =  195.080; ZVAL   =   10.000    mass and valenz
   RCORE  =    2.600    outmost cutoff radius
   RWIGS  =    2.750; RWIGS  =    1.455    wigner-seitz radius (au A)
   ENMAX  =  230.283; ENMIN  =  172.712 eV
   ICORE  =        3    local potential
   LCOR   =        T    correct aug charges
   LPAW   =        T    paw PP
   EAUG   =  358.966
   DEXC   =    0.000
   RMAX   =    2.658    core radius for proj-oper
   RAUG   =    1.300    factor for augmentation sphere
   RDEP   =    2.761    radius for radial grids
   RDEPT  =    2.203    core radius for aug-charge

   Atomic configuration
   16 entries
     n  l   j            E        occ.
     1  0  0.50    -78401.1885   2.0000
     2  0  0.50    -13770.7750   2.0000
     2  1  1.50    -11931.0468   6.0000
     3  0  0.50     -3234.7234   2.0000
     3  1  1.50     -2699.2216   6.0000
     3  2  2.50     -2119.5714  10.0000
     4  0  0.50      -695.1528   2.0000
     4  1  1.50      -519.6034   6.0000
     4  2  2.50      -306.6786  10.0000
     4  3  3.50       -70.1041  14.0000
     5  0  0.50      -101.7747   2.0000
     5  1  1.50       -55.9873   6.0000
     5  2  2.50        -6.1423   9.0000
     6  0  0.50        -5.6573   1.0000
     6  1  1.50        -6.8029   0.0000
     5  3  2.50        -1.3606   0.0000
   Description
     l       E           TYP  RCUT    TYP  RCUT
     2     -6.1423404     23  2.500
     2     -7.5029230     23  2.500
     0     -5.6573207     23  2.500
     0      0.7416693     23  2.500
     1     -2.7211652     23  2.600
     1     20.4087390     23  2.600
     3     -1.3605826     23  2.500
  local pseudopotential read in
  partial core-charges read in
  partial kinetic energy density read in
  atomic valenz-charges read in
  non local Contribution for L=           2  read in
    real space projection operators read in
  non local Contribution for L=           2  read in
    real space projection operators read in
  non local Contribution for L=           0  read in
    real space projection operators read in
  non local Contribution for L=           0  read in
    real space projection operators read in
  non local Contribution for L=           1  read in
    real space projection operators read in
  non local Contribution for L=           1  read in
    real space projection operators read in
    PAW grid and wavefunctions read in

   number of l-projection  operators is LMAX  =           6
   number of lm-projection operators is LMMAX =          18

 WARNING: PSMAXN for non-local potential too small
          PSMAXN should be >   13.5545592237991       NTYP=           1

 -----------------------------------------------------------------------------
|                                                                             |
|  ADVICE TO THIS USER RUNNING 'VASP/VAMP'   (HEAR YOUR MASTER'S VOICE ...):  |
|                                                                             |
|      You enforced a specific xc-type in the INCAR file,                     |
|      a different type was found on the POTCAR file                          |
|          I HOPE YOU KNOW, WHAT YOU ARE  DOING                               |
|                                                                             |
 -----------------------------------------------------------------------------

  PAW_PBE Th 07Sep2000                  :
 energy of atom  1       EATOM= -984.7553
 kinetic energy error for atom=    0.0005 (will be added to EATOM!!)
  PAW_PBE Bi_d 06Sep2000                :
 energy of atom  2       EATOM=-1959.2045
 kinetic energy error for atom=    0.0012 (will be added to EATOM!!)
  PAW_PBE Pt 04Feb2005                  :
 energy of atom  3       EATOM= -729.1176
 kinetic energy error for atom=    0.0010 (will be added to EATOM!!)


 POSCAR: Th1 Bi1 Pt1
  positions in direct lattice
  No initial velocities read in
 exchange correlation table for  LEXCH =       14
   RHO(1)=    0.500       N(1)  =     2000
   RHO(2)=  100.500       N(2)  =     4000



--------------------------------------------------------------------------------------------------------


 ion  position               nearest neighbor table
   1  0.250  0.250  0.250-   3 2.84   3 2.84   3 2.84   3 2.84   2 3.28   2 3.28   2 3.28   2 3.28
                             2 3.28   2 3.28
   2  0.750  0.750  0.750-   3 2.84   3 2.84   3 2.84   3 2.84   1 3.28   1 3.28   1 3.28   1 3.28
                             1 3.28   1 3.28
   3  0.000  0.000  0.000-   2 2.84   2 2.84   2 2.84   1 2.84   2 2.84   1 2.84   1 2.84   1 2.84


  LATTYP: Found a face centered cubic cell.
 ALAT       =     6.5639749681

  Lattice vectors:

 A1 = (   0.0000000000,   3.2819874840,   3.2819874840)
 A2 = (   3.2819874840,   0.0000000000,   3.2819874840)
 A3 = (   3.2819874840,   3.2819874840,   0.0000000000)


Analysis of symmetry for initial positions (statically):
=====================================================================
 Subroutine PRICEL returns:
 Original cell was already a primitive cell.


 Routine SETGRP: Setting up the symmetry group for a
 face centered cubic supercell.


 Subroutine GETGRP returns: Found 24 space group operations
 (whereof 24 operations were pure point group operations)
 out of a pool of 48 trial point group operations.


The static configuration has the point symmetry T_d .


Analysis of symmetry for dynamics (positions and initial velocities):
=====================================================================
 Subroutine PRICEL returns:
 Original cell was already a primitive cell.


 Routine SETGRP: Setting up the symmetry group for a
 face centered cubic supercell.


 Subroutine GETGRP returns: Found 24 space group operations
 (whereof 24 operations were pure point group operations)
 out of a pool of 48 trial point group operations.


The dynamic configuration has the point symmetry T_d .


 Subroutine INISYM returns: Found 24 space group operations
 (whereof 24 operations are pure point group operations),
 and found     1 'primitive' translations


----------------------------------------------------------------------------------------

                                     Primitive cell

  volume of cell :      70.7035

  direct lattice vectors                    reciprocal lattice vectors
     0.000000000  3.281987484  3.281987484    -0.152346711  0.152346711  0.152346711
     3.281987484  0.000000000  3.281987484     0.152346711 -0.152346711  0.152346711
     3.281987484  3.281987484  0.000000000     0.152346711  0.152346711 -0.152346711

  length of vectors
     4.641431211  4.641431211  4.641431211     0.263872244  0.263872244  0.263872244

  position of ions in fractional coordinates (direct lattice)
     0.250000000  0.250000000  0.250000000
     0.750000000  0.750000000  0.750000000
     0.000000000  0.000000000  0.000000000

  ion indices of the primitive-cell ions
   primitive index   ion index
                 1           1
                 2           2
                 3           3

----------------------------------------------------------------------------------------



 KPOINTS: KPOINTS

Automatic generation of k-mesh.
Space group operators:
 irot       det(A)        alpha          n_x          n_y          n_z        tau_x        tau_y        tau_z
    1     1.000000     0.000000     1.000000     0.000000     0.000000     0.000000     0.000000     0.000000
    2     1.000000   120.000000    -0.577350    -0.577350    -0.577350     0.000000     0.000000     0.000000
    3     1.000000   120.000000     0.577350     0.577350     0.577350     0.000000     0.000000     0.000000
    4    -1.000000    90.000000     0.000000     0.000000    -1.000000     0.000000     0.000000     0.000000
    5    -1.000000   180.000000     0.000000     0.707107     0.707107     0.000000     0.000000     0.000000
    6    -1.000000    90.000000     0.000000     1.000000     0.000000     0.000000     0.000000     0.000000
    7     1.000000   180.000000     0.000000     0.000000    -1.000000     0.000000     0.000000     0.000000
    8     1.000000   120.000000    -0.577350     0.577350     0.577350     0.000000     0.000000     0.000000
    9     1.000000   120.000000    -0.577350     0.577350    -0.577350     0.000000     0.000000     0.000000
   10    -1.000000    90.000000     0.000000     0.000000     1.000000     0.000000     0.000000     0.000000
   11    -1.000000    90.000000    -1.000000    -0.000000    -0.000000     0.000000     0.000000     0.000000
   12    -1.000000   180.000000     0.707107     0.000000     0.707107     0.000000     0.000000     0.000000
   13     1.000000   120.000000     0.577350    -0.577350     0.577350     0.000000     0.000000     0.000000
   14     1.000000   120.000000    -0.577350    -0.577350     0.577350     0.000000     0.000000     0.000000
   15     1.000000   180.000000     1.000000     0.000000     0.000000     0.000000     0.000000     0.000000
   16    -1.000000    90.000000     0.000000    -1.000000     0.000000     0.000000     0.000000     0.000000
   17    -1.000000   180.000000     0.707107     0.707107     0.000000     0.000000     0.000000     0.000000
   18    -1.000000    90.000000     1.000000     0.000000    -0.000000     0.000000     0.000000     0.000000
   19     1.000000   120.000000     0.577350    -0.577350    -0.577350     0.000000     0.000000     0.000000
   20     1.000000   180.000000     0.000000    -1.000000    -0.000000     0.000000     0.000000     0.000000
   21     1.000000   120.000000     0.577350     0.577350    -0.577350     0.000000     0.000000     0.000000
   22    -1.000000   180.000000     0.000000    -0.707107     0.707107     0.000000     0.000000     0.000000
   23    -1.000000   180.000000     0.707107    -0.707107    -0.000000     0.000000     0.000000     0.000000
   24    -1.000000   180.000000    -0.707107     0.000000     0.707107     0.000000     0.000000     0.000000

 Subroutine IBZKPT returns following result:
 ===========================================

 Found     84 irreducible k-points:

 Following reciprocal coordinates:
            Coordinates               Weight
  0.000000  0.000000  0.000000      1.000000
  0.076923  0.000000 -0.000000      8.000000
  0.153846  0.000000 -0.000000      8.000000
  0.230769 -0.000000 -0.000000      8.000000
  0.307692  0.000000 -0.000000      8.000000
  0.384615 -0.000000  0.000000      8.000000
  0.461538 -0.000000  0.000000      8.000000
  0.076923  0.076923 -0.000000      6.000000
  0.153846  0.076923 -0.000000     24.000000
  0.230769  0.076923 -0.000000     24.000000
  0.307692  0.076923  0.000000     24.000000
  0.384615  0.076923 -0.000000     24.000000
  0.461538  0.076923 -0.000000     24.000000
 -0.461538  0.076923  0.000000     24.000000
 -0.384615  0.076923  0.000000     24.000000
 -0.307692  0.076923 -0.000000     24.000000
 -0.230769  0.076923  0.000000     24.000000
 -0.153846  0.076923  0.000000     24.000000
 -0.076923  0.076923  0.000000     12.000000
  0.153846  0.153846 -0.000000      6.000000
  0.230769  0.153846  0.000000     24.000000
  0.307692  0.153846 -0.000000     24.000000
  0.384615  0.153846 -0.000000     24.000000
  0.461538  0.153846  0.000000     24.000000
 -0.461538  0.153846 -0.000000     24.000000
 -0.384615  0.153846  0.000000     24.000000
 -0.307692  0.153846 -0.000000     24.000000
 -0.230769  0.153846 -0.000000     24.000000
 -0.153846  0.153846  0.000000     12.000000
  0.230769  0.230769 -0.000000      6.000000
  0.307692  0.230769 -0.000000     24.000000
  0.384615  0.230769  0.000000     24.000000
  0.461538  0.230769  0.000000     24.000000
 -0.461538  0.230769 -0.000000     24.000000
 -0.384615  0.230769  0.000000     24.000000
 -0.307692  0.230769  0.000000     24.000000
 -0.230769  0.230769  0.000000     12.000000
  0.307692  0.307692 -0.000000      6.000000
  0.384615  0.307692  0.000000     24.000000
  0.461538  0.307692  0.000000     24.000000
 -0.461538  0.307692  0.000000     24.000000
 -0.384615  0.307692 -0.000000     24.000000
 -0.307692  0.307692  0.000000     12.000000
  0.384615  0.384615 -0.000000      6.000000
  0.461538  0.384615  0.000000     24.000000
 -0.461538  0.384615  0.000000     24.000000
 -0.384615  0.384615 -0.000000     12.000000
  0.461538  0.461538 -0.000000      6.000000
 -0.461538  0.461538 -0.000000     12.000000
  0.230769  0.153846  0.076923     24.000000
  0.307692  0.153846  0.076923     48.000000
  0.384615  0.153846  0.076923     48.000000
  0.461538  0.153846  0.076923     48.000000
 -0.461538  0.153846  0.076923     48.000000
  0.307692  0.230769  0.076923     24.000000
  0.384615  0.230769  0.076923     48.000000
  0.461538  0.230769  0.076923     48.000000
 -0.461538  0.230769  0.076923     48.000000
 -0.384615  0.230769  0.076923     48.000000
 -0.307692  0.230769  0.076923     48.000000
 -0.230769  0.230769  0.076923     48.000000
 -0.153846  0.230769  0.076923     24.000000
  0.384615  0.307692  0.076923     24.000000
  0.461538  0.307692  0.076923     48.000000
 -0.461538  0.307692  0.076923     48.000000
 -0.384615  0.307692  0.076923     48.000000
 -0.307692  0.307692  0.076923     48.000000
 -0.230769  0.307692  0.076923     24.000000
  0.461538  0.384615  0.076923     24.000000
 -0.461538  0.384615  0.076923     48.000000
 -0.384615  0.384615  0.076923     48.000000
 -0.307692  0.384615  0.076923     24.000000
 -0.461538  0.461538  0.076923     24.000000
 -0.384615  0.461538  0.076923     24.000000
  0.461538  0.307692  0.153846     24.000000
 -0.461538  0.307692  0.153846     48.000000
 -0.384615  0.307692  0.153846     48.000000
 -0.461538  0.384615  0.153846     24.000000
 -0.384615  0.384615  0.153846     48.000000
 -0.307692  0.384615  0.153846     48.000000
 -0.230769  0.384615  0.153846     24.000000
 -0.384615  0.461538  0.153846     24.000000
 -0.307692  0.461538  0.153846     24.000000
 -0.307692  0.461538  0.230769     24.000000

 Following cartesian coordinates:
            Coordinates               Weight
  0.000000  0.000000  0.000000      1.000000
 -0.011230  0.011230  0.011230      8.000000
 -0.022460  0.022460  0.022460      8.000000
 -0.033690  0.033690  0.033690      8.000000
 -0.044920  0.044920  0.044920      8.000000
 -0.056151  0.056151  0.056151      8.000000
 -0.067381  0.067381  0.067381      8.000000
  0.000000 -0.000000  0.022460      6.000000
 -0.011230  0.011230  0.033690     24.000000
 -0.022460  0.022460  0.044920     24.000000
 -0.033690  0.033690  0.056151     24.000000
 -0.044920  0.044920  0.067381     24.000000
 -0.056151  0.056151  0.078611     24.000000
  0.078611 -0.078611 -0.056151     24.000000
  0.067381 -0.067381 -0.044920     24.000000
  0.056151 -0.056151 -0.033690     24.000000
  0.044920 -0.044920 -0.022460     24.000000
  0.033690 -0.033690 -0.011230     24.000000
  0.022460 -0.022460  0.000000     12.000000
 -0.000000  0.000000  0.044920      6.000000
 -0.011230  0.011230  0.056151     24.000000
 -0.022460  0.022460  0.067381     24.000000
 -0.033690  0.033690  0.078611     24.000000
 -0.044920  0.044920  0.089841     24.000000
  0.089841 -0.089841 -0.044920     24.000000
  0.078611 -0.078611 -0.033690     24.000000
  0.067381 -0.067381 -0.022460     24.000000
  0.056151 -0.056151 -0.011230     24.000000
  0.044920 -0.044920  0.000000     12.000000
 -0.000000  0.000000  0.067381      6.000000
 -0.011230  0.011230  0.078611     24.000000
 -0.022460  0.022460  0.089841     24.000000
 -0.033690  0.033690  0.101071     24.000000
  0.101071 -0.101071 -0.033690     24.000000
  0.089841 -0.089841 -0.022460     24.000000
  0.078611 -0.078611 -0.011230     24.000000
  0.067381 -0.067381  0.000000     12.000000
 -0.000000  0.000000  0.089841      6.000000
 -0.011230  0.011230  0.101071     24.000000
 -0.022460  0.022460  0.112301     24.000000
  0.112301 -0.112301 -0.022460     24.000000
  0.101071 -0.101071 -0.011230     24.000000
  0.089841 -0.089841  0.000000     12.000000
 -0.000000  0.000000  0.112301      6.000000
 -0.011230  0.011230  0.123531     24.000000
  0.123531 -0.123531 -0.011230     24.000000
  0.112301 -0.112301  0.000000     12.000000
  0.000000 -0.000000  0.134761      6.000000
  0.134761 -0.134761  0.000000     12.000000
 -0.000000  0.022460  0.044920     24.000000
 -0.011230  0.033690  0.056151     48.000000
 -0.022460  0.044920  0.067381     48.000000
 -0.033690  0.056151  0.078611     48.000000
  0.101071 -0.078611 -0.056151     48.000000
  0.000000  0.022460  0.067381     24.000000
 -0.011230  0.033690  0.078611     48.000000
 -0.022460  0.044920  0.089841     48.000000
  0.112301 -0.089841 -0.044920     48.000000
  0.101071 -0.078611 -0.033690     48.000000
  0.089841 -0.067381 -0.022460     48.000000
  0.078611 -0.056151 -0.011230     48.000000
  0.067381 -0.044920  0.000000     24.000000
 -0.000000  0.022460  0.089841     24.000000
 -0.011230  0.033690  0.101071     48.000000
  0.123531 -0.101071 -0.033690     48.000000
  0.112301 -0.089841 -0.022460     48.000000
  0.101071 -0.078611 -0.011230     48.000000
  0.089841 -0.067381 -0.000000     24.000000
  0.000000  0.022460  0.112301     24.000000
  0.134761 -0.112301 -0.022460     48.000000
  0.123531 -0.101071 -0.011230     48.000000
  0.112301 -0.089841  0.000000     24.000000
  0.145991 -0.123531 -0.011230     24.000000
  0.134761 -0.112301 -0.000000     24.000000
  0.000000  0.044920  0.089841     24.000000
  0.134761 -0.089841 -0.044920     48.000000
  0.123531 -0.078611 -0.033690     48.000000
  0.145991 -0.101071 -0.033690     24.000000
  0.134761 -0.089841 -0.022460     48.000000
  0.123531 -0.078611 -0.011230     48.000000
  0.112301 -0.067381 -0.000000     24.000000
  0.145991 -0.101071 -0.011230     24.000000
  0.134761 -0.089841  0.000000     24.000000
  0.145991 -0.078611 -0.011230     24.000000



--------------------------------------------------------------------------------------------------------




 Dimension of arrays:
   k-points           NKPTS =     84   k-points in BZ     NKDIM =     84   number of bands    NBANDS=     24
   number of dos      NEDOS =    301   number of ions     NIONS =      3
   non local maximal  LDIM  =      8   non local SUM 2l+1 LMDIM =     32
   total plane-waves  NPLWV =  64000
   max r-space proj   IRMAX =      1   max aug-charges    IRDMAX= 438748
   dimension x,y,z NGX =    40 NGY =   40 NGZ =   40
   dimension x,y,z NGXF=    80 NGYF=   80 NGZF=   80
   support grid    NGXF=   160 NGYF=  160 NGZF=  160
   ions per type =               1   1   1
   NGX,Y,Z   is equivalent  to a cutoff of  14.33, 14.33, 14.33 a.u.
   NGXF,Y,Z  is equivalent  to a cutoff of  28.65, 28.65, 28.65 a.u.

 SYSTEM =  unknown system
 POSCAR =  Th1 Bi1 Pt1

 Startparameter for this run:
   NWRITE =      2    write-flag & timer
   PREC   = acc       normal or accurate (medium, high low for compatibility)
   ISTART =      0    job   : 0-new  1-cont  2-samecut
   ICHARG =      2    charge: 1-file 2-atom 10-const
   ISPIN  =      1    spin polarized calculation?
   LNONCOLLINEAR =      F non collinear calculations
   LSORBIT =      F    spin-orbit coupling
   INIWAV =      1    electr: 0-lowe 1-rand  2-diag
   LASPH  =      F    aspherical Exc in radial PAW
   METAGGA=      F    non-selfconsistent MetaGGA calc.

 Electronic Relaxation 1
   ENCUT  =  700.0 eV  51.45 Ry    7.17 a.u.  10.01 10.01 10.01*2*pi/ulx,y,z
   ENINI  =  700.0     initial cutoff
   ENAUG  =  535.4 eV  augmentation charge cutoff
   NELM   =     60;   NELMIN=  5; NELMDL= -5     # of ELM steps
   EDIFF  = 0.1E-06   stopping-criterion for ELM
   LREAL  =      F    real-space projection
   NLSPLINE    = F    spline interpolate recip. space projectors
   LCOMPAT=      F    compatible to vasp.4.4
   GGA_COMPAT  = T    GGA compatible to vasp.4.4-vasp.4.6
   LMAXPAW     = -100 max onsite density
   LMAXMIX     =    2 max onsite mixed and CHGCAR
   VOSKOWN=      0    Vosko Wilk Nusair interpolation
   ROPT   =    0.00000   0.00000   0.00000
 Ionic relaxation
   EDIFFG = 0.1E-05   stopping-criterion for IOM
   NSW    =      0    number of steps for IOM
   NBLOCK =      1;   KBLOCK =      1    inner block; outer block
   IBRION =     -1    ionic relax: 0-MD 1-quasi-New 2-CG
   NFREE  =      0    steps in history (QN), initial steepest desc. (CG)
   ISIF   =      3    stress and relaxation
   IWAVPR =     10    prediction:  0-non 1-charg 2-wave 3-comb
   ISYM   =      2    0-nonsym 1-usesym 2-fastsym
   LCORR  =      T    Harris-Foulkes like correction to forces

   POTIM  = 0.5000    time-step for ionic-motion
   TEIN   =    0.0    initial temperature
   TEBEG  =    0.0;   TEEND  =   0.0 temperature during run
   SMASS  =  -3.00    Nose mass-parameter (am)
   estimated Nose-frequenzy (Omega)   =  0.10E-29 period in steps = 0.13E+47 mass=  -0.492E-27a.u.
   SCALEE = 1.0000    scale energy and forces
   NPACO  =    256;   APACO  = 16.0  distance and # of slots for P.C.
   PSTRESS=    0.0 pullay stress

  Mass of Ions in am
   POMASS = 232.04208.98195.08
  Ionic Valenz
   ZVAL   =  12.00 15.00 10.00
  Atomic Wigner-Seitz radii
   RWIGS  =  -1.00 -1.00 -1.00
  virtual crystal weights
   VCA    =   1.00  1.00  1.00
   NELECT =      37.0000    total number of electrons
   NUPDOWN=      -1.0000    fix difference up-down

 DOS related values:
   EMIN   =  10.00;   EMAX   =-10.00  energy-range for DOS
   EFERMI =   0.00
   ISMEAR =     0;   SIGMA  =   0.01  broadening in eV -4-tet -1-fermi 0-gaus

 Electronic relaxation 2 (details)
   IALGO  =     38    algorithm
   LDIAG  =      T    sub-space diagonalisation (order eigenvalues)
   LSUBROT=      F    optimize rotation matrix (better conditioning)
   TURBO    =      0    0=normal 1=particle mesh
   IRESTART =      0    0=no restart 2=restart with 2 vectors
   NREBOOT  =      0    no. of reboots
   NMIN     =      0    reboot dimension
   EREF     =   0.00    reference energy to select bands
   IMIX   =      4    mixing-type and parameters
     AMIX     =   0.40;   BMIX     =  1.00
     AMIX_MAG =   1.60;   BMIX_MAG =  1.00
     AMIN     =   0.10
     WC   =   100.;   INIMIX=   1;  MIXPRE=   1;  MAXMIX= -45

 Intra band minimization:
   WEIMIN = 0.0000     energy-eigenvalue tresh-hold
   EBREAK =  0.10E-08  absolut break condition
   DEPER  =   0.30     relativ break condition

   TIME   =   0.40     timestep for ELM

  volume/ion in A,a.u.               =      23.57       159.04
  Fermi-wavevector in a.u.,A,eV,Ry     =   1.319254  2.493029 23.680010  1.740432
  Thomas-Fermi vector in A             =   2.449166

 Write flags
   LWAVE        =      F    write WAVECAR
   LDOWNSAMPLE  =      F    k-point downsampling of WAVECAR
   LCHARG       =      F    write CHGCAR
   LVTOT        =      F    write LOCPOT, total local potential
   LVHAR        =      F    write LOCPOT, Hartree potential only
   LELF         =      F    write electronic localiz. function (ELF)
   LORBIT       =      0    0 simple, 1 ext, 2 COOP (PROOUT), +10 PAW based schemes


 Dipole corrections
   LMONO  =      F    monopole corrections only (constant potential shift)
   LDIPOL =      F    correct potential (dipole corrections)
   IDIPOL =      0    1-x, 2-y, 3-z, 4-all directions
   EPSILON=  1.0000000 bulk dielectric constant

 Exchange correlation treatment:
   GGA     =    PS    GGA type
   LEXCH   =    14    internal setting for exchange type
   VOSKOWN=      0    Vosko Wilk Nusair interpolation
   LHFCALC =     F    Hartree Fock is set to
   LHFONE  =     F    Hartree Fock one center treatment
   AEXX    =    0.0000 exact exchange contribution

 Linear response parameters
   LEPSILON=     F    determine dielectric tensor
   LRPA    =     F    only Hartree local field effects (RPA)
   LNABLA  =     F    use nabla operator in PAW spheres
   LVEL    =     F    velocity operator in full k-point grid
   LINTERFAST=   F  fast interpolation
   KINTER  =     0    interpolate to denser k-point grid
   CSHIFT  =0.1000    complex shift for real part using Kramers Kronig
   OMEGAMAX=  -1.0    maximum frequency
   DEG_THRESHOLD= 0.2000000E-02 threshold for treating states as degnerate
   RTIME   =   -0.100 relaxation time in fs
  (WPLASMAI=    0.000 imaginary part of plasma frequency in eV, 0.658/RTIME)
   DFIELD  = 0.0000000 0.0000000 0.0000000 field for delta impulse in time

 Orbital magnetization related:
   ORBITALMAG=     F  switch on orbital magnetization
   LCHIMAG   =     F  perturbation theory with respect to B field
   DQ        =  0.001000  dq finite difference perturbation B field
   LLRAUG    =     F  two centre corrections for induced B field



--------------------------------------------------------------------------------------------------------


 Static calculation
 charge density and potential will be updated during run
 non-spin polarized calculation
 Variant of blocked Davidson
 Davidson routine will perform the subspace rotation
 perform sub-space diagonalisation
    after iterative eigenvector-optimisation
 modified Broyden-mixing scheme, WC =      100.0
 initial mixing is a Kerker type mixing with AMIX =  0.4000 and BMIX =      1.0000
 Hartree-type preconditioning will be used
 using additional bands            5
 reciprocal scheme for non local part
 use partial core corrections
 calculate Harris-corrections to forces
   (improved forces if not selfconsistent)
 use gradient corrections
 use of overlap-Matrix (Vanderbilt PP)
 Gauss-broadening in eV      SIGMA  =   0.01


--------------------------------------------------------------------------------------------------------


  energy-cutoff  :      700.00
  volume of cell :       70.70
      direct lattice vectors                 reciprocal lattice vectors
     0.000000000  3.281987484  3.281987484    -0.152346711  0.152346711  0.152346711
     3.281987484  0.000000000  3.281987484     0.152346711 -0.152346711  0.152346711
     3.281987484  3.281987484  0.000000000     0.152346711  0.152346711 -0.152346711

  length of vectors
     4.641431211  4.641431211  4.641431211     0.263872244  0.263872244  0.263872244



 k-points in units of 2pi/SCALE and weight: KPOINTS
   0.00000000  0.00000000  0.00000000       0.000
  -0.01123011  0.01123011  0.01123011       0.004
  -0.02246022  0.02246022  0.02246022       0.004
  -0.03369033  0.03369033  0.03369033       0.004
  -0.04492043  0.04492043  0.04492043       0.004
  -0.05615054  0.05615054  0.05615054       0.004
  -0.06738065  0.06738065  0.06738065       0.004
   0.00000000 -0.00000000  0.02246022       0.003
  -0.01123011  0.01123011  0.03369033       0.011
  -0.02246022  0.02246022  0.04492043       0.011
  -0.03369033  0.03369033  0.05615054       0.011
  -0.04492043  0.04492043  0.06738065       0.011
  -0.05615054  0.05615054  0.07861076       0.011
   0.07861076 -0.07861076 -0.05615054       0.011
   0.06738065 -0.06738065 -0.04492043       0.011
   0.05615054 -0.05615054 -0.03369033       0.011
   0.04492043 -0.04492043 -0.02246022       0.011
   0.03369033 -0.03369033 -0.01123011       0.011
   0.02246022 -0.02246022  0.00000000       0.005
  -0.00000000  0.00000000  0.04492043       0.003
  -0.01123011  0.01123011  0.05615054       0.011
  -0.02246022  0.02246022  0.06738065       0.011
  -0.03369033  0.03369033  0.07861076       0.011
  -0.04492043  0.04492043  0.08984087       0.011
   0.08984087 -0.08984087 -0.04492043       0.011
   0.07861076 -0.07861076 -0.03369033       0.011
   0.06738065 -0.06738065 -0.02246022       0.011
   0.05615054 -0.05615054 -0.01123011       0.011
   0.04492043 -0.04492043  0.00000000       0.005
  -0.00000000  0.00000000  0.06738065       0.003
  -0.01123011  0.01123011  0.07861076       0.011
  -0.02246022  0.02246022  0.08984087       0.011
  -0.03369033  0.03369033  0.10107098       0.011
   0.10107098 -0.10107098 -0.03369033       0.011
   0.08984087 -0.08984087 -0.02246022       0.011
   0.07861076 -0.07861076 -0.01123011       0.011
   0.06738065 -0.06738065  0.00000000       0.005
  -0.00000000  0.00000000  0.08984087       0.003
  -0.01123011  0.01123011  0.10107098       0.011
  -0.02246022  0.02246022  0.11230109       0.011
   0.11230109 -0.11230109 -0.02246022       0.011
   0.10107098 -0.10107098 -0.01123011       0.011
   0.08984087 -0.08984087  0.00000000       0.005
  -0.00000000  0.00000000  0.11230109       0.003
  -0.01123011  0.01123011  0.12353119       0.011
   0.12353119 -0.12353119 -0.01123011       0.011
   0.11230109 -0.11230109  0.00000000       0.005
   0.00000000 -0.00000000  0.13476130       0.003
   0.13476130 -0.13476130  0.00000000       0.005
  -0.00000000  0.02246022  0.04492043       0.011
  -0.01123011  0.03369033  0.05615054       0.022
  -0.02246022  0.04492043  0.06738065       0.022
  -0.03369033  0.05615054  0.07861076       0.022
   0.10107098 -0.07861076 -0.05615054       0.022
   0.00000000  0.02246022  0.06738065       0.011
  -0.01123011  0.03369033  0.07861076       0.022
  -0.02246022  0.04492043  0.08984087       0.022
   0.11230109 -0.08984087 -0.04492043       0.022
   0.10107098 -0.07861076 -0.03369033       0.022
   0.08984087 -0.06738065 -0.02246022       0.022
   0.07861076 -0.05615054 -0.01123011       0.022
   0.06738065 -0.04492043  0.00000000       0.011
  -0.00000000  0.02246022  0.08984087       0.011
  -0.01123011  0.03369033  0.10107098       0.022
   0.12353119 -0.10107098 -0.03369033       0.022
   0.11230109 -0.08984087 -0.02246022       0.022
   0.10107098 -0.07861076 -0.01123011       0.022
   0.08984087 -0.06738065 -0.00000000       0.011
   0.00000000  0.02246022  0.11230109       0.011
   0.13476130 -0.11230109 -0.02246022       0.022
   0.12353119 -0.10107098 -0.01123011       0.022
   0.11230109 -0.08984087  0.00000000       0.011
   0.14599141 -0.12353119 -0.01123011       0.011
   0.13476130 -0.11230109 -0.00000000       0.011
   0.00000000  0.04492043  0.08984087       0.011
   0.13476130 -0.08984087 -0.04492043       0.022
   0.12353119 -0.07861076 -0.03369033       0.022
   0.14599141 -0.10107098 -0.03369033       0.011
   0.13476130 -0.08984087 -0.02246022       0.022
   0.12353119 -0.07861076 -0.01123011       0.022
   0.11230109 -0.06738065 -0.00000000       0.011
   0.14599141 -0.10107098 -0.01123011       0.011
   0.13476130 -0.08984087  0.00000000       0.011
   0.14599141 -0.07861076 -0.01123011       0.011

 k-points in reciprocal lattice and weights: KPOINTS
   0.00000000  0.00000000  0.00000000       0.000
   0.07692308  0.00000000 -0.00000000       0.004
   0.15384615  0.00000000 -0.00000000       0.004
   0.23076923 -0.00000000 -0.00000000       0.004
   0.30769231  0.00000000 -0.00000000       0.004
   0.38461538 -0.00000000  0.00000000       0.004
   0.46153846 -0.00000000  0.00000000       0.004
   0.07692308  0.07692308 -0.00000000       0.003
   0.15384615  0.07692308 -0.00000000       0.011
   0.23076923  0.07692308 -0.00000000       0.011
   0.30769231  0.07692308  0.00000000       0.011
   0.38461538  0.07692308 -0.00000000       0.011
   0.46153846  0.07692308 -0.00000000       0.011
  -0.46153846  0.07692308  0.00000000       0.011
  -0.38461538  0.07692308  0.00000000       0.011
  -0.30769231  0.07692308 -0.00000000       0.011
  -0.23076923  0.07692308  0.00000000       0.011
  -0.15384615  0.07692308  0.00000000       0.011
  -0.07692308  0.07692308  0.00000000       0.005
   0.15384615  0.15384615 -0.00000000       0.003
   0.23076923  0.15384615  0.00000000       0.011
   0.30769231  0.15384615 -0.00000000       0.011
   0.38461538  0.15384615 -0.00000000       0.011
   0.46153846  0.15384615  0.00000000       0.011
  -0.46153846  0.15384615 -0.00000000       0.011
  -0.38461538  0.15384615  0.00000000       0.011
  -0.30769231  0.15384615 -0.00000000       0.011
  -0.23076923  0.15384615 -0.00000000       0.011
  -0.15384615  0.15384615  0.00000000       0.005
   0.23076923  0.23076923 -0.00000000       0.003
   0.30769231  0.23076923 -0.00000000       0.011
   0.38461538  0.23076923  0.00000000       0.011
   0.46153846  0.23076923  0.00000000       0.011
  -0.46153846  0.23076923 -0.00000000       0.011
  -0.38461538  0.23076923  0.00000000       0.011
  -0.30769231  0.23076923  0.00000000       0.011
  -0.23076923  0.23076923  0.00000000       0.005
   0.30769231  0.30769231 -0.00000000       0.003
   0.38461538  0.30769231  0.00000000       0.011
   0.46153846  0.30769231  0.00000000       0.011
  -0.46153846  0.30769231  0.00000000       0.011
  -0.38461538  0.30769231 -0.00000000       0.011
  -0.30769231  0.30769231  0.00000000       0.005
   0.38461538  0.38461538 -0.00000000       0.003
   0.46153846  0.38461538  0.00000000       0.011
  -0.46153846  0.38461538  0.00000000       0.011
  -0.38461538  0.38461538 -0.00000000       0.005
   0.46153846  0.46153846 -0.00000000       0.003
  -0.46153846  0.46153846 -0.00000000       0.005
   0.23076923  0.15384615  0.07692308       0.011
   0.30769231  0.15384615  0.07692308       0.022
   0.38461538  0.15384615  0.07692308       0.022
   0.46153846  0.15384615  0.07692308       0.022
  -0.46153846  0.15384615  0.07692308       0.022
   0.30769231  0.23076923  0.07692308       0.011
   0.38461538  0.23076923  0.07692308       0.022
   0.46153846  0.23076923  0.07692308       0.022
  -0.46153846  0.23076923  0.07692308       0.022
  -0.38461538  0.23076923  0.07692308       0.022
  -0.30769231  0.23076923  0.07692308       0.022
  -0.23076923  0.23076923  0.07692308       0.022
  -0.15384615  0.23076923  0.07692308       0.011
   0.38461538  0.30769231  0.07692308       0.011
   0.46153846  0.30769231  0.07692308       0.022
  -0.46153846  0.30769231  0.07692308       0.022
  -0.38461538  0.30769231  0.07692308       0.022
  -0.30769231  0.30769231  0.07692308       0.022
  -0.23076923  0.30769231  0.07692308       0.011
   0.46153846  0.38461538  0.07692308       0.011
  -0.46153846  0.38461538  0.07692308       0.022
  -0.38461538  0.38461538  0.07692308       0.022
  -0.30769231  0.38461538  0.07692308       0.011
  -0.46153846  0.46153846  0.07692308       0.011
  -0.38461538  0.46153846  0.07692308       0.011
   0.46153846  0.30769231  0.15384615       0.011
  -0.46153846  0.30769231  0.15384615       0.022
  -0.38461538  0.30769231  0.15384615       0.022
  -0.46153846  0.38461538  0.15384615       0.011
  -0.38461538  0.38461538  0.15384615       0.022
  -0.30769231  0.38461538  0.15384615       0.022
  -0.23076923  0.38461538  0.15384615       0.011
  -0.38461538  0.46153846  0.15384615       0.011
  -0.30769231  0.46153846  0.15384615       0.011
  -0.30769231  0.46153846  0.23076923       0.011

 position of ions in fractional coordinates (direct lattice)
   0.25000000  0.25000000  0.25000000
   0.75000000  0.75000000  0.75000000
   0.00000000  0.00000000  0.00000000

 position of ions in cartesian coordinates  (Angst):
   1.64099374  1.64099374  1.64099374
   4.92298123  4.92298123  4.92298123
   0.00000000  0.00000000  0.00000000



--------------------------------------------------------------------------------------------------------


 k-point  1 :   0.0000 0.0000 0.0000  plane waves:    2975
 k-point  2 :   0.0769 0.0000-0.0000  plane waves:    2954
 k-point  3 :   0.1538 0.0000-0.0000  plane waves:    2963
 k-point  4 :   0.2308-0.0000-0.0000  plane waves:    2947
 k-point  5 :   0.3077 0.0000-0.0000  plane waves:    2950
 k-point  6 :   0.3846-0.0000 0.0000  plane waves:    2968
 k-point  7 :   0.4615-0.0000 0.0000  plane waves:    2962
 k-point  8 :   0.0769 0.0769-0.0000  plane waves:    2967
 k-point  9 :   0.1538 0.0769-0.0000  plane waves:    2960
 k-point 10 :   0.2308 0.0769-0.0000  plane waves:    2952
 k-point 11 :   0.3077 0.0769 0.0000  plane waves:    2961
 k-point 12 :   0.3846 0.0769-0.0000  plane waves:    2969
 k-point 13 :   0.4615 0.0769-0.0000  plane waves:    2965
 k-point 14 :  -0.4615 0.0769 0.0000  plane waves:    2964
 k-point 15 :  -0.3846 0.0769 0.0000  plane waves:    2977
 k-point 16 :  -0.3077 0.0769-0.0000  plane waves:    2961
 k-point 17 :  -0.2308 0.0769 0.0000  plane waves:    2966
 k-point 18 :  -0.1538 0.0769 0.0000  plane waves:    2958
 k-point 19 :  -0.0769 0.0769 0.0000  plane waves:    2960
 k-point 20 :   0.1538 0.1538-0.0000  plane waves:    2958
 k-point 21 :   0.2308 0.1538 0.0000  plane waves:    2947
 k-point 22 :   0.3077 0.1538-0.0000  plane waves:    2964
 k-point 23 :   0.3846 0.1538-0.0000  plane waves:    2970
 k-point 24 :   0.4615 0.1538 0.0000  plane waves:    2975
 k-point 25 :  -0.4615 0.1538-0.0000  plane waves:    2969
 k-point 26 :  -0.3846 0.1538 0.0000  plane waves:    2978
 k-point 27 :  -0.3077 0.1538-0.0000  plane waves:    2970
 k-point 28 :  -0.2308 0.1538-0.0000  plane waves:    2973
 k-point 29 :  -0.1538 0.1538 0.0000  plane waves:    2960
 k-point 30 :   0.2308 0.2308-0.0000  plane waves:    2958
 k-point 31 :   0.3077 0.2308-0.0000  plane waves:    2966
 k-point 32 :   0.3846 0.2308 0.0000  plane waves:    2970
 k-point 33 :   0.4615 0.2308 0.0000  plane waves:    2977
 k-point 34 :  -0.4615 0.2308-0.0000  plane waves:    2975
 k-point 35 :  -0.3846 0.2308 0.0000  plane waves:    2980
 k-point 36 :  -0.3077 0.2308 0.0000  plane waves:    2975
 k-point 37 :  -0.2308 0.2308 0.0000  plane waves:    2970
 k-point 38 :   0.3077 0.3077-0.0000  plane waves:    2970
 k-point 39 :   0.3846 0.3077 0.0000  plane waves:    2975
 k-point 40 :   0.4615 0.3077 0.0000  plane waves:    2970
 k-point 41 :  -0.4615 0.3077 0.0000  plane waves:    2969
 k-point 42 :  -0.3846 0.3077-0.0000  plane waves:    2978
 k-point 43 :  -0.3077 0.3077 0.0000  plane waves:    2982
 k-point 44 :   0.3846 0.3846-0.0000  plane waves:    2966
 k-point 45 :   0.4615 0.3846 0.0000  plane waves:    2970
 k-point 46 :  -0.4615 0.3846 0.0000  plane waves:    2972
 k-point 47 :  -0.3846 0.3846-0.0000  plane waves:    2972
 k-point 48 :   0.4615 0.4615-0.0000  plane waves:    2974
 k-point 49 :  -0.4615 0.4615-0.0000  plane waves:    2974
 k-point 50 :   0.2308 0.1538 0.0769  plane waves:    2950
 k-point 51 :   0.3077 0.1538 0.0769  plane waves:    2958
 k-point 52 :   0.3846 0.1538 0.0769  plane waves:    2968
 k-point 53 :   0.4615 0.1538 0.0769  plane waves:    2974
 k-point 54 :  -0.4615 0.1538 0.0769  plane waves:    2983
 k-point 55 :   0.3077 0.2308 0.0769  plane waves:    2957
 k-point 56 :   0.3846 0.2308 0.0769  plane waves:    2972
 k-point 57 :   0.4615 0.2308 0.0769  plane waves:    2979
 k-point 58 :  -0.4615 0.2308 0.0769  plane waves:    2986
 k-point 59 :  -0.3846 0.2308 0.0769  plane waves:    2970
 k-point 60 :  -0.3077 0.2308 0.0769  plane waves:    2979
 k-point 61 :  -0.2308 0.2308 0.0769  plane waves:    2981
 k-point 62 :  -0.1538 0.2308 0.0769  plane waves:    2963
 k-point 63 :   0.3846 0.3077 0.0769  plane waves:    2968
 k-point 64 :   0.4615 0.3077 0.0769  plane waves:    2976
 k-point 65 :  -0.4615 0.3077 0.0769  plane waves:    2980
 k-point 66 :  -0.3846 0.3077 0.0769  plane waves:    2986
 k-point 67 :  -0.3077 0.3077 0.0769  plane waves:    2980
 k-point 68 :  -0.2308 0.3077 0.0769  plane waves:    2979
 k-point 69 :   0.4615 0.3846 0.0769  plane waves:    2974
 k-point 70 :  -0.4615 0.3846 0.0769  plane waves:    2970
 k-point 71 :  -0.3846 0.3846 0.0769  plane waves:    2973
 k-point 72 :  -0.3077 0.3846 0.0769  plane waves:    2977
 k-point 73 :  -0.4615 0.4615 0.0769  plane waves:    2969
 k-point 74 :  -0.3846 0.4615 0.0769  plane waves:    2981
 k-point 75 :   0.4615 0.3077 0.1538  plane waves:    2977
 k-point 76 :  -0.4615 0.3077 0.1538  plane waves:    2987
 k-point 77 :  -0.3846 0.3077 0.1538  plane waves:    2991
 k-point 78 :  -0.4615 0.3846 0.1538  plane waves:    2986
 k-point 79 :  -0.3846 0.3846 0.1538  plane waves:    2979
 k-point 80 :  -0.3077 0.3846 0.1538  plane waves:    2986
 k-point 81 :  -0.2308 0.3846 0.1538  plane waves:    2985
 k-point 82 :  -0.3846 0.4615 0.1538  plane waves:    2970
 k-point 83 :  -0.3077 0.4615 0.1538  plane waves:    2982
 k-point 84 :  -0.3077 0.4615 0.2308  plane waves:    2997

 maximum and minimum number of plane-waves per node :       757      724

 maximum number of plane-waves:      2997
 maximum index in each direction:
   IXMAX=   10   IYMAX=   10   IZMAX=   10
   IXMIN=  -10   IYMIN=  -10   IZMIN=  -10


 parallel 3D FFT for wavefunctions:
    minimum data exchange during FFTs selected (reduces bandwidth)
 parallel 3D FFT for charge:
    minimum data exchange during FFTs selected (reduces bandwidth)


 total amount of memory used by VASP MPI-rank0    93147. kBytes
=======================================================================

   base      :      30000. kBytes
   nonl-proj :      48807. kBytes
   fftplans  :       5205. kBytes
   grid      :       2732. kBytes
   one-center:         49. kBytes
   wavefun   :       6354. kBytes

     INWAV:  cpu time    0.0002: real time    0.0031
 Broyden mixing: mesh for mixing (old mesh)
   NGX = 21   NGY = 21   NGZ = 21
  (NGX  = 80   NGY  = 80   NGZ  = 80)
  gives a total of   9261 points

 initial charge density was supplied:
 charge density of overlapping atoms calculated
 number of electron      37.0000000 magnetization
 keeping initial charge density in first step


--------------------------------------------------------------------------------------------------------


 Maximum index for augmentation-charges        26481 (set IRDMAX)


--------------------------------------------------------------------------------------------------------


 First call to EWALD:  gamma=   0.429
 Maximum number of real-space cells 3x 3x 3
 Maximum number of reciprocal cells 3x 3x 3

    FEWALD:  cpu time    0.0053: real time    0.0057


--------------------------------------- Iteration      1(   1)  ---------------------------------------


    POTLOK:  cpu time    0.0490: real time    0.1218
    SETDIJ:  cpu time    0.0928: real time    0.0933
     EDDAV:  cpu time    1.4348: real time    1.4456
       DOS:  cpu time    0.0043: real time    0.0049
    --------------------------------------------
      LOOP:  cpu time    1.5812: real time    1.6670

 eigenvalue-minimisations  :  4032
 total energy-change (2. order) : 0.4515679E+03  (-0.2075570E+04)
 number of electron      37.0000000 magnetization
 augmentation part       37.0000000 magnetization

 Free energy of the ion-electron system (eV)
  ---------------------------------------------------
  alpha Z        PSCENC =       243.00874979
  Ewald energy   TEWEN  =     -3263.93088959
  -Hartree energ DENC   =      -699.87389053
  -exchange      EXHF   =         0.00000000
  -V(xc)+E(xc)   XCENC  =        69.77648480
  PAW double counting   =      3147.30828992    -3070.62761383
  entropy T*S    EENTRO =        -0.00032684
  eigenvalues    EBANDS =       351.23371794
  atomic energy  EATOM  =      3674.67342263
  Solvation  Ediel_sol  =         0.00000000
  ---------------------------------------------------
  free energy    TOTEN  =       451.56794430 eV

  energy without entropy =      451.56827113  energy(sigma->0) =      451.56810771


--------------------------------------------------------------------------------------------------------




--------------------------------------- Iteration      1(   2)  ---------------------------------------


     EDDAV:  cpu time    1.4402: real time    1.4636
       DOS:  cpu time    0.0029: real time    0.0032
    --------------------------------------------
      LOOP:  cpu time    1.4431: real time    1.4698

 eigenvalue-minimisations  :  4120
 total energy-change (2. order) :-0.4049698E+03  (-0.3959263E+03)
 number of electron      37.0000000 magnetization
 augmentation part       37.0000000 magnetization

 Free energy of the ion-electron system (eV)
  ---------------------------------------------------
  alpha Z        PSCENC =       243.00874979
  Ewald energy   TEWEN  =     -3263.93088959
  -Hartree energ DENC   =      -699.87389053
  -exchange      EXHF   =         0.00000000
  -V(xc)+E(xc)   XCENC  =        69.77648480
  PAW double counting   =      3147.30828992    -3070.62761383
  entropy T*S    EENTRO =        -0.00017225
  eigenvalues    EBANDS =       -53.73621594
  atomic energy  EATOM  =      3674.67342263
  Solvation  Ediel_sol  =         0.00000000
  ---------------------------------------------------
  free energy    TOTEN  =        46.59816500 eV

  energy without entropy =       46.59833726  energy(sigma->0) =       46.59825113


--------------------------------------------------------------------------------------------------------




--------------------------------------- Iteration      1(   3)  ---------------------------------------


     EDDAV:  cpu time    1.8164: real time    1.8499
       DOS:  cpu time    0.0030: real time    0.0034
    --------------------------------------------
      LOOP:  cpu time    1.8194: real time    1.8524

 eigenvalue-minimisations  :  5624
 total energy-change (2. order) :-0.6473732E+02  (-0.6406104E+02)
 number of electron      37.0000000 magnetization
 augmentation part       37.0000000 magnetization

 Free energy of the ion-electron system (eV)
  ---------------------------------------------------
  alpha Z        PSCENC =       243.00874979
  Ewald energy   TEWEN  =     -3263.93088959
  -Hartree energ DENC   =      -699.87389053
  -exchange      EXHF   =         0.00000000
  -V(xc)+E(xc)   XCENC  =        69.77648480
  PAW double counting   =      3147.30828992    -3070.62761383
  entropy T*S    EENTRO =        -0.00020381
  eigenvalues    EBANDS =      -118.47350655
  atomic energy  EATOM  =      3674.67342263
  Solvation  Ediel_sol  =         0.00000000
  ---------------------------------------------------
  free energy    TOTEN  =       -18.13915717 eV

  energy without entropy =      -18.13895336  energy(sigma->0) =      -18.13905527


--------------------------------------------------------------------------------------------------------




--------------------------------------- Iteration      1(   4)  ---------------------------------------


     EDDAV:  cpu time    2.2391: real time    2.2607
       DOS:  cpu time    0.0032: real time    0.0035
    --------------------------------------------
      LOOP:  cpu time    2.2423: real time    2.2633

 eigenvalue-minimisations  :  7296
 total energy-change (2. order) :-0.4094415E+01  (-0.4084387E+01)
 number of electron      37.0000000 magnetization
 augmentation part       37.0000000 magnetization

 Free energy of the ion-electron system (eV)
  ---------------------------------------------------
  alpha Z        PSCENC =       243.00874979
  Ewald energy   TEWEN  =     -3263.93088959
  -Hartree energ DENC   =      -699.87389053
  -exchange      EXHF   =         0.00000000
  -V(xc)+E(xc)   XCENC  =        69.77648480
  PAW double counting   =      3147.30828992    -3070.62761383
  entropy T*S    EENTRO =        -0.00025897
  eigenvalues    EBANDS =      -122.56786643
  atomic energy  EATOM  =      3674.67342263
  Solvation  Ediel_sol  =         0.00000000
  ---------------------------------------------------
  free energy    TOTEN  =       -22.23357220 eV

  energy without entropy =      -22.23331324  energy(sigma->0) =      -22.23344272


--------------------------------------------------------------------------------------------------------




--------------------------------------- Iteration      1(   5)  ---------------------------------------


     EDDAV:  cpu time    1.8222: real time    1.8428
       DOS:  cpu time    0.0030: real time    0.0033
    CHARGE:  cpu time    0.3252: real time    0.3255
    MIXING:  cpu time    0.0046: real time    0.0050
    --------------------------------------------
      LOOP:  cpu time    2.1550: real time    2.1778

 eigenvalue-minimisations  :  5608
 total energy-change (2. order) :-0.1053281E+00  (-0.1053041E+00)
 number of electron      37.0000000 magnetization
 augmentation part        5.9487280 magnetization

 Broyden mixing:
  rms(total) = 0.40981E+01    rms(broyden)= 0.40981E+01
  rms(prec ) = 0.43460E+01
  weight for this iteration     100.00

 Free energy of the ion-electron system (eV)
  ---------------------------------------------------
  alpha Z        PSCENC =       243.00874979
  Ewald energy   TEWEN  =     -3263.93088959
  -Hartree energ DENC   =      -699.87389053
  -exchange      EXHF   =         0.00000000
  -V(xc)+E(xc)   XCENC  =        69.77648480
  PAW double counting   =      3147.30828992    -3070.62761383
  entropy T*S    EENTRO =        -0.00025328
  eigenvalues    EBANDS =      -122.67320023
  atomic energy  EATOM  =      3674.67342263
  Solvation  Ediel_sol  =         0.00000000
  ---------------------------------------------------
  free energy    TOTEN  =       -22.33890032 eV

  energy without entropy =      -22.33864704  energy(sigma->0) =      -22.33877368


--------------------------------------------------------------------------------------------------------




--------------------------------------- Iteration      1(   6)  ---------------------------------------


    POTLOK:  cpu time    0.0416: real time    0.0624
    SETDIJ:  cpu time    0.0858: real time    0.0859
     EDDAV:  cpu time    1.6672: real time    1.6675
       DOS:  cpu time    0.0032: real time    0.0035
    CHARGE:  cpu time    0.2818: real time    0.2821
    MIXING:  cpu time    0.0040: real time    0.0042
    --------------------------------------------
      LOOP:  cpu time    2.0836: real time    2.1051

 eigenvalue-minimisations  :  5088
 total energy-change (2. order) : 0.7883847E+00  (-0.1431285E+00)
 number of electron      37.0000000 magnetization
 augmentation part        6.0225761 magnetization

 Broyden mixing:
  rms(total) = 0.24606E+01    rms(broyden)= 0.24606E+01
  rms(prec ) = 0.25500E+01
  weight for this iteration     100.00

 eigenvalues of (default mixing * dielectric matrix)
  average eigenvalue GAMMA=   2.4598
  2.4598

 Free energy of the ion-electron system (eV)
  ---------------------------------------------------
  alpha Z        PSCENC =       243.00874979
  Ewald energy   TEWEN  =     -3263.93088959
  -Hartree energ DENC   =      -683.89178929
  -exchange      EXHF   =         0.00000000
  -V(xc)+E(xc)   XCENC  =        69.31843417
  PAW double counting   =      3592.72428287    -3521.22488388
  entropy T*S    EENTRO =        -0.00012506
  eigenvalues    EBANDS =      -132.22771724
  atomic energy  EATOM  =      3674.67342263
  Solvation  Ediel_sol  =         0.00000000
  ---------------------------------------------------
  free energy    TOTEN  =       -21.55051558 eV

  energy without entropy =      -21.55039053  energy(sigma->0) =      -21.55045306


--------------------------------------------------------------------------------------------------------




--------------------------------------- Iteration      1(   7)  ---------------------------------------


    POTLOK:  cpu time    0.0334: real time    0.0661
    SETDIJ:  cpu time    0.0905: real time    0.0906
     EDDAV:  cpu time    1.8875: real time    1.8879
       DOS:  cpu time    0.0031: real time    0.0034
    CHARGE:  cpu time    0.2614: real time    0.2616
    MIXING:  cpu time    0.0039: real time    0.0069
    --------------------------------------------
      LOOP:  cpu time    2.2799: real time    2.3169

 eigenvalue-minimisations  :  6024
 total energy-change (2. order) : 0.1506955E+00  (-0.1769433E+00)
 number of electron      37.0000000 magnetization
 augmentation part        5.9674935 magnetization

 Broyden mixing:
  rms(total) = 0.57296E+00    rms(broyden)= 0.57296E+00
  rms(prec ) = 0.66347E+00
  weight for this iteration     100.00

 eigenvalues of (default mixing * dielectric matrix)
  average eigenvalue GAMMA=   2.1004
  1.1618  3.0390

 Free energy of the ion-electron system (eV)
  ---------------------------------------------------
  alpha Z        PSCENC =       243.00874979
  Ewald energy   TEWEN  =     -3263.93088959
  -Hartree energ DENC   =      -671.29513005
  -exchange      EXHF   =         0.00000000
  -V(xc)+E(xc)   XCENC  =        69.10802420
  PAW double counting   =      4221.28553033    -4155.83216465
  entropy T*S    EENTRO =        -0.00028176
  eigenvalues    EBANDS =      -138.41708104
  atomic energy  EATOM  =      3674.67342263
  Solvation  Ediel_sol  =         0.00000000
  ---------------------------------------------------
  free energy    TOTEN  =       -21.39982013 eV

  energy without entropy =      -21.39953837  energy(sigma->0) =      -21.39967925


--------------------------------------------------------------------------------------------------------




--------------------------------------- Iteration      1(   8)  ---------------------------------------


    POTLOK:  cpu time    0.0321: real time    0.0647
    SETDIJ:  cpu time    0.0975: real time    0.0978
     EDDAV:  cpu time    1.7670: real time    1.7678
       DOS:  cpu time    0.0028: real time    0.0031
    CHARGE:  cpu time    0.2595: real time    0.2597
    MIXING:  cpu time    0.0064: real time    0.0084
    --------------------------------------------
      LOOP:  cpu time    2.1652: real time    2.2029

 eigenvalue-minimisations  :  5488
 total energy-change (2. order) : 0.3151193E-01  (-0.3139821E-01)
 number of electron      37.0000000 magnetization
 augmentation part        5.9353955 magnetization

 Broyden mixing:
  rms(total) = 0.30839E+00    rms(broyden)= 0.30839E+00
  rms(prec ) = 0.35116E+00
  weight for this iteration     100.00

 eigenvalues of (default mixing * dielectric matrix)
  average eigenvalue GAMMA=   1.9265
  3.4588  1.5863  0.7344

 Free energy of the ion-electron system (eV)
  ---------------------------------------------------
  alpha Z        PSCENC =       243.00874979
  Ewald energy   TEWEN  =     -3263.93088959
  -Hartree energ DENC   =      -670.94893767
  -exchange      EXHF   =         0.00000000
  -V(xc)+E(xc)   XCENC  =        69.10720100
  PAW double counting   =      4282.66538914    -4217.51522176
  entropy T*S    EENTRO =        -0.00009658
  eigenvalues    EBANDS =      -138.42792516
  atomic energy  EATOM  =      3674.67342263
  Solvation  Ediel_sol  =         0.00000000
  ---------------------------------------------------
  free energy    TOTEN  =       -21.36830820 eV

  energy without entropy =      -21.36821162  energy(sigma->0) =      -21.36825991


--------------------------------------------------------------------------------------------------------




--------------------------------------- Iteration      1(   9)  ---------------------------------------


    POTLOK:  cpu time    0.0494: real time    0.0776
    SETDIJ:  cpu time    0.0901: real time    0.0903
     EDDAV:  cpu time    1.9081: real time    1.9098
       DOS:  cpu time    0.0030: real time    0.0038
    CHARGE:  cpu time    0.2650: real time    0.2651
    MIXING:  cpu time    0.0038: real time    0.0039
    --------------------------------------------
      LOOP:  cpu time    2.3197: real time    2.3509

 eigenvalue-minimisations  :  5960
 total energy-change (2. order) : 0.5542862E-02  (-0.1107763E-01)
 number of electron      37.0000000 magnetization
 augmentation part        5.9323725 magnetization

 Broyden mixing:
  rms(total) = 0.28407E+00    rms(broyden)= 0.28407E+00
  rms(prec ) = 0.29277E+00
  weight for this iteration     100.00

 eigenvalues of (default mixing * dielectric matrix)
  average eigenvalue GAMMA=   1.4553
  2.3972  1.3468  1.3468  0.7303

 Free energy of the ion-electron system (eV)
  ---------------------------------------------------
  alpha Z        PSCENC =       243.00874979
  Ewald energy   TEWEN  =     -3263.93088959
  -Hartree energ DENC   =      -673.11968657
  -exchange      EXHF   =         0.00000000
  -V(xc)+E(xc)   XCENC  =        69.13349781
  PAW double counting   =      4342.60812264    -4277.31350629
  entropy T*S    EENTRO =        -0.00010419
  eigenvalues    EBANDS =      -136.42237156
  atomic energy  EATOM  =      3674.67342263
  Solvation  Ediel_sol  =         0.00000000
  ---------------------------------------------------
  free energy    TOTEN  =       -21.36276533 eV

  energy without entropy =      -21.36266115  energy(sigma->0) =      -21.36271324


--------------------------------------------------------------------------------------------------------




--------------------------------------- Iteration      1(  10)  ---------------------------------------


    POTLOK:  cpu time    0.0440: real time    0.0683
    SETDIJ:  cpu time    0.0888: real time    0.0889
     EDDAV:  cpu time    1.8144: real time    1.8146
       DOS:  cpu time    0.0029: real time    0.0032
    CHARGE:  cpu time    0.2600: real time    0.2601
    MIXING:  cpu time    0.0073: real time    0.0074
    --------------------------------------------
      LOOP:  cpu time    2.2174: real time    2.2412

 eigenvalue-minimisations  :  5720
 total energy-change (2. order) : 0.3493369E-02  (-0.2024876E-02)
 number of electron      37.0000000 magnetization
 augmentation part        5.9352999 magnetization

 Broyden mixing:
  rms(total) = 0.69410E-01    rms(broyden)= 0.69410E-01
  rms(prec ) = 0.71442E-01
  weight for this iteration     100.00

 eigenvalues of (default mixing * dielectric matrix)
  average eigenvalue GAMMA=   1.4624
  2.1687  2.0170  1.5666  0.7798  0.7798

 Free energy of the ion-electron system (eV)
  ---------------------------------------------------
  alpha Z        PSCENC =       243.00874979
  Ewald energy   TEWEN  =     -3263.93088959
  -Hartree energ DENC   =      -673.25130089
  -exchange      EXHF   =         0.00000000
  -V(xc)+E(xc)   XCENC  =        69.12282385
  PAW double counting   =      4273.73245394    -4208.00621144
  entropy T*S    EENTRO =        -0.00010465
  eigenvalues    EBANDS =      -136.70821560
  atomic energy  EATOM  =      3674.67342263
  Solvation  Ediel_sol  =         0.00000000
  ---------------------------------------------------
  free energy    TOTEN  =       -21.35927196 eV

  energy without entropy =      -21.35916732  energy(sigma->0) =      -21.35921964


--------------------------------------------------------------------------------------------------------




--------------------------------------- Iteration      1(  11)  ---------------------------------------


    POTLOK:  cpu time    0.0320: real time    0.0680
    SETDIJ:  cpu time    0.0918: real time    0.0922
     EDDAV:  cpu time    1.7810: real time    1.7813
       DOS:  cpu time    0.0032: real time    0.0042
    CHARGE:  cpu time    0.2574: real time    0.2598
    MIXING:  cpu time    0.0121: real time    0.0122
    --------------------------------------------
      LOOP:  cpu time    2.1776: real time    2.2179

 eigenvalue-minimisations  :  5568
 total energy-change (2. order) :-0.6778608E-04  (-0.9456629E-04)
 number of electron      37.0000000 magnetization
 augmentation part        5.9359462 magnetization

 Broyden mixing:
  rms(total) = 0.44064E-01    rms(broyden)= 0.44064E-01
  rms(prec ) = 0.45761E-01
  weight for this iteration     100.00

 eigenvalues of (default mixing * dielectric matrix)
  average eigenvalue GAMMA=   1.4304
  2.6169  2.0959  1.2877  0.7106  0.9355  0.9355

 Free energy of the ion-electron system (eV)
  ---------------------------------------------------
  alpha Z        PSCENC =       243.00874979
  Ewald energy   TEWEN  =     -3263.93088959
  -Hartree energ DENC   =      -673.31875311
  -exchange      EXHF   =         0.00000000
  -V(xc)+E(xc)   XCENC  =        69.11550604
  PAW double counting   =      4283.55992185    -4217.78692200
  entropy T*S    EENTRO =        -0.00010518
  eigenvalues    EBANDS =      -136.68027017
  atomic energy  EATOM  =      3674.67342263
  Solvation  Ediel_sol  =         0.00000000
  ---------------------------------------------------
  free energy    TOTEN  =       -21.35933975 eV

  energy without entropy =      -21.35923457  energy(sigma->0) =      -21.35928716


--------------------------------------------------------------------------------------------------------




--------------------------------------- Iteration      1(  12)  ---------------------------------------


    POTLOK:  cpu time    0.0404: real time    0.0695
    SETDIJ:  cpu time    0.0896: real time    0.0898
     EDDAV:  cpu time    1.9166: real time    1.9168
       DOS:  cpu time    0.0030: real time    0.0032
    CHARGE:  cpu time    0.2572: real time    0.2576
    MIXING:  cpu time    0.0095: real time    0.0096
    --------------------------------------------
      LOOP:  cpu time    2.3163: real time    2.3460

 eigenvalue-minimisations  :  5968
 total energy-change (2. order) : 0.4649093E-04  (-0.2669232E-04)
 number of electron      37.0000000 magnetization
 augmentation part        5.9368374 magnetization

 Broyden mixing:
  rms(total) = 0.85639E-02    rms(broyden)= 0.85639E-02
  rms(prec ) = 0.90453E-02
  weight for this iteration     100.00

 eigenvalues of (default mixing * dielectric matrix)
  average eigenvalue GAMMA=   1.4539
  2.6093  2.2128  1.4447  0.7191  1.1783  1.0064  1.0064

 Free energy of the ion-electron system (eV)
  ---------------------------------------------------
  alpha Z        PSCENC =       243.00874979
  Ewald energy   TEWEN  =     -3263.93088959
  -Hartree energ DENC   =      -673.32082176
  -exchange      EXHF   =         0.00000000
  -V(xc)+E(xc)   XCENC  =        69.11314739
  PAW double counting   =      4289.45069437    -4223.65915827
  entropy T*S    EENTRO =        -0.00010573
  eigenvalues    EBANDS =      -136.69433210
  atomic energy  EATOM  =      3674.67342263
  Solvation  Ediel_sol  =         0.00000000
  ---------------------------------------------------
  free energy    TOTEN  =       -21.35929326 eV

  energy without entropy =      -21.35918753  energy(sigma->0) =      -21.35924040


--------------------------------------------------------------------------------------------------------




--------------------------------------- Iteration      1(  13)  ---------------------------------------


    POTLOK:  cpu time    0.0326: real time    0.0618
    SETDIJ:  cpu time    0.0915: real time    0.0916
     EDDAV:  cpu time    1.9862: real time    1.9866
       DOS:  cpu time    0.0031: real time    0.0035
    CHARGE:  cpu time    0.2654: real time    0.2655
    MIXING:  cpu time    0.0045: real time    0.0046
    --------------------------------------------
      LOOP:  cpu time    2.3833: real time    2.4156

 eigenvalue-minimisations  :  6304
 total energy-change (2. order) :-0.2172239E-05  (-0.4559565E-05)
 number of electron      37.0000000 magnetization
 augmentation part        5.9376782 magnetization

 Broyden mixing:
  rms(total) = 0.33700E-02    rms(broyden)= 0.33700E-02
  rms(prec ) = 0.35409E-02
  weight for this iteration     100.00

 eigenvalues of (default mixing * dielectric matrix)
  average eigenvalue GAMMA=   1.4149
  2.6231  1.9955  1.5576  1.5576  0.7270  0.9332  0.9625  0.9625

 Free energy of the ion-electron system (eV)
  ---------------------------------------------------
  alpha Z        PSCENC =       243.00874979
  Ewald energy   TEWEN  =     -3263.93088959
  -Hartree energ DENC   =      -673.31258790
  -exchange      EXHF   =         0.00000000
  -V(xc)+E(xc)   XCENC  =        69.11088066
  PAW double counting   =      4291.51541647    -4225.69707831
  entropy T*S    EENTRO =        -0.00010589
  eigenvalues    EBANDS =      -136.72710330
  atomic energy  EATOM  =      3674.67342263
  Solvation  Ediel_sol  =         0.00000000
  ---------------------------------------------------
  free energy    TOTEN  =       -21.35929543 eV

  energy without entropy =      -21.35918954  energy(sigma->0) =      -21.35924249


--------------------------------------------------------------------------------------------------------




--------------------------------------- Iteration      1(  14)  ---------------------------------------


    POTLOK:  cpu time    0.0322: real time    0.0664
    SETDIJ:  cpu time    0.0899: real time    0.0901
     EDDAV:  cpu time    1.7521: real time    1.7524
       DOS:  cpu time    0.0031: real time    0.0035
    CHARGE:  cpu time    0.2556: real time    0.2557
    MIXING:  cpu time    0.0128: real time    0.0129
    --------------------------------------------
      LOOP:  cpu time    2.1458: real time    2.1809

 eigenvalue-minimisations  :  5456
 total energy-change (2. order) : 0.4490594E-06  (-0.2316644E-06)
 number of electron      37.0000000 magnetization
 augmentation part        5.9377623 magnetization

 Broyden mixing:
  rms(total) = 0.18969E-02    rms(broyden)= 0.18969E-02
  rms(prec ) = 0.19831E-02
  weight for this iteration     100.00

 eigenvalues of (default mixing * dielectric matrix)
  average eigenvalue GAMMA=   1.4661
  2.5972  2.1143  1.9402  1.5477  0.7245  1.1489  1.0541  1.0339  1.0339

 Free energy of the ion-electron system (eV)
  ---------------------------------------------------
  alpha Z        PSCENC =       243.00874979
  Ewald energy   TEWEN  =     -3263.93088959
  -Hartree energ DENC   =      -673.31512967
  -exchange      EXHF   =         0.00000000
  -V(xc)+E(xc)   XCENC  =        69.11123781
  PAW double counting   =      4291.28431103    -4225.46597133
  entropy T*S    EENTRO =        -0.00010583
  eigenvalues    EBANDS =      -136.72491983
  atomic energy  EATOM  =      3674.67342263
  Solvation  Ediel_sol  =         0.00000000
  ---------------------------------------------------
  free energy    TOTEN  =       -21.35929498 eV

  energy without entropy =      -21.35918916  energy(sigma->0) =      -21.35924207


--------------------------------------------------------------------------------------------------------




--------------------------------------- Iteration      1(  15)  ---------------------------------------


    POTLOK:  cpu time    0.0412: real time    0.0648
    SETDIJ:  cpu time    0.0914: real time    0.0915
     EDDAV:  cpu time    2.0859: real time    2.0862
       DOS:  cpu time    0.0029: real time    0.0032
    CHARGE:  cpu time    0.2612: real time    0.2619
    MIXING:  cpu time    0.0081: real time    0.0083
    --------------------------------------------
      LOOP:  cpu time    2.4908: real time    2.5149

 eigenvalue-minimisations  :  6712
 total energy-change (2. order) : 0.2946008E-06  (-0.1153783E-06)
 number of electron      37.0000000 magnetization
 augmentation part        5.9376785 magnetization

 Broyden mixing:
  rms(total) = 0.56355E-04    rms(broyden)= 0.55760E-04
  rms(prec ) = 0.95094E-04
  weight for this iteration     100.00

 eigenvalues of (default mixing * dielectric matrix)
  average eigenvalue GAMMA=   1.4611
  2.5623  2.3096  2.3096  1.5762  1.0661  1.0661  0.7242  0.9725  0.9725  1.0516

 Free energy of the ion-electron system (eV)
  ---------------------------------------------------
  alpha Z        PSCENC =       243.00874979
  Ewald energy   TEWEN  =     -3263.93088959
  -Hartree energ DENC   =      -673.31577319
  -exchange      EXHF   =         0.00000000
  -V(xc)+E(xc)   XCENC  =        69.11147028
  PAW double counting   =      4291.13773472    -4225.31878512
  entropy T*S    EENTRO =        -0.00010576
  eigenvalues    EBANDS =      -136.72511846
  atomic energy  EATOM  =      3674.67342263
  Solvation  Ediel_sol  =         0.00000000
  ---------------------------------------------------
  free energy    TOTEN  =       -21.35929469 eV

  energy without entropy =      -21.35918893  energy(sigma->0) =      -21.35924181


--------------------------------------------------------------------------------------------------------




--------------------------------------- Iteration      1(  16)  ---------------------------------------


    POTLOK:  cpu time    0.0442: real time    0.0752
    SETDIJ:  cpu time    0.0895: real time    0.0896
     EDDAV:  cpu time    1.2998: real time    1.3000
       DOS:  cpu time    0.0030: real time    0.0032
    --------------------------------------------
      LOOP:  cpu time    1.4365: real time    1.4637

 eigenvalue-minimisations  :  3376
 total energy-change (2. order) : 0.1184253E-07  (-0.4364283E-08)
 number of electron      37.0000000 magnetization
 augmentation part        5.9376785 magnetization

 Free energy of the ion-electron system (eV)
  ---------------------------------------------------
  alpha Z        PSCENC =       243.00874979
  Ewald energy   TEWEN  =     -3263.93088959
  -Hartree energ DENC   =      -673.31677709
  -exchange      EXHF   =         0.00000000
  -V(xc)+E(xc)   XCENC  =        69.11149052
  PAW double counting   =      4291.11474255    -4225.29525808
  entropy T*S    EENTRO =        -0.00010577
  eigenvalues    EBANDS =      -136.72466963
  atomic energy  EATOM  =      3674.67342263
  Solvation  Ediel_sol  =         0.00000000
  ---------------------------------------------------
  free energy    TOTEN  =       -21.35929468 eV

  energy without entropy =      -21.35918891  energy(sigma->0) =      -21.35924179


--------------------------------------------------------------------------------------------------------




 average (electrostatic) potential at core
  the test charge radii are     1.1985  1.0856  1.2059
  (the norm of the test charge is              1.0000)
       1 -55.0256       2-100.9109       3 -64.5698



 E-fermi :  10.1180     XC(G=0): -11.6784     alpha+bet :-15.9119


 k-point     1 :       0.0000    0.0000    0.0000
  band No.  band energies     occupation
      1     -29.5879      2.00000
      2     -13.1150      2.00000
      3     -13.1150      2.00000
      4     -13.0714      2.00000
      5     -13.0714      2.00000
      6     -13.0714      2.00000
      7      -7.7932      2.00000
      8      -7.7932      2.00000
      9      -7.7932      2.00000
     10      -2.8612      2.00000
     11       5.2821      2.00000
     12       5.2821      2.00000
     13       5.2821      2.00000
     14       5.3446      2.00000
     15       5.3446      2.00000
     16       8.7573      2.00000
     17       8.8078      2.00000
     18       8.8078      2.00000
     19       8.8078      2.00000
     20      10.3047      0.00000
     21      10.3047      0.00000
     22      10.3047      0.00000
     23      11.2696      0.00000
     24      12.4676      0.00000

 k-point     2 :       0.0769    0.0000   -0.0000
  band No.  band energies     occupation
      1     -29.5872      2.00000
      2     -13.1164      2.00000
      3     -13.1164      2.00000
      4     -13.0717      2.00000
      5     -13.0711      2.00000
      6     -13.0711      2.00000
      7      -7.8260      2.00000
      8      -7.7885      2.00000
      9      -7.7885      2.00000
     10      -2.7692      2.00000
     11       5.0543      2.00000
     12       5.0543      2.00000
     13       5.1480      2.00000
     14       5.5599      2.00000
     15       5.5599      2.00000
     16       7.9754      2.00000
     17       8.7199      2.00000
     18       8.7199      2.00000
     19       9.3879      2.00000
     20      10.4141      0.00000
     21      10.4141      0.00000
     22      10.4556      0.00000
     23      11.5598      0.00000
     24      12.4728      0.00000

 k-point     3 :       0.1538    0.0000   -0.0000
  band No.  band energies     occupation
      1     -29.5852      2.00000
      2     -13.1202      2.00000
      3     -13.1202      2.00000
      4     -13.0727      2.00000
      5     -13.0704      2.00000
      6     -13.0704      2.00000
      7      -7.9111      2.00000
      8      -7.7755      2.00000
      9      -7.7755      2.00000
     10      -2.5181      2.00000
     11       4.7979      2.00000
     12       4.8296      2.00000
     13       4.8296      2.00000
     14       5.7324      2.00000
     15       5.7324      2.00000
     16       7.2409      2.00000
     17       8.5455      2.00000
     18       8.5455      2.00000
     19       9.5087      2.00000
     20      10.6729      0.00000
     21      10.6729      0.00000
     22      11.1174      0.00000
     23      12.1033      0.00000
     24      12.4777      0.00000

 k-point     4 :       0.2308   -0.0000   -0.0000
  band No.  band energies     occupation
      1     -29.5824      2.00000
      2     -13.1256      2.00000
      3     -13.1256      2.00000
      4     -13.0742      2.00000
      5     -13.0694      2.00000
      6     -13.0694      2.00000
      7      -8.0186      2.00000
      8      -7.7572      2.00000
      9      -7.7572      2.00000
     10      -2.1719      2.00000
     11       4.3503      2.00000
     12       4.6634      2.00000
     13       4.6634      2.00000
     14       5.7812      2.00000
     15       5.7812      2.00000
     16       6.6620      2.00000
     17       8.4130      2.00000
     18       8.4130      2.00000
     19       9.5309      2.00000
     20      10.9875      0.00000
     21      10.9875      0.00000
     22      11.8772      0.00000
     23      12.4610      0.00000
     24      12.4612      0.00000

 k-point     5 :       0.3077    0.0000   -0.0000
  band No.  band energies     occupation
      1     -29.5795      2.00000
      2     -13.1313      2.00000
      3     -13.1313      2.00000
      4     -13.0762      2.00000
      5     -13.0683      2.00000
      6     -13.0683      2.00000
      7      -8.1191      2.00000
      8      -7.7380      2.00000
      9      -7.7380      2.00000
     10      -1.8129      2.00000
     11       3.9267      2.00000
[...]
  212              fftbas_plan_mpi                       0.060979                     12   6
  213                dfftw_execute                         0.026011                   36   7
  214                map_backward                          0.004504                   12   7
  215                  map_gather                            0.000713                  6   8
  216                  m_alltoallv_z                         0.002394                  6   8
  217                  map_scatter                           0.001108                  6   8
  218                map_forward                           0.027332                   12   7
  219                  map_gather                            0.015085                  6   8
  220                  m_alltoallv_z                         0.005433                  6   8
  221                  map_scatter                           0.006507                  6   8
  222            M_sumb_d                              0.001330                        6   5
  223          M_sumb_d                              0.000026                          1   4
  224        setdij_                               1.370003                           20   3
  225          fft3d_mpi                             0.215241                         40   4
  226            fftbas_plan_mpi                       0.198242                       40   5
  227              dfftw_execute                         0.086642                    120   6
  228              map_backward                          0.013303                     40   6
  229                map_gather                            0.002688                   20   7
  230                m_alltoallv_z                         0.006023                   20   7
  231                map_scatter                           0.003663                   20   7
  232              map_forward                           0.088038                     40   6
  233                map_gather                            0.048770                   20   7
  234                m_alltoallv_z                         0.017159                   20   7
  235                map_scatter                           0.021047                   20   7
  236          M_sumb_d                              0.005269                         20   4
  237        set_dd_magatom                        0.000003                            1   3
  238        set_dd_paw                            0.015177                            1   3
  239          set_rsgf_all                          0.000003                          1   4
  240          M_sumb_d                              0.015018                          8   4
  241        strkin                                0.000916                            1   3
  242          M_sumb_d                              0.000329                          1   4
  243        strelo                                0.002855                            1   3
  244          M_sumb_d                              0.000114                          2   4
  245        strenl                                1.038449                            1   3
  246          spher                                 0.771072                         19   4
  247          phase                                 0.012408                        189   4
  248          proj1                                 0.229818                       1134   4
  249            crexp_mul_wave                        0.031130                     3402   5
  250            M_sumb_d                              0.066503                     1134   5
  251          M_sumb_d                              0.002518                          1   4
  252        M_sumb_d                              0.000304                            6   3
  253        fft3d_mpi                             0.014854                           11   3
  254          fftbas_plan_mpi                       0.013848                         11   4
  255            dfftw_execute                         0.004871                       33   5
  256            map_forward                           0.002788                       10   5
  257              map_gather                            0.000591                      5   6
  258              m_alltoallv_z                         0.001316                      5   6
  259              map_scatter                           0.000644                      5   6
  260            map_backward                          0.003700                       12   5
  261              map_gather                            0.000844                      6   6
  262              m_alltoallv_z                         0.001534                      6   6
  263              map_scatter                           0.000984                      6   6
  264        ggaall_grid                           0.001556                            1   3
  265        forhar                                0.005997                            2   3
  266          M_sumb_d                              0.000233                          2   4
  267        strehar                               0.002714                            1   3
  268          M_sumb_d                              0.000115                          1   4
  269        chggra                                0.005834                            1   3
  270          fft3d_mpi                             0.003988                          3   4
  271            fftbas_plan_mpi                       0.003719                        3   5
  272              dfftw_execute                         0.001334                      9   6
  273              map_backward                          0.000617                      2   6
  274                map_gather                            0.000123                    1   7
  275                m_alltoallv_z                         0.000251                    1   7
  276                map_scatter                           0.000189                    1   7
  277              map_forward                           0.001031                      4   6
  278                map_gather                            0.000236                    2   7
  279                m_alltoallv_z                         0.000456                    2   7
  280                map_scatter                           0.000242                    2   7
  281          M_sumb_d                              0.000135                          3   4
  282        brmix                                 0.010008                            1   3
  283          M_sumb_d                              0.000261                          6   4
  284          brpre                                 0.000054                          1   4
  285          setg0                                 0.001251                          1   4
  286          broyd                                 0.004358                          1   4
  287            M_sumb_d                              0.000789                       18   5
  288            brget                                 0.000311                       64   5
  289            brsav                                 0.000074                       16   5
  290          M_bcast_z                             0.003088                          1   4
  291          M_bcast_d                             0.000071                          1   4
  292        M_bcast_d                             0.000149                            2   3
  293      potlok                                0.027070                              1   2
  294        fft3d_mpi                             0.017914                           13   3
  295          fftbas_plan_mpi                       0.016743                         13   4
  296            dfftw_execute                         0.005624                       39   5
  297            map_forward                           0.004376                       14   5
  298              map_gather                            0.000859                      8   6
  299              m_alltoallv_z                         0.002039                      8   6
  300              map_scatter                           0.001119                      8   6
  301            map_backward                          0.003715                       12   5
  302              map_gather                            0.000747                      6   6
  303              m_alltoallv_z                         0.001571                      6   6
  304              map_scatter                           0.001121                      6   6
  305        ggaall_grid                           0.001555                            1   3
  306        M_sumb_d                              0.000458                            6   3
  307        M_bcast_d                             0.000140                            1   3
  308      potlok_metagga                        0.000004                              1   2
  309      set_dd_magatom                        0.000004                              1   2
  310      set_dd_paw                            0.000477                              1   2
  311        set_rsgf_all                          0.000004                            1   3
  312        M_sumb_d                              0.000274                            8   3
  313      densta                                0.002336                              1   2
  314        M_sumb_d                              0.000833                           40   3
  315      lprj_proall                           0.000007                              1   2

 Flat profile
 ============

             routine name                   CPU           calls
 ---------------------------------------------------------------
 total_time                             13.776545           1
 eddav                                   5.154245          16
 dfftw_execute                           4.950080       49872
 fftbas_plan_mpi                         3.359127       16626
 M_sumb_d                                2.684443       46303
 setdij_                                 2.414603          40
 set_charge                              1.965648          12
 m_alltoallv_z                           1.830289       16649
 pdssyex_zheevx                          1.496126         336
 elmin                                   1.332130           1
 M_alltoall_d                            1.166651       55412
 proj1                                   0.909111        6782
 orth1                                   0.908478       11328
 spher                                   0.860849          20
 gemm                                    0.815639       22614
 vhamil                                  0.763230        7538
 fftwav_mpi                              0.650560        8798
 map_forward                             0.647004       17874
 map_gather                              0.616897       16649
 map_scatter                             0.576638       16649
 M_bcast_z                               0.568839        6320
 vnlac0                                  0.500004        7538
 redis_pw                                0.461201       21312
 hamiltmu                                0.410729        3769
 redis_proj                              0.410508       26855
 w1_copy                                 0.312559       22614
 fft3d_mpi                               0.306857       16624
 map_backward                            0.268816       15374
 crpa_reader                             0.259370           1
 work_mul_crexp                          0.254242       22614
 fftext_mpi                              0.245206        7538
 crexp_mul_wave                          0.199667       20346
 eccp                                    0.184210        2016
 kinhamil                                0.150593        7538
 overl                                   0.146233       13081
 M_bcast_d                               0.123802        3801
 overl1                                  0.096317        7538
 potlok                                  0.086703          13
 pw_charge                               0.078421        1260
 apply_precond                           0.075297        5522
 setup_precond                           0.066639        2016
 w1_projall                              0.060730        2761
 lincom                                  0.059963         357
 force_and_stress                        0.052841           1
 fornl                                   0.046010           1
 phase                                   0.037056         568
 truncate_high_frequency_w1              0.032718        9554
 soft_charge                             0.031240          12
 densta                                  0.025910          17
 strenl                                  0.022632           1
 brmix                                   0.022266          12
 ggaall_grid                             0.021880          14
 setg0                                   0.014121          13
 broyd                                   0.010225          12
 forhar                                  0.005764           2
 depsum                                  0.005350          12
 forloc                                  0.003277           1
 set_dd_paw                              0.002780          14
 strelo                                  0.002741           1
 strehar                                 0.002599           1
 brgrid                                  0.002158           1
 orthch                                  0.002134           1
 brget                                   0.002042         432
 choleski                                0.001842          21
 chggra                                  0.001711           1
 proj                                    0.001566          21
 brsav                                   0.000719         128
 brpre                                   0.000702          12
 strkin                                  0.000587           1
 fordep                                  0.000112           1
 vectorpot                               0.000068          13
 set_rsgf_all                            0.000062          14
 potlok_metagga                          0.000051          13
 set_dd_magatom                          0.000051          14
 set_kineden                             0.000039          11
 rotate_active_occupied_orbital          0.000015           1
 lprj_proall                             0.000007           1
 redis_pw_over_bands                     0.000003           1
 ---------------------------------------------------------------
  summed up times    52.5584759712219

 Accumulative profile
 ====================

             routine name                   CPU           calls
 ---------------------------------------------------------------
 total_time                             52.558476           1
 elmin                                  34.367836           1
 eddav                                  28.570660          16
 fft3d_mpi                              12.505591       16624
 fftbas_plan_mpi                        12.248851       16626
 hamiltmu                                8.857601        3769
 fftwav_mpi                              7.026716        8798
 kinhamil                                5.539120        7538
 fftext_mpi                              5.388527        7538
 dfftw_execute                           4.950080       49872
 force_and_stress                        3.271104           1
 set_charge                              3.203036          12
 setdij_                                 2.953958          40
 M_sumb_d                                2.684443       46303
 map_forward                             2.308884       17874
 vnlac0                                  2.048204        7538
 m_alltoallv_z                           1.830289       16649
 map_backward                            1.630760       15374
 proj1                                   1.560651        6782
 pdssyex_zheevx                          1.496126         336
 w1_projall                              1.365625        2761
 M_alltoall_d                            1.166651       55412
 redis_pw                                1.116636       21312
 soft_charge                             1.077117          12
 strenl                                  1.038449           1
 redis_proj                              0.921724       26855
 orth1                                   0.908478       11328
 spher                                   0.860849          20
 gemm                                    0.815639       22614
 vhamil                                  0.763230        7538
 map_gather                              0.616897       16649
 map_scatter                             0.576638       16649
 M_bcast_z                               0.568839        6320
 fordep                                  0.425247           1
 potlok                                  0.342296          13
 w1_copy                                 0.312559       22614
 eccp                                    0.298686        2016
 crpa_reader                             0.259370           1
 work_mul_crexp                          0.254242       22614
 crexp_mul_wave                          0.199667       20346
 set_dd_paw                              0.164158          14
 overl                                   0.146233       13081
 M_bcast_d                               0.123802        3801
 setup_precond                           0.115192        2016
 overl1                                  0.096317        7538
 brmix                                   0.084767          12
 pw_charge                               0.078421        1260
 apply_precond                           0.075297        5522
 fornl                                   0.063000           1
 lincom                                  0.059963         357
 densta                                  0.039186          17
 phase                                   0.037056         568
 orthch                                  0.032726           1
 truncate_high_frequency_w1              0.032718        9554
 proj                                    0.027504          21
 ggaall_grid                             0.021880          14
 broyd                                   0.018405          12
 setg0                                   0.014121          13
 depsum                                  0.009694          12
 forhar                                  0.005997           2
 chggra                                  0.005834           1
 forloc                                  0.003331           1
 strelo                                  0.002855           1
 strehar                                 0.002714           1
 brgrid                                  0.002158           1
 brget                                   0.002042         432
 choleski                                0.001842          21
 strkin                                  0.000916           1
 brsav                                   0.000719         128
 brpre                                   0.000702          12
 vectorpot                               0.000068          13
 set_rsgf_all                            0.000062          14
 potlok_metagga                          0.000051          13
 set_dd_magatom                          0.000051          14
 set_kineden                             0.000039          11
 rotate_active_occupied_orbital          0.000015           1
 lprj_proall                             0.000007           1
 redis_pw_over_bands                     0.000003           1
 ---------------------------------------------------------------

Profiling took   1.306015  1.582355  0.005788  0.004422 seconds
Profiling took   1.268001 seconds
