<?xml version="1.0" encoding="ISO-8859-1"?>
<modeling>
 <generator>
  <i name="program" type="string">vasp </i>
  <i name="version" type="string">6.0.8  </i>
  <i name="subversion" type="string">29Jun18 (build Jun 13 2019 12:54:44) complex                          parallel </i>
  <i name="platform" type="string">IFC18_CrayMPICH </i>
  <i name="date" type="string">2021 12 05 </i>
  <i name="time" type="string">14:21:46 </i>
 </generator>
 <incar>
  <i type="int" name="KPAR">     4</i>
  <i type="int" name="NPAR">     4</i>
  <i type="int" name="ISTART">     0</i>
  <i type="string" name="PREC"> ACC</i>
  <i type="string" name="ALGO"> Normal</i>
  <i type="logical" name="ADDGRID"> T  </i>
  <i type="int" name="ISPIN">     1</i>
  <i type="int" name="NELMIN">     5</i>
  <i type="int" name="IBRION">    -1</i>
  <i name="EDIFF">      0.00000010</i>
  <i type="int" name="NSW">     0</i>
  <i type="int" name="ISIF">     3</i>
  <i name="ENCUT">    700.00000000</i>
  <i type="logical" name="LREAL"> F  </i>
  <i type="int" name="ISMEAR">     0</i>
  <i name="SIGMA">      0.01000000</i>
  <i type="logical" name="LWAVE"> F  </i>
  <i type="logical" name="LCHARG"> F  </i>
  <i type="logical" name="LVTOT"> F  </i>
  <i type="string" name="ALGO"> Normal</i>
  <i type="string" name="GGA"> PS</i>
  <i name="EDIFF">      0.00000010</i>
  <i type="int" name="ISPIN">     1</i>
 </incar>
 <structure name="primitive_cell" >
  <crystal>
   <varray name="basis" >
    <v>       0.00000000       3.28198748       3.28198748 </v>
    <v>       3.28198748       0.00000000       3.28198748 </v>
    <v>       3.28198748       3.28198748       0.00000000 </v>
   </varray>
   <i name="volume">     70.70347464 </i>
   <varray name="rec_basis" >
    <v>      -0.15234671       0.15234671       0.15234671 </v>
    <v>       0.15234671      -0.15234671       0.15234671 </v>
    <v>       0.15234671       0.15234671      -0.15234671 </v>
   </varray>
  </crystal>
  <varray name="positions" >
   <v>       0.25000000       0.25000000       0.25000000 </v>
   <v>       0.75000000       0.75000000       0.75000000 </v>
   <v>       0.00000000       0.00000000       0.00000000 </v>
  </varray>
 </structure>
 <varray name="primitive_index" >
  <v type="int" >        1 </v>
  <v type="int" >        2 </v>
  <v type="int" >        3 </v>
 </varray>
 <kpoints>
  <generation param="Gamma">
   <v type="int" name="divisions">      13       13       13 </v>
   <v name="usershift">      0.00000000       0.00000000       0.00000000 </v>
   <v name="genvec1">      0.07692308       0.00000000      -0.00000000 </v>
   <v name="genvec2">      0.00000000       0.07692308       0.00000000 </v>
   <v name="genvec3">     -0.00000000      -0.00000000       0.07692308 </v>
   <v name="shift">      0.00000000       0.00000000       0.00000000 </v>
  </generation>
  <varray name="kpointlist" >
   <v>       0.00000000       0.00000000       0.00000000 </v>
   <v>       0.07692308       0.00000000      -0.00000000 </v>
   <v>       0.15384615       0.00000000      -0.00000000 </v>
   <v>       0.23076923      -0.00000000      -0.00000000 </v>
   <v>       0.30769231       0.00000000      -0.00000000 </v>
   <v>       0.38461538      -0.00000000       0.00000000 </v>
   <v>       0.46153846      -0.00000000       0.00000000 </v>
   <v>       0.07692308       0.07692308      -0.00000000 </v>
   <v>       0.15384615       0.07692308      -0.00000000 </v>
   <v>       0.23076923       0.07692308      -0.00000000 </v>
   <v>       0.30769231       0.07692308       0.00000000 </v>
   <v>       0.38461538       0.07692308      -0.00000000 </v>
   <v>       0.46153846       0.07692308      -0.00000000 </v>
   <v>      -0.46153846       0.07692308       0.00000000 </v>
   <v>      -0.38461538       0.07692308       0.00000000 </v>
   <v>      -0.30769231       0.07692308      -0.00000000 </v>
   <v>      -0.23076923       0.07692308       0.00000000 </v>
   <v>      -0.15384615       0.07692308       0.00000000 </v>
   <v>      -0.07692308       0.07692308       0.00000000 </v>
   <v>       0.15384615       0.15384615      -0.00000000 </v>
   <v>       0.23076923       0.15384615       0.00000000 </v>
   <v>       0.30769231       0.15384615      -0.00000000 </v>
   <v>       0.38461538       0.15384615      -0.00000000 </v>
   <v>       0.46153846       0.15384615       0.00000000 </v>
   <v>      -0.46153846       0.15384615      -0.00000000 </v>
   <v>      -0.38461538       0.15384615       0.00000000 </v>
   <v>      -0.30769231       0.15384615      -0.00000000 </v>
   <v>      -0.23076923       0.15384615      -0.00000000 </v>
   <v>      -0.15384615       0.15384615       0.00000000 </v>
   <v>       0.23076923       0.23076923      -0.00000000 </v>
   <v>       0.30769231       0.23076923      -0.00000000 </v>
   <v>       0.38461538       0.23076923       0.00000000 </v>
   <v>       0.46153846       0.23076923       0.00000000 </v>
   <v>      -0.46153846       0.23076923      -0.00000000 </v>
   <v>      -0.38461538       0.23076923       0.00000000 </v>
   <v>      -0.30769231       0.23076923       0.00000000 </v>
   <v>      -0.23076923       0.23076923       0.00000000 </v>
   <v>       0.30769231       0.30769231      -0.00000000 </v>
   <v>       0.38461538       0.30769231       0.00000000 </v>
   <v>       0.46153846       0.30769231       0.00000000 </v>
   <v>      -0.46153846       0.30769231       0.00000000 </v>
   <v>      -0.38461538       0.30769231      -0.00000000 </v>
   <v>      -0.30769231       0.30769231       0.00000000 </v>
   <v>       0.38461538       0.38461538      -0.00000000 </v>
   <v>       0.46153846       0.38461538       0.00000000 </v>
   <v>      -0.46153846       0.38461538       0.00000000 </v>
   <v>      -0.38461538       0.38461538      -0.00000000 </v>
   <v>       0.46153846       0.46153846      -0.00000000 </v>
   <v>      -0.46153846       0.46153846      -0.00000000 </v>
   <v>       0.23076923       0.15384615       0.07692308 </v>
   <v>       0.30769231       0.15384615       0.07692308 </v>
   <v>       0.38461538       0.15384615       0.07692308 </v>
   <v>       0.46153846       0.15384615       0.07692308 </v>
   <v>      -0.46153846       0.15384615       0.07692308 </v>
   <v>       0.30769231       0.23076923       0.07692308 </v>
   <v>       0.38461538       0.23076923       0.07692308 </v>
   <v>       0.46153846       0.23076923       0.07692308 </v>
   <v>      -0.46153846       0.23076923       0.07692308 </v>
   <v>      -0.38461538       0.23076923       0.07692308 </v>
   <v>      -0.30769231       0.23076923       0.07692308 </v>
   <v>      -0.23076923       0.23076923       0.07692308 </v>
   <v>      -0.15384615       0.23076923       0.07692308 </v>
   <v>       0.38461538       0.30769231       0.07692308 </v>
   <v>       0.46153846       0.30769231       0.07692308 </v>
   <v>      -0.46153846       0.30769231       0.07692308 </v>
   <v>      -0.38461538       0.30769231       0.07692308 </v>
   <v>      -0.30769231       0.30769231       0.07692308 </v>
   <v>      -0.23076923       0.30769231       0.07692308 </v>
   <v>       0.46153846       0.38461538       0.07692308 </v>
   <v>      -0.46153846       0.38461538       0.07692308 </v>
   <v>      -0.38461538       0.38461538       0.07692308 </v>
   <v>      -0.30769231       0.38461538       0.07692308 </v>
   <v>      -0.46153846       0.46153846       0.07692308 </v>
   <v>      -0.38461538       0.46153846       0.07692308 </v>
   <v>       0.46153846       0.30769231       0.15384615 </v>
   <v>      -0.46153846       0.30769231       0.15384615 </v>
   <v>      -0.38461538       0.30769231       0.15384615 </v>
   <v>      -0.46153846       0.38461538       0.15384615 </v>
   <v>      -0.38461538       0.38461538       0.15384615 </v>
   <v>      -0.30769231       0.38461538       0.15384615 </v>
   <v>      -0.23076923       0.38461538       0.15384615 </v>
   <v>      -0.38461538       0.46153846       0.15384615 </v>
   <v>      -0.30769231       0.46153846       0.15384615 </v>
   <v>      -0.30769231       0.46153846       0.23076923 </v>
  </varray>
  <varray name="weights" >
   <v>       0.00045517 </v>
   <v>       0.00364133 </v>
   <v>       0.00364133 </v>
   <v>       0.00364133 </v>
   <v>       0.00364133 </v>
   <v>       0.00364133 </v>
   <v>       0.00364133 </v>
   <v>       0.00273100 </v>
   <v>       0.01092399 </v>
   <v>       0.01092399 </v>
   <v>       0.01092399 </v>
   <v>       0.01092399 </v>
   <v>       0.01092399 </v>
   <v>       0.01092399 </v>
   <v>       0.01092399 </v>
   <v>       0.01092399 </v>
   <v>       0.01092399 </v>
   <v>       0.01092399 </v>
   <v>       0.00546199 </v>
   <v>       0.00273100 </v>
   <v>       0.01092399 </v>
   <v>       0.01092399 </v>
   <v>       0.01092399 </v>
   <v>       0.01092399 </v>
   <v>       0.01092399 </v>
   <v>       0.01092399 </v>
   <v>       0.01092399 </v>
   <v>       0.01092399 </v>
   <v>       0.00546199 </v>
   <v>       0.00273100 </v>
   <v>       0.01092399 </v>
   <v>       0.01092399 </v>
   <v>       0.01092399 </v>
   <v>       0.01092399 </v>
   <v>       0.01092399 </v>
   <v>       0.01092399 </v>
   <v>       0.00546199 </v>
   <v>       0.00273100 </v>
   <v>       0.01092399 </v>
   <v>       0.01092399 </v>
   <v>       0.01092399 </v>
   <v>       0.01092399 </v>
   <v>       0.00546199 </v>
   <v>       0.00273100 </v>
   <v>       0.01092399 </v>
   <v>       0.01092399 </v>
   <v>       0.00546199 </v>
   <v>       0.00273100 </v>
   <v>       0.00546199 </v>
   <v>       0.01092399 </v>
   <v>       0.02184797 </v>
   <v>       0.02184797 </v>
   <v>       0.02184797 </v>
   <v>       0.02184797 </v>
   <v>       0.01092399 </v>
   <v>       0.02184797 </v>
   <v>       0.02184797 </v>
   <v>       0.02184797 </v>
   <v>       0.02184797 </v>
   <v>       0.02184797 </v>
   <v>       0.02184797 </v>
   <v>       0.01092399 </v>
   <v>       0.01092399 </v>
   <v>       0.02184797 </v>
   <v>       0.02184797 </v>
   <v>       0.02184797 </v>
   <v>       0.02184797 </v>
   <v>       0.01092399 </v>
   <v>       0.01092399 </v>
   <v>       0.02184797 </v>
   <v>       0.02184797 </v>
   <v>       0.01092399 </v>
   <v>       0.01092399 </v>
   <v>       0.01092399 </v>
   <v>       0.01092399 </v>
   <v>       0.02184797 </v>
   <v>       0.02184797 </v>
   <v>       0.01092399 </v>
   <v>       0.02184797 </v>
   <v>       0.02184797 </v>
   <v>       0.01092399 </v>
   <v>       0.01092399 </v>
   <v>       0.01092399 </v>
   <v>       0.01092399 </v>
  </varray>
 </kpoints>
 <parameters>
  <separator name="general" >
   <i type="string" name="SYSTEM">unknown system</i>
   <i type="logical" name="LCOMPAT"> F  </i>
  </separator>
  <separator name="electronic" >
   <i type="string" name="PREC">acc</i>
   <i name="ENMAX">    700.00000000</i>
   <i name="ENAUG">    535.43100000</i>
   <i name="EDIFF">      0.00000010</i>
   <i type="int" name="IALGO">    38</i>
   <i type="int" name="IWAVPR">    10</i>
   <i type="int" name="NBANDS">    24</i>
   <i type="int" name="NBANDSLOW">    -1</i>
   <i type="int" name="NBANDSHIGH">    -1</i>
   <i name="NELECT">     37.00000000</i>
   <i type="int" name="TURBO">     0</i>
   <i type="int" name="IRESTART">     0</i>
   <i type="int" name="NREBOOT">     0</i>
   <i type="int" name="NMIN">     0</i>
   <i name="EREF">      0.00000000</i>
   <separator name="electronic smearing" >
    <i type="int" name="ISMEAR">     0</i>
    <i name="SIGMA">      0.01000000</i>
    <i name="KSPACING">      0.50000000</i>
    <i type="logical" name="KGAMMA"> T  </i>
    <i type="logical" name="KBLOWUP"> T  </i>
   </separator>
   <separator name="electronic projectors" >
    <i type="logical" name="LREAL"> F  </i>
    <v name="ROPT">      0.00000000      0.00000000      0.00000000</v>
    <i type="int" name="LMAXPAW">  -100</i>
    <i type="int" name="LMAXMIX">     2</i>
    <i type="logical" name="NLSPLINE"> F  </i>
   </separator>
   <separator name="electronic startup" >
    <i type="int" name="ISTART">     0</i>
    <i type="int" name="ICHARG">     2</i>
    <i type="int" name="INIWAV">     1</i>
   </separator>
   <separator name="electronic spin" >
    <i type="int" name="ISPIN">     1</i>
    <i type="logical" name="LNONCOLLINEAR"> F  </i>
    <v name="MAGMOM">      1.00000000      1.00000000      1.00000000</v>
    <i name="NUPDOWN">     -1.00000000</i>
    <i type="logical" name="LSORBIT"> F  </i>
    <v name="SAXIS">      0.00000000      0.00000000      1.00000000</v>
    <i type="logical" name="LSPIRAL"> F  </i>
    <v name="QSPIRAL">      0.00000000      0.00000000      0.00000000</v>
    <i type="logical" name="LZEROZ"> F  </i>
   </separator>
   <separator name="electronic exchange-correlation" >
    <i type="logical" name="LASPH"> F  </i>
    <i type="logical" name="LMETAGGA"> F  </i>
   </separator>
   <separator name="electronic convergence" >
    <i type="int" name="NELM">    60</i>
    <i type="int" name="NELMDL">    -5</i>
    <i type="int" name="NELMIN">     5</i>
    <i name="ENINI">    700.00000000</i>
    <separator name="electronic convergence detail" >
     <i type="logical" name="LDIAG"> T  </i>
     <i type="logical" name="LSUBROT"> F  </i>
     <i name="WEIMIN">      0.00000000</i>
     <i name="EBREAK">      0.00000000</i>
     <i name="DEPER">      0.30000000</i>
     <i type="int" name="NRMM">     4</i>
     <i name="TIME">      0.40000000</i>
    </separator>
   </separator>
   <separator name="electronic mixer" >
    <i name="AMIX">      0.40000000</i>
    <i name="BMIX">      1.00000000</i>
    <i name="AMIN">      0.10000000</i>
    <i name="AMIX_MAG">      1.60000000</i>
    <i name="BMIX_MAG">      1.00000000</i>
    <separator name="electronic mixer details" >
     <i type="int" name="IMIX">     4</i>
     <i type="logical" name="MIXFIRST"> F  </i>
     <i type="int" name="MAXMIX">   -45</i>
     <i name="WC">    100.00000000</i>
     <i type="int" name="INIMIX">     1</i>
     <i type="int" name="MIXPRE">     1</i>
     <i type="int" name="MREMOVE">     5</i>
    </separator>
   </separator>
   <separator name="electronic dipolcorrection" >
    <i type="logical" name="LDIPOL"> F  </i>
    <i type="logical" name="LMONO"> F  </i>
    <i type="int" name="IDIPOL">     0</i>
    <i name="EPSILON">      1.00000000</i>
    <v name="DIPOL">   -100.00000000   -100.00000000   -100.00000000</v>
    <i name="EFIELD">      0.00000000</i>
   </separator>
  </separator>
  <separator name="grids" >
   <i type="int" name="NGX">    40</i>
   <i type="int" name="NGY">    40</i>
   <i type="int" name="NGZ">    40</i>
   <i type="int" name="NGXF">    80</i>
   <i type="int" name="NGYF">    80</i>
   <i type="int" name="NGZF">    80</i>
   <i type="logical" name="ADDGRID"> T  </i>
  </separator>
  <separator name="ionic" >
   <i type="int" name="NSW">     0</i>
   <i type="int" name="IBRION">    -1</i>
   <i type="int" name="MDALGO">     0</i>
   <i type="int" name="ISIF">     3</i>
   <i name="PSTRESS">      0.00000000</i>
   <i name="EDIFFG">      0.00000100</i>
   <i type="int" name="NFREE">     0</i>
   <i name="POTIM">      0.50000000</i>
   <i name="SMASS">     -3.00000000</i>
   <i name="SCALEE">      1.00000000</i>
  </separator>
  <separator name="ionic md" >
   <i name="TEBEG">      0.00010000</i>
   <i name="TEEND">      0.00010000</i>
   <i type="int" name="NBLOCK">     1</i>
   <i type="int" name="KBLOCK">     1</i>
   <i type="int" name="NPACO">   256</i>
   <i name="APACO">     16.00000000</i>
  </separator>
  <separator name="symmetry" >
   <i type="int" name="ISYM">     2</i>
   <i name="SYMPREC">      0.00001000</i>
  </separator>
  <separator name="dos" >
   <i type="int" name="LORBIT">     0</i>
   <v name="RWIGS">     -1.00000000     -1.00000000     -1.00000000</v>
   <i type="int" name="NEDOS">   301</i>
   <i name="EMIN">     10.00000000</i>
   <i name="EMAX">    -10.00000000</i>
   <i name="EFERMI">      0.00000000</i>
  </separator>
  <separator name="writing" >
   <i type="int" name="NWRITE">     2</i>
   <i type="logical" name="LWAVE"> F  </i>
   <i type="logical" name="LDOWNSAMPLE"> F  </i>
   <i type="logical" name="LCHARG"> F  </i>
   <i type="logical" name="LPARD"> F  </i>
   <i type="logical" name="LVTOT"> F  </i>
   <i type="logical" name="LVHAR"> F  </i>
   <i type="logical" name="LELF"> F  </i>
   <i type="logical" name="LOPTICS"> F  </i>
   <v name="STM">      0.00000000      0.00000000      0.00000000      0.00000000      0.00000000      0.00000000      0.00000000</v>
  </separator>
  <separator name="performance" >
   <i type="int" name="NPAR">     4</i>
   <i type="int" name="NSIM">     4</i>
   <i type="int" name="NBLK">    -1</i>
   <i type="logical" name="LPLANE"> T  </i>
   <i type="logical" name="LSCALAPACK"> T  </i>
   <i type="logical" name="LSCAAWARE"> F  </i>
   <i type="logical" name="LSCALU"> F  </i>
   <i type="logical" name="LASYNC"> F  </i>
   <i type="logical" name="LORBITALREAL"> F  </i>
  </separator>
  <separator name="miscellaneous" >
   <i type="int" name="IDIOT">     3</i>
   <i type="int" name="PHON_NSTRUCT">    -1</i>
   <i type="logical" name="LMUSIC"> F  </i>
   <v name="POMASS">    232.03900000    208.98000000    195.08000000</v>
   <v name="DARWINR">      0.00000000      0.00000000      0.00000000</v>
   <v name="DARWINV">      1.00000000      1.00000000      1.00000000</v>
   <i type="logical" name="LCORR"> T  </i>
  </separator>
  <i type="logical" name="GGA_COMPAT"> T  </i>
  <i type="logical" name="LBERRY"> F  </i>
  <i type="int" name="ICORELEVEL">     0</i>
  <i type="logical" name="LDAU"> F  </i>
  <i type="int" name="I_CONSTRAINED_M">     0</i>
  <separator name="electronic exchange-correlation" >
   <i type="string" name="GGA">PS</i>
   <i type="int" name="VOSKOWN">     0</i>
   <i type="logical" name="LHFCALC"> F  </i>
   <i type="string" name="PRECFOCK"></i>
   <i type="logical" name="LSYMGRAD"> F  </i>
   <i type="logical" name="LHFONE"> F  </i>
   <i type="logical" name="LRHFCALC"> F  </i>
   <i type="logical" name="LTHOMAS"> F  </i>
   <i type="logical" name="LMODELHF"> F  </i>
   <i type="logical" name="LFOCKACE"> F  </i>
   <i name="ENCUT4O">     -1.00000000</i>
   <i type="int" name="EXXOEP">     0</i>
   <i type="int" name="FOURORBIT">     0</i>
   <i name="AEXX">      0.00000000</i>
   <i name="HFALPHA">      0.00000000</i>
   <i name="MCALPHA">      0.00000000</i>
   <i name="ALDAX">      1.00000000</i>
   <i name="AGGAX">      1.00000000</i>
   <i name="ALDAC">      1.00000000</i>
   <i name="AGGAC">      1.00000000</i>
   <i type="int" name="NKREDX">     1</i>
   <i type="int" name="NKREDY">     1</i>
   <i type="int" name="NKREDZ">     1</i>
   <i type="logical" name="SHIFTRED"> F  </i>
   <i type="logical" name="ODDONLY"> F  </i>
   <i type="logical" name="EVENONLY"> F  </i>
   <i type="int" name="LMAXFOCK">     0</i>
   <i type="int" name="NMAXFOCKAE">     0</i>
   <i type="logical" name="LFOCKAEDFT"> F  </i>
   <i name="HFSCREEN">      0.00000000</i>
   <i name="HFSCREENC">      0.00000000</i>
   <i type="int" name="NBANDSGWLOW">     0</i>
  </separator>
  <separator name="vdW DFT" >
   <i type="logical" name="LUSE_VDW"> F  </i>
   <i name="Zab_VDW">     -0.84910000</i>
   <i name="PARAM1">      0.12340000</i>
   <i name="PARAM2">      1.00000000</i>
   <i name="PARAM3">      0.00000000</i>
  </separator>
  <separator name="model GW" >
   <i type="int" name="MODEL_GW">     0</i>
   <i name="MODEL_EPS0">     14.14069493</i>
   <i name="MODEL_ALPHA">      1.00000000</i>
  </separator>
  <separator name="linear response parameters" >
   <i type="logical" name="LEPSILON"> F  </i>
   <i type="logical" name="LRPA"> F  </i>
   <i type="logical" name="LNABLA"> F  </i>
   <i type="logical" name="LVEL"> F  </i>
   <i type="int" name="KINTER">     0</i>
   <i name="CSHIFT">      0.10000000</i>
   <i name="OMEGAMAX">     -1.00000000</i>
   <i name="DEG_THRESHOLD">      0.00200000</i>
   <i name="RTIME">     -0.10000000</i>
   <i name="WPLASMAI">      0.00000000</i>
   <v name="DFIELD">      0.00000000      0.00000000      0.00000000</v>
   <v name="WPLASMA">      0.00000000      0.00000000      0.00000000      0.00000000      0.00000000      0.00000000      0.00000000      0.00000000      0.00000000</v>
  </separator>
  <separator name="orbital magnetization" >
   <i type="logical" name="NUCIND"> F  </i>
   <v name="MAGPOS">      0.00000000      0.00000000      0.00000000</v>
   <i type="logical" name="LNICSALL"> T  </i>
   <i type="logical" name="ORBITALMAG"> F  </i>
   <i type="logical" name="LMAGBLOCH"> F  </i>
   <i type="logical" name="LCHIMAG"> F  </i>
   <i type="logical" name="LGAUGE"> T  </i>
   <i type="int" name="MAGATOM">     0</i>
   <v name="MAGDIPOL">      0.00000000      0.00000000      0.00000000</v>
   <v name="AVECCONST">      0.00000000      0.00000000      0.00000000</v>
  </separator>
  <separator name="response functions" >
   <i type="logical" name="LFINITE_TEMPERATURE"> F  </i>
   <i type="logical" name="LADDER"> F  </i>
   <i type="logical" name="LRPAFORCE"> F  </i>
   <i type="logical" name="LFXC"> F  </i>
   <i type="logical" name="LHARTREE"> T  </i>
   <i type="int" name="IBSE">     0</i>
   <v type="int" name="KPOINT">    -1     0     0     0</v>
   <i type="logical" name="LTCTC"> F  </i>
   <i type="logical" name="LTCTE"> F  </i>
   <i type="logical" name="LTETE"> F  </i>
   <i type="logical" name="LTRIPLET"> F  </i>
   <i type="logical" name="LFXCEPS"> F  </i>
   <i type="logical" name="LFXHEG"> F  </i>
   <i type="int" name="NATURALO">     2</i>
   <i type="logical" name="L2ORDER"> F  </i>
   <i type="logical" name="LDMP1"> F  </i>
   <i type="logical" name="LMP2LT"> F  </i>
   <i type="logical" name="LSMP2LT"> F  </i>
   <i type="logical" name="LUSEW"> F  </i>
   <i name="ENCUTGW">     -2.00000000</i>
   <i name="ENCUTGWSOFT">     -2.00000000</i>
   <i name="ENCUTLF">     -1.00000000</i>
   <i type="int" name="LMAXMP2">    -1</i>
   <i name="SCISSOR">      0.00000000</i>
   <i type="int" name="NOMEGA">     0</i>
   <i type="int" name="NOMEGAR">     0</i>
   <i type="int" name="NBANDSGW">    -1</i>
   <i type="int" name="NBANDSO">    -1</i>
   <i type="int" name="NBANDSV">    -1</i>
   <i type="int" name="NELM">     1</i>
   <i type="int" name="NELMHF">     1</i>
   <i type="int" name="DIM">     3</i>
   <i type="int" name="IESPILON">     4</i>
   <i type="int" name="ANTIRES">     0</i>
   <i name="OMEGAMAX">    -30.00000000</i>
   <i name="OMEGAMIN">    -30.00000000</i>
   <i name="OMEGATL">   -200.00000000</i>
   <i type="int" name="OMEGAGRID">   145</i>
   <i name="CSHIFT">     -0.10000000</i>
   <i type="logical" name="LSELFENERGY"> F  </i>
   <i type="logical" name="LSPECTRAL"> F  </i>
   <i type="logical" name="LSPECTRALGW"> F  </i>
   <i type="logical" name="LSINGLES"> F  </i>
   <i type="logical" name="LFERMIGW"> F  </i>
   <i type="logical" name="ODDONLYGW"> F  </i>
   <i type="logical" name="EVENONLYGW"> F  </i>
   <i type="int" name="NKREDLFX">     1</i>
   <i type="int" name="NKREDLFY">     1</i>
   <i type="int" name="NKREDLFZ">     1</i>
   <i type="int" name="MAXMEM">  2800</i>
   <i type="int" name="TELESCOPE">     0</i>
   <i type="int" name="NTAUPAR">     1</i>
   <i type="int" name="NOMEGAPAR">    -1</i>
   <i name="LAMBDA">      1.00000000</i>
  </separator>
  <separator name="External order field" >
   <i name="OFIELD_KAPPA">      0.00000000</i>
   <v name="OFIELD_K">      0.00000000      0.00000000      0.00000000</v>
   <i name="OFIELD_Q6_NEAR">      0.00000000</i>
   <i name="OFIELD_Q6_FAR">      0.00000000</i>
   <i name="OFIELD_A">      0.00000000</i>
  </separator>
 </parameters>
 <atominfo>
  <atoms>       3 </atoms>
  <types>       3 </types>
  <array name="atoms" >
   <dimension dim="1">ion</dimension>
   <field type="string">element</field>
   <field type="int">atomtype</field>
   <set>
    <rc><c>Th</c><c>   1</c></rc>
    <rc><c>Bi</c><c>   2</c></rc>
    <rc><c>Pt</c><c>   3</c></rc>
   </set>
  </array>
  <array name="atomtypes" >
   <dimension dim="1">type</dimension>
   <field type="int">atomspertype</field>
   <field type="string">element</field>
   <field>mass</field>
   <field>valence</field>
   <field type="string">pseudopotential</field>
   <set>
    <rc><c>   1</c><c>Th</c><c>    232.03900000</c><c>     12.00000000</c><c>  PAW_PBE Th 07Sep2000                  </c></rc>
    <rc><c>   1</c><c>Bi</c><c>    208.98000000</c><c>     15.00000000</c><c>  PAW_PBE Bi_d 06Sep2000                </c></rc>
    <rc><c>   1</c><c>Pt</c><c>    195.08000000</c><c>     10.00000000</c><c>  PAW_PBE Pt 04Feb2005                  </c></rc>
   </set>
  </array>
 </atominfo>
 <structure name="initialpos" >
  <crystal>
   <varray name="basis" >
    <v>       0.00000000       3.28198748       3.28198748 </v>
    <v>       3.28198748       0.00000000       3.28198748 </v>
    <v>       3.28198748       3.28198748       0.00000000 </v>
   </varray>
   <i name="volume">     70.70347464 </i>
   <varray name="rec_basis" >
    <v>      -0.15234671       0.15234671       0.15234671 </v>
    <v>       0.15234671      -0.15234671       0.15234671 </v>
    <v>       0.15234671       0.15234671      -0.15234671 </v>
   </varray>
  </crystal>
  <varray name="positions" >
   <v>       0.25000000       0.25000000       0.25000000 </v>
   <v>       0.75000000       0.75000000       0.75000000 </v>
   <v>       0.00000000       0.00000000       0.00000000 </v>
  </varray>
 </structure>
 <calculation>
  <scstep>
   <time name="dav">    1.43    1.45</time>
   <time name="total">    1.58    1.67</time>
   <energy>
    <i name="alphaZ">    243.00874979 </i>
    <i name="ewald">  -3263.93088959 </i>
    <i name="hartreedc">   -699.87389053 </i>
    <i name="XCdc">     69.77648480 </i>
    <i name="pawpsdc">   3147.30828992 </i>
    <i name="pawaedc">  -3070.62761383 </i>
    <i name="eentropy">     -0.00032684 </i>
    <i name="bandstr">    351.23371794 </i>
    <i name="atom">   3674.67342263 </i>
    <i name="e_fr_energy">    451.56794430 </i>
    <i name="e_wo_entrp">    451.56827113 </i>
    <i name="e_0_energy">    451.56810771 </i>
   </energy>
  </scstep>
  <scstep>
   <time name="dav">    1.44    1.46</time>
   <time name="total">    1.44    1.47</time>
   <energy>
    <i name="e_fr_energy">     46.59816500 </i>
    <i name="e_wo_entrp">     46.59833726 </i>
    <i name="e_0_energy">     46.59825113 </i>
   </energy>
  </scstep>
  <scstep>
   <time name="dav">    1.82    1.85</time>
   <time name="total">    1.82    1.85</time>
   <energy>
    <i name="e_fr_energy">    -18.13915717 </i>
    <i name="e_wo_entrp">    -18.13895336 </i>
    <i name="e_0_energy">    -18.13905527 </i>
   </energy>
  </scstep>
  <scstep>
   <time name="dav">    2.24    2.26</time>
   <time name="total">    2.24    2.26</time>
   <energy>
    <i name="e_fr_energy">    -22.23357220 </i>
    <i name="e_wo_entrp">    -22.23331324 </i>
    <i name="e_0_energy">    -22.23344272 </i>
   </energy>
  </scstep>
  <scstep>
   <time name="dav">    1.82    1.84</time>
   <time name="total">    2.16    2.18</time>
   <energy>
    <i name="e_fr_energy">    -22.33890032 </i>
    <i name="e_wo_entrp">    -22.33864704 </i>
    <i name="e_0_energy">    -22.33877368 </i>
   </energy>
  </scstep>
  <scstep>
   <time name="dav">    1.67    1.67</time>
   <time name="total">    2.08    2.11</time>
   <energy>
    <i name="e_fr_energy">    -21.55051558 </i>
    <i name="e_wo_entrp">    -21.55039053 </i>
    <i name="e_0_energy">    -21.55045306 </i>
   </energy>
  </scstep>
  <scstep>
   <time name="dav">    1.89    1.89</time>
   <time name="total">    2.28    2.32</time>
   <energy>
    <i name="e_fr_energy">    -21.39982013 </i>
    <i name="e_wo_entrp">    -21.39953837 </i>
    <i name="e_0_energy">    -21.39967925 </i>
   </energy>
  </scstep>
  <scstep>
   <time name="dav">    1.77    1.77</time>
   <time name="total">    2.17    2.20</time>
   <energy>
    <i name="e_fr_energy">    -21.36830820 </i>
    <i name="e_wo_entrp">    -21.36821162 </i>
    <i name="e_0_energy">    -21.36825991 </i>
   </energy>
  </scstep>
  <scstep>
   <time name="dav">    1.91    1.91</time>
   <time name="total">    2.32    2.35</time>
   <energy>
    <i name="e_fr_energy">    -21.36276533 </i>
    <i name="e_wo_entrp">    -21.36266115 </i>
    <i name="e_0_energy">    -21.36271324 </i>
   </energy>
  </scstep>
  <scstep>
   <time name="dav">    1.81    1.81</time>
   <time name="total">    2.22    2.24</time>
   <energy>
    <i name="e_fr_energy">    -21.35927196 </i>
    <i name="e_wo_entrp">    -21.35916732 </i>
    <i name="e_0_energy">    -21.35921964 </i>
   </energy>
  </scstep>
  <scstep>
   <time name="dav">    1.78    1.78</time>
   <time name="total">    2.18    2.22</time>
   <energy>
    <i name="e_fr_energy">    -21.35933975 </i>
    <i name="e_wo_entrp">    -21.35923457 </i>
    <i name="e_0_energy">    -21.35928716 </i>
   </energy>
  </scstep>
  <scstep>
   <time name="dav">    1.92    1.92</time>
   <time name="total">    2.32    2.35</time>
   <energy>
    <i name="e_fr_energy">    -21.35929326 </i>
    <i name="e_wo_entrp">    -21.35918753 </i>
    <i name="e_0_energy">    -21.35924040 </i>
   </energy>
  </scstep>
  <scstep>
   <time name="dav">    1.99    1.99</time>
   <time name="total">    2.38    2.42</time>
   <energy>
    <i name="e_fr_energy">    -21.35929543 </i>
    <i name="e_wo_entrp">    -21.35918954 </i>
    <i name="e_0_energy">    -21.35924249 </i>
   </energy>
  </scstep>
  <scstep>
   <time name="dav">    1.75    1.75</time>
   <time name="total">    2.15    2.18</time>
   <energy>
    <i name="e_fr_energy">    -21.35929498 </i>
    <i name="e_wo_entrp">    -21.35918916 </i>
    <i name="e_0_energy">    -21.35924207 </i>
   </energy>
  </scstep>
  <scstep>
   <time name="dav">    2.09    2.09</time>
   <time name="total">    2.49    2.51</time>
   <energy>
    <i name="e_fr_energy">    -21.35929469 </i>
    <i name="e_wo_entrp">    -21.35918893 </i>
    <i name="e_0_energy">    -21.35924181 </i>
   </energy>
  </scstep>
  <scstep>
   <time name="dav">    1.30    1.30</time>
   <time name="total">    1.44    1.46</time>
   <energy>
    <i name="alphaZ">    243.00874979 </i>
    <i name="ewald">  -3263.93088959 </i>
    <i name="hartreedc">   -673.31677709 </i>
    <i name="XCdc">     69.11149052 </i>
    <i name="pawpsdc">   4291.11474255 </i>
    <i name="pawaedc">  -4225.29525808 </i>
    <i name="eentropy">     -0.00010577 </i>
    <i name="bandstr">   -136.72466963 </i>
    <i name="atom">   3674.67342263 </i>
    <i name="e_fr_energy">    -21.35929468 </i>
    <i name="e_wo_entrp">    -21.35918891 </i>
    <i name="e_0_energy">    -21.35924179 </i>
   </energy>
  </scstep>
  <structure>
   <crystal>
    <varray name="basis" >
     <v>       0.00000000       3.28198748       3.28198748 </v>
     <v>       3.28198748       0.00000000       3.28198748 </v>
     <v>       3.28198748       3.28198748       0.00000000 </v>
    </varray>
    <i name="volume">     70.70347464 </i>
    <varray name="rec_basis" >
     <v>      -0.15234671       0.15234671       0.15234671 </v>
     <v>       0.15234671      -0.15234671       0.15234671 </v>
     <v>       0.15234671       0.15234671      -0.15234671 </v>
    </varray>
   </crystal>
   <varray name="positions" >
    <v>       0.25000000       0.25000000       0.25000000 </v>
    <v>       0.75000000       0.75000000       0.75000000 </v>
    <v>       0.00000000       0.00000000       0.00000000 </v>
   </varray>
  </structure>
  <varray name="forces" >
   <v>       0.00000000      -0.00000000       0.00000000 </v>
   <v>       0.00000000      -0.00000000       0.00000000 </v>
   <v>      -0.00000000       0.00000000      -0.00000000 </v>
  </varray>
  <varray name="stress" >
   <v>     183.38547786      -0.00000000       0.00000000 </v>
   <v>       0.00000000     183.38547786      -0.00000000 </v>
   <v>      -0.00000000       0.00000000     183.38547786 </v>
  </varray>
  <energy>
   <i name="e_fr_energy">    -21.35929468 </i>
   <i name="e_wo_entrp">    -21.35924179 </i>
   <i name="e_0_energy">     -0.00010577 </i>
  </energy>
  <time name="totalsc">   36.78   37.82</time>
  <eigenvalues>
   <array>
    <dimension dim="1">band</dimension>
    <dimension dim="2">kpoint</dimension>
    <dimension dim="3">spin</dimension>
    <field>eigene</field>
    <field>occ</field>
    <set>
     <set comment="spin 1">
      <set comment="kpoint 1">
       <r>  -29.5879    1.0000 </r>
       <r>  -13.1150    1.0000 </r>
       <r>  -13.1150    1.0000 </r>
       <r>  -13.0714    1.0000 </r>
       <r>  -13.0714    1.0000 </r>
       <r>  -13.0714    1.0000 </r>
       <r>   -7.7932    1.0000 </r>
       <r>   -7.7932    1.0000 </r>
       <r>   -7.7932    1.0000 </r>
       <r>   -2.8612    1.0000 </r>
       <r>    5.2821    1.0000 </r>
       <r>    5.2821    1.0000 </r>
       <r>    5.2821    1.0000 </r>
       <r>    5.3446    1.0000 </r>
       <r>    5.3446    1.0000 </r>
       <r>    8.7573    1.0000 </r>
       <r>    8.8078    1.0000 </r>
       <r>    8.8078    1.0000 </r>
       <r>    8.8078    1.0000 </r>
       <r>   10.3047    0.0000 </r>
       <r>   10.3047    0.0000 </r>
       <r>   10.3047    0.0000 </r>
       <r>   11.2696    0.0000 </r>
       <r>   12.4676    0.0000 </r>
      </set>
      <set comment="kpoint 2">
       <r>  -29.5872    1.0000 </r>
       <r>  -13.1164    1.0000 </r>
       <r>  -13.1164    1.0000 </r>
       <r>  -13.0717    1.0000 </r>
       <r>  -13.0711    1.0000 </r>
       <r>  -13.0711    1.0000 </r>
       <r>   -7.8260    1.0000 </r>
       <r>   -7.7885    1.0000 </r>
       <r>   -7.7885    1.0000 </r>
       <r>   -2.7692    1.0000 </r>
       <r>    5.0543    1.0000 </r>
       <r>    5.0543    1.0000 </r>
       <r>    5.1480    1.0000 </r>
       <r>    5.5599    1.0000 </r>
       <r>    5.5599    1.0000 </r>
       <r>    7.9754    1.0000 </r>
       <r>    8.7199    1.0000 </r>
       <r>    8.7199    1.0000 </r>
       <r>    9.3879    1.0000 </r>
       <r>   10.4141    0.0000 </r>
       <r>   10.4141    0.0000 </r>
       <r>   10.4556    0.0000 </r>
       <r>   11.5598    0.0000 </r>
       <r>   12.4728    0.0000 </r>
      </set>
      <set comment="kpoint 3">
       <r>  -29.5852    1.0000 </r>
       <r>  -13.1202    1.0000 </r>
       <r>  -13.1202    1.0000 </r>
       <r>  -13.0727    1.0000 </r>
       <r>  -13.0704    1.0000 </r>
       <r>  -13.0704    1.0000 </r>
       <r>   -7.9111    1.0000 </r>
       <r>   -7.7755    1.0000 </r>
       <r>   -7.7755    1.0000 </r>
       <r>   -2.5181    1.0000 </r>
       <r>    4.7979    1.0000 </r>
       <r>    4.8296    1.0000 </r>
       <r>    4.8296    1.0000 </r>
       <r>    5.7324    1.0000 </r>
       <r>    5.7324    1.0000 </r>
       <r>    7.2409    1.0000 </r>
       <r>    8.5455    1.0000 </r>
       <r>    8.5455    1.0000 </r>
       <r>    9.5087    1.0000 </r>
       <r>   10.6729    0.0000 </r>
       <r>   10.6729    0.0000 </r>
       <r>   11.1174    0.0000 </r>
       <r>   12.1033    0.0000 </r>
       <r>   12.4777    0.0000 </r>
      </set>
      <set comment="kpoint 4">
       <r>  -29.5824    1.0000 </r>
       <r>  -13.1256    1.0000 </r>
       <r>  -13.1256    1.0000 </r>
       <r>  -13.0742    1.0000 </r>
       <r>  -13.0694    1.0000 </r>
       <r>  -13.0694    1.0000 </r>
       <r>   -8.0186    1.0000 </r>
       <r>   -7.7572    1.0000 </r>
       <r>   -7.7572    1.0000 </r>
       <r>   -2.1719    1.0000 </r>
       <r>    4.3503    1.0000 </r>
       <r>    4.6634    1.0000 </r>
       <r>    4.6634    1.0000 </r>
       <r>    5.7812    1.0000 </r>
       <r>    5.7812    1.0000 </r>
       <r>    6.6620    1.0000 </r>
       <r>    8.4130    1.0000 </r>
       <r>    8.4130    1.0000 </r>
       <r>    9.5309    1.0000 </r>
       <r>   10.9875    0.0000 </r>
       <r>   10.9875    0.0000 </r>
       <r>   11.8772    0.0000 </r>
       <r>   12.4610    0.0000 </r>
       <r>   12.4612    0.0000 </r>
      </set>
      <set comment="kpoint 5">
       <r>  -29.5795    1.0000 </r>
       <r>  -13.1313    1.0000 </r>
       <r>  -13.1313    1.0000 </r>
       <r>  -13.0762    1.0000 </r>
       <r>  -13.0683    1.0000 </r>
       <r>  -13.0683    1.0000 </r>
       <r>   -8.1191    1.0000 </r>
       <r>   -7.7380    1.0000 </r>
       <r>   -7.7380    1.0000 </r>
       <r>   -1.8129    1.0000 </r>
       <r>    3.9267    1.0000 </r>
       <r>    4.5678    1.0000 </r>
       <r>    4.5678    1.0000 </r>
       <r>    5.7028    1.0000 </r>
       <r>    5.7028    1.0000 </r>
       <r>    6.2561    1.0000 </r>
       <r>    8.3684    1.0000 </r>
       <r>    8.3684    1.0000 </r>
       <r>    9.6234    1.0000 </r>
       <r>   11.3000    0.0000 </r>
       <r>   11.3000    0.0000 </r>
       <r>   12.3722    0.0000 </r>
       <r>   12.4286    0.0000 </r>
       <r>   12.4287    0.0000 </r>
      </set>
      <set comment="kpoint 6">
       <r>  -29.5771    1.0000 </r>
       <r>  -13.1360    1.0000 </r>
       <r>  -13.1360    1.0000 </r>
       <r>  -13.0780    1.0000 </r>
       <r>  -13.0673    1.0000 </r>
       <r>  -13.0673    1.0000 </r>
       <r>   -8.1937    1.0000 </r>
       <r>   -7.7221    1.0000 </r>
       <r>   -7.7221    1.0000 </r>
       <r>   -1.5221    1.0000 </r>
       <r>    3.6127    1.0000 </r>
       <r>    4.5362    1.0000 </r>
       <r>    4.5362    1.0000 </r>
       <r>    5.5620    1.0000 </r>
       <r>    5.5620    1.0000 </r>
       <r>    6.0095    1.0000 </r>
       <r>    8.3806    1.0000 </r>
       <r>    8.3806    1.0000 </r>
       <r>    9.7953    1.0000 </r>
       <r>   11.5559    0.0000 </r>
       <r>   11.5559    0.0000 </r>
       <r>   12.3964    0.0000 </r>
       <r>   12.3964    0.0000 </r>
       <r>   12.4919    0.0000 </r>
      </set>
      <set comment="kpoint 7">
       <r>  -29.5757    1.0000 </r>
       <r>  -13.1387    1.0000 </r>
       <r>  -13.1387    1.0000 </r>
       <r>  -13.0792    1.0000 </r>
       <r>  -13.0668    1.0000 </r>
       <r>  -13.0668    1.0000 </r>
       <r>   -8.2326    1.0000 </r>
       <r>   -7.7132    1.0000 </r>
       <r>   -7.7132    1.0000 </r>
       <r>   -1.3612    1.0000 </r>
       <r>    3.4500    1.0000 </r>
       <r>    4.5394    1.0000 </r>
       <r>    4.5394    1.0000 </r>
       <r>    5.4539    1.0000 </r>
       <r>    5.4539    1.0000 </r>
       <r>    5.8966    1.0000 </r>
       <r>    8.4006    1.0000 </r>
       <r>    8.4006    1.0000 </r>
       <r>    9.9699    1.0000 </r>
       <r>   11.7008    0.0000 </r>
       <r>   11.7008    0.0000 </r>
       <r>   12.2775    0.0000 </r>
       <r>   12.3742    0.0000 </r>
       <r>   12.3742    0.0000 </r>
      </set>
      <set comment="kpoint 8">
       <r>  -29.5869    1.0000 </r>
       <r>  -13.1189    1.0000 </r>
       <r>  -13.1145    1.0000 </r>
       <r>  -13.0720    1.0000 </r>
       <r>  -13.0710    1.0000 </r>
       <r>  -13.0710    1.0000 </r>
       <r>   -7.8195    1.0000 </r>
       <r>   -7.7956    1.0000 </r>
       <r>   -7.7956    1.0000 </r>
       <r>   -2.7410    1.0000 </r>
       <r>    4.7658    1.0000 </r>
       <r>    5.2933    1.0000 </r>
       <r>    5.2933    1.0000 </r>
       <r>    5.3620    1.0000 </r>
       <r>    5.6143    1.0000 </r>
       <r>    7.9702    1.0000 </r>
       <r>    8.5841    1.0000 </r>
       <r>    8.5841    1.0000 </r>
       <r>    9.6659    1.0000 </r>
       <r>   10.1042    0.9747 </r>
       <r>   10.6038    0.0000 </r>
       <r>   10.6038    0.0000 </r>
       <r>   11.6120    0.0000 </r>
       <r>   12.4332    0.0000 </r>
      </set>
      <set comment="kpoint 9">
       <r>  -29.5854    1.0000 </r>
       <r>  -13.1232    1.0000 </r>
       <r>  -13.1155    1.0000 </r>
       <r>  -13.0728    1.0000 </r>
       <r>  -13.0704    1.0000 </r>
       <r>  -13.0703    1.0000 </r>
       <r>   -7.8825    1.0000 </r>
       <r>   -7.7932    1.0000 </r>
       <r>   -7.7823    1.0000 </r>
       <r>   -2.5507    1.0000 </r>
       <r>    4.4537    1.0000 </r>
       <r>    5.1081    1.0000 </r>
       <r>    5.1327    1.0000 </r>
       <r>    5.5462    1.0000 </r>
       <r>    5.7503    1.0000 </r>
       <r>    7.4590    1.0000 </r>
       <r>    8.4091    1.0000 </r>
       <r>    8.4151    1.0000 </r>
       <r>    9.8969    1.0000 </r>
       <r>   10.1736    0.0000 </r>
       <r>   10.8781    0.0000 </r>
       <r>   11.0557    0.0000 </r>
       <r>   12.0065    0.0000 </r>
       <r>   12.4010    0.0000 </r>
      </set>
      <set comment="kpoint 10">
       <r>  -29.5829    1.0000 </r>
       <r>  -13.1282    1.0000 </r>
       <r>  -13.1191    1.0000 </r>
       <r>  -13.0740    1.0000 </r>
       <r>  -13.0697    1.0000 </r>
       <r>  -13.0693    1.0000 </r>
       <r>   -7.9810    1.0000 </r>
       <r>   -7.7817    1.0000 </r>
       <r>   -7.7619    1.0000 </r>
       <r>   -2.2499    1.0000 </r>
       <r>    4.1654    1.0000 </r>
       <r>    4.8293    1.0000 </r>
       <r>    4.9330    1.0000 </r>
       <r>    5.6404    1.0000 </r>
       <r>    5.8550    1.0000 </r>
       <r>    6.8986    1.0000 </r>
       <r>    8.2569    1.0000 </r>
       <r>    8.3002    1.0000 </r>
       <r>    9.8306    1.0000 </r>
       <r>   10.5919    0.0000 </r>
       <r>   11.1601    0.0000 </r>
       <r>   11.6993    0.0000 </r>
       <r>   12.3757    0.0000 </r>
       <r>   12.4346    0.0000 </r>
      </set>
      <set comment="kpoint 11">
       <r>  -29.5800    1.0000 </r>
       <r>  -13.1330    1.0000 </r>
       <r>  -13.1244    1.0000 </r>
       <r>  -13.0756    1.0000 </r>
       <r>  -13.0689    1.0000 </r>
       <r>  -13.0681    1.0000 </r>
       <r>   -8.0815    1.0000 </r>
       <r>   -7.7640    1.0000 </r>
       <r>   -7.7434    1.0000 </r>
       <r>   -1.9148    1.0000 </r>
       <r>    3.9016    1.0000 </r>
       <r>    4.5803    1.0000 </r>
       <r>    4.8062    1.0000 </r>
       <r>    5.6025    1.0000 </r>
       <r>    5.8472    1.0000 </r>
       <r>    6.4427    1.0000 </r>
       <r>    8.1846    1.0000 </r>
       <r>    8.2864    1.0000 </r>
       <r>    9.7896    1.0000 </r>
       <r>   11.0410    0.0000 </r>
       <r>   11.4196    0.0000 </r>
       <r>   12.2093    0.0000 </r>
       <r>   12.3600    0.0000 </r>
       <r>   12.4848    0.0000 </r>
      </set>
      <set comment="kpoint 12">
       <r>  -29.5775    1.0000 </r>
       <r>  -13.1363    1.0000 </r>
       <r>  -13.1303    1.0000 </r>
       <r>  -13.0773    1.0000 </r>
       <r>  -13.0680    1.0000 </r>
       <r>  -13.0671    1.0000 </r>
       <r>   -8.1621    1.0000 </r>
       <r>   -7.7440    1.0000 </r>
       <r>   -7.7312    1.0000 </r>
       <r>   -1.6242    1.0000 </r>
       <r>    3.6813    1.0000 </r>
       <r>    4.4672    1.0000 </r>
       <r>    4.7146    1.0000 </r>
       <r>    5.5023    1.0000 </r>
       <r>    5.7406    1.0000 </r>
       <r>    6.1269    1.0000 </r>
       <r>    8.1918    1.0000 </r>
       <r>    8.3236    1.0000 </r>
       <r>    9.8526    1.0000 </r>
       <r>   11.4029    0.0000 </r>
       <r>   11.6291    0.0000 </r>
       <r>   12.3302    0.0000 </r>
       <r>   12.3513    0.0000 </r>
       <r>   12.5523    0.0000 </r>
      </set>
      <set comment="kpoint 13">
       <r>  -29.5757    1.0000 </r>
       <r>  -13.1374    1.0000 </r>
       <r>  -13.1353    1.0000 </r>
       <r>  -13.0785    1.0000 </r>
       <r>  -13.0674    1.0000 </r>
       <r>  -13.0665    1.0000 </r>
       <r>   -8.2109    1.0000 </r>
       <r>   -7.7278    1.0000 </r>
       <r>   -7.7263    1.0000 </r>
       <r>   -1.4382    1.0000 </r>
       <r>    3.5433    1.0000 </r>
       <r>    4.4776    1.0000 </r>
       <r>    4.6222    1.0000 </r>
       <r>    5.4490    1.0000 </r>
       <r>    5.5948    1.0000 </r>
       <r>    5.9549    1.0000 </r>
       <r>    8.2263    1.0000 </r>
       <r>    8.3558    1.0000 </r>
       <r>    9.9939    1.0000 </r>
       <r>   11.5845    0.0000 </r>
       <r>   11.7497    0.0000 </r>
       <r>   12.2840    0.0000 </r>
       <r>   12.3436    0.0000 </r>
       <r>   12.4972    0.0000 </r>
      </set>
      <set comment="kpoint 14">
       <r>  -29.5753    1.0000 </r>
       <r>  -13.1384    1.0000 </r>
       <r>  -13.1362    1.0000 </r>
       <r>  -13.0788    1.0000 </r>
       <r>  -13.0671    1.0000 </r>
       <r>  -13.0665    1.0000 </r>
       <r>   -8.2231    1.0000 </r>
       <r>   -7.7338    1.0000 </r>
       <r>   -7.7148    1.0000 </r>
       <r>   -1.3878    1.0000 </r>
       <r>    3.5067    1.0000 </r>
       <r>    4.5131    1.0000 </r>
       <r>    4.5639    1.0000 </r>
       <r>    5.4822    1.0000 </r>
       <r>    5.5055    1.0000 </r>
       <r>    5.9156    1.0000 </r>
       <r>    8.2369    1.0000 </r>
       <r>    8.3600    1.0000 </r>
       <r>   10.0684    1.0000 </r>
       <r>   11.6106    0.0000 </r>
       <r>   11.7425    0.0000 </r>
       <r>   12.2823    0.0000 </r>
       <r>   12.3440    0.0000 </r>
       <r>   12.4360    0.0000 </r>
      </set>
      <set comment="kpoint 15">
       <r>  -29.5762    1.0000 </r>
       <r>  -13.1387    1.0000 </r>
       <r>  -13.1328    1.0000 </r>
       <r>  -13.0780    1.0000 </r>
       <r>  -13.0673    1.0000 </r>
       <r>  -13.0671    1.0000 </r>
       <r>   -8.1980    1.0000 </r>
       <r>   -7.7475    1.0000 </r>
       <r>   -7.7122    1.0000 </r>
       <r>   -1.4805    1.0000 </r>
       <r>    3.5796    1.0000 </r>
       <r>    4.4217    1.0000 </r>
       <r>    4.6759    1.0000 </r>
       <r>    5.4594    1.0000 </r>
       <r>    5.6478    1.0000 </r>
       <r>    6.0009    1.0000 </r>
       <r>    8.1956    1.0000 </r>
       <r>    8.3466    1.0000 </r>
       <r>    9.9736    1.0000 </r>
       <r>   11.5870    0.0000 </r>
       <r>   11.6529    0.0000 </r>
       <r>   12.3043    0.0000 </r>
       <r>   12.3612    0.0000 </r>
       <r>   12.5324    0.0000 </r>
      </set>
      <set comment="kpoint 16">
       <r>  -29.5783    1.0000 </r>
       <r>  -13.1364    1.0000 </r>
       <r>  -13.1280    1.0000 </r>
       <r>  -13.0765    1.0000 </r>
       <r>  -13.0680    1.0000 </r>
       <r>  -13.0679    1.0000 </r>
       <r>   -8.1380    1.0000 </r>
       <r>   -7.7656    1.0000 </r>
       <r>   -7.7191    1.0000 </r>
       <r>   -1.7041    1.0000 </r>
       <r>    3.7717    1.0000 </r>
       <r>    4.3898    1.0000 </r>
       <r>    4.7941    1.0000 </r>
       <r>    5.5247    1.0000 </r>
       <r>    5.8079    1.0000 </r>
       <r>    6.2170    1.0000 </r>
       <r>    8.1090    1.0000 </r>
       <r>    8.3503    1.0000 </r>
       <r>    9.8586    1.0000 </r>
       <r>   11.3076    0.0000 </r>
       <r>   11.5399    0.0000 </r>
       <r>   12.3022    0.0000 </r>
       <r>   12.3869    0.0000 </r>
       <r>   12.5361    0.0000 </r>
      </set>
      <set comment="kpoint 17">
       <r>  -29.5810    1.0000 </r>
       <r>  -13.1319    1.0000 </r>
       <r>  -13.1229    1.0000 </r>
       <r>  -13.0748    1.0000 </r>
       <r>  -13.0691    1.0000 </r>
       <r>  -13.0688    1.0000 </r>
       <r>   -8.0502    1.0000 </r>
       <r>   -7.7837    1.0000 </r>
       <r>   -7.7340    1.0000 </r>
       <r>   -2.0181    1.0000 </r>
       <r>    4.0742    1.0000 </r>
       <r>    4.4400    1.0000 </r>
       <r>    4.9430    1.0000 </r>
       <r>    5.5961    1.0000 </r>
       <r>    5.9087    1.0000 </r>
       <r>    6.5767    1.0000 </r>
       <r>    8.0313    1.0000 </r>
       <r>    8.4156    1.0000 </r>
       <r>    9.8234    1.0000 </r>
       <r>   10.9669    0.0000 </r>
       <r>   11.2468    0.0000 </r>
       <r>   12.0867    0.0000 </r>
       <r>   12.4126    0.0000 </r>
       <r>   12.4525    0.0000 </r>
      </set>
      <set comment="kpoint 18">
       <r>  -29.5838    1.0000 </r>
       <r>  -13.1262    1.0000 </r>
       <r>  -13.1186    1.0000 </r>
       <r>  -13.0733    1.0000 </r>
       <r>  -13.0701    1.0000 </r>
       <r>  -13.0698    1.0000 </r>
       <r>   -7.9504    1.0000 </r>
       <r>   -7.7967    1.0000 </r>
       <r>   -7.7536    1.0000 </r>
       <r>   -2.3529    1.0000 </r>
       <r>    4.4391    1.0000 </r>
       <r>    4.5771    1.0000 </r>
       <r>    5.1420    1.0000 </r>
       <r>    5.5730    1.0000 </r>
       <r>    5.8943    1.0000 </r>
       <r>    7.0675    1.0000 </r>
       <r>    8.0623    1.0000 </r>
       <r>    8.5565    1.0000 </r>
       <r>    9.8550    1.0000 </r>
       <r>   10.6419    0.0000 </r>
       <r>   10.7928    0.0000 </r>
       <r>   11.5778    0.0000 </r>
       <r>   12.3129    0.0000 </r>
       <r>   12.4351    0.0000 </r>
      </set>
      <set comment="kpoint 19">
       <r>  -29.5860    1.0000 </r>
       <r>  -13.1206    1.0000 </r>
       <r>  -13.1163    1.0000 </r>
       <r>  -13.0723    1.0000 </r>
       <r>  -13.0708    1.0000 </r>
       <r>  -13.0706    1.0000 </r>
       <r>   -7.8662    1.0000 </r>
       <r>   -7.7987    1.0000 </r>
       <r>   -7.7733    1.0000 </r>
       <r>   -2.6269    1.0000 </r>
       <r>    4.7907    1.0000 </r>
       <r>    4.7998    1.0000 </r>
       <r>    5.3031    1.0000 </r>
       <r>    5.4691    1.0000 </r>
       <r>    5.7640    1.0000 </r>
       <r>    7.5914    1.0000 </r>
       <r>    8.3209    1.0000 </r>
       <r>    8.7021    1.0000 </r>
       <r>    9.7561    1.0000 </r>
       <r>   10.3924    0.0000 </r>
       <r>   10.4242    0.0000 </r>
       <r>   11.0080    0.0000 </r>
       <r>   11.8762    0.0000 </r>
       <r>   12.4550    0.0000 </r>
      </set>
      <set comment="kpoint 20">
       <r>  -29.5844    1.0000 </r>
       <r>  -13.1267    1.0000 </r>
       <r>  -13.1131    1.0000 </r>
       <r>  -13.0738    1.0000 </r>
       <r>  -13.0697    1.0000 </r>
       <r>  -13.0697    1.0000 </r>
       <r>   -7.8851    1.0000 </r>
       <r>   -7.8027    1.0000 </r>
       <r>   -7.8027    1.0000 </r>
       <r>   -2.4437    1.0000 </r>
       <r>    4.1196    1.0000 </r>
       <r>    5.3052    1.0000 </r>
       <r>    5.3052    1.0000 </r>
       <r>    5.4110    1.0000 </r>
       <r>    5.6610    1.0000 </r>
       <r>    7.4395    1.0000 </r>
       <r>    8.2507    1.0000 </r>
       <r>    8.2507    1.0000 </r>
       <r>    9.7336    1.0000 </r>
       <r>   10.5038    0.0000 </r>
       <r>   11.1400    0.0000 </r>
       <r>   11.1400    0.0000 </r>
       <r>   12.1407    0.0000 </r>
       <r>   12.3280    0.0000 </r>
      </set>
      <set comment="kpoint 21">
       <r>  -29.5823    1.0000 </r>
       <r>  -13.1301    1.0000 </r>
       <r>  -13.1138    1.0000 </r>
       <r>  -13.0749    1.0000 </r>
       <r>  -13.0690    1.0000 </r>
       <r>  -13.0687    1.0000 </r>
       <r>   -7.9524    1.0000 </r>
       <r>   -7.8018    1.0000 </r>
       <r>   -7.7917    1.0000 </r>
       <r>   -2.2329    1.0000 </r>
       <r>    3.8675    1.0000 </r>
       <r>    5.1140    1.0000 </r>
       <r>    5.1816    1.0000 </r>
       <r>    5.5154    1.0000 </r>
       <r>    5.7317    1.0000 </r>
       <r>    7.1487    1.0000 </r>
       <r>    8.0651    1.0000 </r>
       <r>    8.1645    1.0000 </r>
       <r>    9.8501    1.0000 </r>
       <r>   10.6294    0.0000 </r>
       <r>   11.3818    0.0000 </r>
       <r>   11.5822    0.0000 </r>
       <r>   12.2695    0.0000 </r>
       <r>   12.4065    0.0000 </r>
      </set>
      <set comment="kpoint 22">
       <r>  -29.5798    1.0000 </r>
       <r>  -13.1325    1.0000 </r>
       <r>  -13.1174    1.0000 </r>
       <r>  -13.0761    1.0000 </r>
       <r>  -13.0685    1.0000 </r>
       <r>  -13.0676    1.0000 </r>
       <r>   -8.0396    1.0000 </r>
       <r>   -7.7910    1.0000 </r>
       <r>   -7.7752    1.0000 </r>
       <r>   -1.9807    1.0000 </r>
       <r>    3.7260    1.0000 </r>
       <r>    4.8107    1.0000 </r>
       <r>    5.0456    1.0000 </r>
       <r>    5.5294    1.0000 </r>
       <r>    5.8159    1.0000 </r>
       <r>    6.7625    1.0000 </r>
       <r>    7.9032    1.0000 </r>
       <r>    8.1760    1.0000 </r>
       <r>    9.9718    1.0000 </r>
       <r>   10.8994    0.0000 </r>
       <r>   11.5848    0.0000 </r>
       <r>   12.0474    0.0000 </r>
       <r>   12.2453    0.0000 </r>
       <r>   12.5206    0.0000 </r>
      </set>
      <set comment="kpoint 23">
       <r>  -29.5773    1.0000 </r>
       <r>  -13.1334    1.0000 </r>
       <r>  -13.1229    1.0000 </r>
       <r>  -13.0770    1.0000 </r>
       <r>  -13.0682    1.0000 </r>
       <r>  -13.0665    1.0000 </r>
       <r>   -8.1153    1.0000 </r>
       <r>   -7.7727    1.0000 </r>
       <r>   -7.7673    1.0000 </r>
       <r>   -1.7519    1.0000 </r>
       <r>    3.6937    1.0000 </r>
       <r>    4.5796    1.0000 </r>
       <r>    4.9073    1.0000 </r>
       <r>    5.4877    1.0000 </r>
       <r>    5.8164    1.0000 </r>
       <r>    6.3958    1.0000 </r>
       <r>    7.8516    1.0000 </r>
       <r>    8.2324    1.0000 </r>
       <r>    9.9803    1.0000 </r>
       <r>   11.3038    0.0000 </r>
       <r>   11.7462    0.0000 </r>
       <r>   12.2481    0.0000 </r>
       <r>   12.2581    0.0000 </r>
       <r>   12.5752    0.0000 </r>
      </set>
      <set comment="kpoint 24">
       <r>  -29.5754    1.0000 </r>
       <r>  -13.1326    1.0000 </r>
       <r>  -13.1291    1.0000 </r>
       <r>  -13.0776    1.0000 </r>
       <r>  -13.0681    1.0000 </r>
       <r>  -13.0659    1.0000 </r>
       <r>   -8.1653    1.0000 </r>
       <r>   -7.7708    1.0000 </r>
       <r>   -7.7510    1.0000 </r>
       <r>   -1.5901    1.0000 </r>
       <r>    3.7207    1.0000 </r>
       <r>    4.4838    1.0000 </r>
       <r>    4.7360    1.0000 </r>
       <r>    5.4948    1.0000 </r>
       <r>    5.7390    1.0000 </r>
       <r>    6.1357    1.0000 </r>
       <r>    7.8632    1.0000 </r>
       <r>    8.2687    1.0000 </r>
       <r>   10.0531    1.0000 </r>
       <r>   11.4893    0.0000 </r>
       <r>   11.8485    0.0000 </r>
       <r>   12.2612    0.0000 </r>
       <r>   12.2814    0.0000 </r>
       <r>   12.5900    0.0000 </r>
      </set>
      <set comment="kpoint 25">
       <r>  -29.5746    1.0000 </r>
       <r>  -13.1344    1.0000 </r>
       <r>  -13.1304    1.0000 </r>
       <r>  -13.0776    1.0000 </r>
       <r>  -13.0682    1.0000 </r>
       <r>  -13.0659    1.0000 </r>
       <r>   -8.1842    1.0000 </r>
       <r>   -7.7841    1.0000 </r>
       <r>   -7.7308    1.0000 </r>
       <r>   -1.5124    1.0000 </r>
       <r>    3.7330    1.0000 </r>
       <r>    4.5327    1.0000 </r>
       <r>    4.5480    1.0000 </r>
       <r>    5.5879    1.0000 </r>
       <r>    5.6200    1.0000 </r>
       <r>    6.0368    1.0000 </r>
       <r>    7.8676    1.0000 </r>
       <r>    8.2643    1.0000 </r>
       <r>   10.1811    0.0000 </r>
       <r>   11.4138    0.0000 </r>
       <r>   11.8550    0.0000 </r>
       <r>   12.2954    0.0000 </r>
       <r>   12.3313    0.0000 </r>
       <r>   12.5352    0.0000 </r>
      </set>
      <set comment="kpoint 26">
       <r>  -29.5751    1.0000 </r>
       <r>  -13.1379    1.0000 </r>
       <r>  -13.1273    1.0000 </r>
       <r>  -13.0770    1.0000 </r>
       <r>  -13.0683    1.0000 </r>
       <r>  -13.0664    1.0000 </r>
       <r>   -8.1719    1.0000 </r>
       <r>   -7.8026    1.0000 </r>
       <r>   -7.7166    1.0000 </r>
       <r>   -1.5248    1.0000 </r>
       <r>    3.7162    1.0000 </r>
       <r>    4.3901    1.0000 </r>
       <r>    4.6804    1.0000 </r>
       <r>    5.5200    1.0000 </r>
       <r>    5.7392    1.0000 </r>
       <r>    6.1045    1.0000 </r>
       <r>    7.8097    1.0000 </r>
       <r>    8.2407    1.0000 </r>
       <r>   10.2246    0.0000 </r>
       <r>   11.4611    0.0000 </r>
       <r>   11.7228    0.0000 </r>
       <r>   12.3114    0.0000 </r>
       <r>   12.3468    0.0000 </r>
       <r>   12.5500    0.0000 </r>
      </set>
      <set comment="kpoint 27">
       <r>  -29.5766    1.0000 </r>
       <r>  -13.1386    1.0000 </r>
       <r>  -13.1238    1.0000 </r>
       <r>  -13.0760    1.0000 </r>
       <r>  -13.0685    1.0000 </r>
       <r>  -13.0673    1.0000 </r>
       <r>   -8.1316    1.0000 </r>
       <r>   -7.8198    1.0000 </r>
       <r>   -7.7118    1.0000 </r>
       <r>   -1.6356    1.0000 </r>
       <r>    3.7302    1.0000 </r>
       <r>    4.2997    1.0000 </r>
       <r>    4.8756    1.0000 </r>
       <r>    5.4751    1.0000 </r>
       <r>    5.8954    1.0000 </r>
       <r>    6.3128    1.0000 </r>
       <r>    7.6790    1.0000 </r>
       <r>    8.2415    1.0000 </r>
       <r>   10.2043    0.0000 </r>
       <r>   11.4587    0.0000 </r>
       <r>   11.5454    0.0000 </r>
       <r>   12.3028    0.0000 </r>
       <r>   12.3359    0.0000 </r>
       <r>   12.6015    0.0000 </r>
      </set>
      <set comment="kpoint 28">
       <r>  -29.5790    1.0000 </r>
       <r>  -13.1365    1.0000 </r>
       <r>  -13.1208    1.0000 </r>
       <r>  -13.0749    1.0000 </r>
       <r>  -13.0688    1.0000 </r>
       <r>  -13.0684    1.0000 </r>
       <r>   -8.0712    1.0000 </r>
       <r>   -7.8284    1.0000 </r>
       <r>   -7.7176    1.0000 </r>
       <r>   -1.8411    1.0000 </r>
       <r>    3.8483    1.0000 </r>
       <r>    4.2981    1.0000 </r>
       <r>    5.0874    1.0000 </r>
       <r>    5.4622    1.0000 </r>
       <r>    5.9941    1.0000 </r>
       <r>    6.6274    1.0000 </r>
       <r>    7.5380    1.0000 </r>
       <r>    8.3086    1.0000 </r>
       <r>   10.2108    0.0000 </r>
       <r>   11.1284    0.0000 </r>
       <r>   11.3900    0.0000 </r>
       <r>   12.2214    0.0000 </r>
       <r>   12.3645    0.0000 </r>
       <r>   12.5676    0.0000 </r>
      </set>
      <set comment="kpoint 29">
       <r>  -29.5816    1.0000 </r>
       <r>  -13.1320    1.0000 </r>
       <r>  -13.1188    1.0000 </r>
       <r>  -13.0741    1.0000 </r>
       <r>  -13.0694    1.0000 </r>
       <r>  -13.0692    1.0000 </r>
       <r>   -8.0050    1.0000 </r>
       <r>   -7.8209    1.0000 </r>
       <r>   -7.7327    1.0000 </r>
       <r>   -2.1031    1.0000 </r>
       <r>    4.0966    1.0000 </r>
       <r>    4.3927    1.0000 </r>
       <r>    5.2707    1.0000 </r>
       <r>    5.4301    1.0000 </r>
       <r>    5.9928    1.0000 </r>
       <r>    6.9276    1.0000 </r>
       <r>    7.5962    1.0000 </r>
       <r>    8.4409    1.0000 </r>
       <r>   10.1761    0.0000 </r>
       <r>   10.8215    0.0000 </r>
       <r>   11.0229    0.0000 </r>
       <r>   11.9938    0.0000 </r>
       <r>   12.3968    0.0000 </r>
       <r>   12.4451    0.0000 </r>
      </set>
      <set comment="kpoint 30">
       <r>  -29.5809    1.0000 </r>
       <r>  -13.1307    1.0000 </r>
       <r>  -13.1112    1.0000 </r>
       <r>  -13.0764    1.0000 </r>
       <r>  -13.0678    1.0000 </r>
       <r>  -13.0678    1.0000 </r>
       <r>   -7.9631    1.0000 </r>
       <r>   -7.8130    1.0000 </r>
       <r>   -7.8130    1.0000 </r>
       <r>   -2.1385    1.0000 </r>
       <r>    3.6802    1.0000 </r>
       <r>    5.2720    1.0000 </r>
       <r>    5.2720    1.0000 </r>
       <r>    5.4827    1.0000 </r>
       <r>    5.5095    1.0000 </r>
       <r>    7.1464    1.0000 </r>
       <r>    8.0970    1.0000 </r>
       <r>    8.0970    1.0000 </r>
       <r>    9.5955    1.0000 </r>
       <r>   11.0098    0.0000 </r>
       <r>   11.5773    0.0000 </r>
       <r>   11.5773    0.0000 </r>
       <r>   12.1671    0.0000 </r>
       <r>   12.4915    0.0000 </r>
      </set>
      <set comment="kpoint 31">
       <r>  -29.5788    1.0000 </r>
       <r>  -13.1299    1.0000 </r>
       <r>  -13.1118    1.0000 </r>
       <r>  -13.0776    1.0000 </r>
       <r>  -13.0670    1.0000 </r>
       <r>  -13.0667    1.0000 </r>
       <r>   -8.0171    1.0000 </r>
       <r>   -7.8128    1.0000 </r>
       <r>   -7.8101    1.0000 </r>
       <r>   -2.0070    1.0000 </r>
       <r>    3.6436    1.0000 </r>
       <r>    5.0303    1.0000 </r>
       <r>    5.1851    1.0000 </r>
       <r>    5.5200    1.0000 </r>
       <r>    5.5807    1.0000 </r>
       <r>    6.9669    1.0000 </r>
       <r>    7.9515    1.0000 </r>
       <r>    8.1265    1.0000 </r>
       <r>    9.7577    1.0000 </r>
       <r>   11.1122    0.0000 </r>
       <r>   11.7294    0.0000 </r>
       <r>   11.8851    0.0000 </r>
       <r>   12.1082    0.0000 </r>
       <r>   12.5583    0.0000 </r>
      </set>
      <set comment="kpoint 32">
       <r>  -29.5766    1.0000 </r>
       <r>  -13.1279    1.0000 </r>
       <r>  -13.1155    1.0000 </r>
       <r>  -13.0783    1.0000 </r>
       <r>  -13.0669    1.0000 </r>
       <r>  -13.0656    1.0000 </r>
       <r>   -8.0751    1.0000 </r>
       <r>   -7.8094    1.0000 </r>
       <r>   -7.8014    1.0000 </r>
       <r>   -1.8784    1.0000 </r>
       <r>    3.7529    1.0000 </r>
       <r>    4.7490    1.0000 </r>
       <r>    5.0412    1.0000 </r>
       <r>    5.5307    1.0000 </r>
       <r>    5.6885    1.0000 </r>
       <r>    6.6933    1.0000 </r>
       <r>    7.7399    1.0000 </r>
       <r>    8.1949    1.0000 </r>
       <r>    9.9510    1.0000 </r>
       <r>   11.3143    0.0000 </r>
       <r>   11.8481    0.0000 </r>
       <r>   12.1289    0.0000 </r>
       <r>   12.1534    0.0000 </r>
       <r>   12.5948    0.0000 </r>
      </set>
      <set comment="kpoint 33">
       <r>  -29.5749    1.0000 </r>
       <r>  -13.1252    1.0000 </r>
       <r>  -13.1213    1.0000 </r>
       <r>  -13.0782    1.0000 </r>
       <r>  -13.0675    1.0000 </r>
       <r>  -13.0650    1.0000 </r>
       <r>   -8.1142    1.0000 </r>
       <r>   -7.8224    1.0000 </r>
       <r>   -7.7814    1.0000 </r>
       <r>   -1.7737    1.0000 </r>
       <r>    3.9437    1.0000 </r>
       <r>    4.5703    1.0000 </r>
       <r>    4.8472    1.0000 </r>
       <r>    5.5730    1.0000 </r>
       <r>    5.7306    1.0000 </r>
       <r>    6.4089    1.0000 </r>
       <r>    7.6034    1.0000 </r>
       <r>    8.2239    1.0000 </r>
       <r>   10.0449    1.0000 </r>
       <r>   11.4758    0.0000 </r>
       <r>   11.9358    0.0000 </r>
       <r>   12.2021    0.0000 </r>
       <r>   12.2214    0.0000 </r>
       <r>   12.6099    0.0000 </r>
      </set>
      <set comment="kpoint 34">
       <r>  -29.5739    1.0000 </r>
       <r>  -13.1279    1.0000 </r>
       <r>  -13.1225    1.0000 </r>
       <r>  -13.0772    1.0000 </r>
       <r>  -13.0685    1.0000 </r>
       <r>  -13.0649    1.0000 </r>
       <r>   -8.1282    1.0000 </r>
       <r>   -7.8473    1.0000 </r>
       <r>   -7.7572    1.0000 </r>
       <r>   -1.6954    1.0000 </r>
       <r>    4.0789    1.0000 </r>
       <r>    4.5241    1.0000 </r>
       <r>    4.6316    1.0000 </r>
       <r>    5.6722    1.0000 </r>
       <r>    5.6877    1.0000 </r>
       <r>    6.2492    1.0000 </r>
       <r>    7.5149    1.0000 </r>
       <r>    8.1940    1.0000 </r>
       <r>   10.1831    0.0000 </r>
       <r>   11.3606    0.0000 </r>
       <r>   11.9710    0.0000 </r>
       <r>   12.2570    0.0000 </r>
       <r>   12.2950    0.0000 </r>
       <r>   12.5805    0.0000 </r>
      </set>
      <set comment="kpoint 35">
       <r>  -29.5739    1.0000 </r>
       <r>  -13.1337    1.0000 </r>
       <r>  -13.1206    1.0000 </r>
       <r>  -13.0756    1.0000 </r>
       <r>  -13.0697    1.0000 </r>
       <r>  -13.0654    1.0000 </r>
       <r>   -8.1205    1.0000 </r>
       <r>   -7.8738    1.0000 </r>
       <r>   -7.7343    1.0000 </r>
       <r>   -1.6453    1.0000 </r>
       <r>    4.0370    1.0000 </r>
       <r>    4.4386    1.0000 </r>
       <r>    4.6059    1.0000 </r>
       <r>    5.6008    1.0000 </r>
       <r>    5.8080    1.0000 </r>
       <r>    6.2955    1.0000 </r>
       <r>    7.4191    1.0000 </r>
       <r>    8.1421    1.0000 </r>
       <r>   10.3614    0.0000 </r>
       <r>   11.2564    0.0000 </r>
       <r>   11.9010    0.0000 </r>
       <r>   12.2754    0.0000 </r>
       <r>   12.3535    0.0000 </r>
       <r>   12.5581    0.0000 </r>
      </set>
      <set comment="kpoint 36">
       <r>  -29.5750    1.0000 </r>
       <r>  -13.1375    1.0000 </r>
       <r>  -13.1196    1.0000 </r>
       <r>  -13.0745    1.0000 </r>
       <r>  -13.0702    1.0000 </r>
       <r>  -13.0663    1.0000 </r>
       <r>   -8.1019    1.0000 </r>
       <r>   -7.8860    1.0000 </r>
       <r>   -7.7178    1.0000 </r>
       <r>   -1.6393    1.0000 </r>
       <r>    3.8869    1.0000 </r>
       <r>    4.3041    1.0000 </r>
       <r>    4.7636    1.0000 </r>
       <r>    5.5334    1.0000 </r>
       <r>    5.9366    1.0000 </r>
       <r>    6.4913    1.0000 </r>
       <r>    7.2897    1.0000 </r>
       <r>    8.1247    1.0000 </r>
       <r>   10.4568    0.0000 </r>
       <r>   11.3186    0.0000 </r>
       <r>   11.6920    0.0000 </r>
       <r>   12.2955    0.0000 </r>
       <r>   12.3820    0.0000 </r>
       <r>   12.5672    0.0000 </r>
      </set>
      <set comment="kpoint 37">
       <r>  -29.5768    1.0000 </r>
       <r>  -13.1385    1.0000 </r>
       <r>  -13.1196    1.0000 </r>
       <r>  -13.0746    1.0000 </r>
       <r>  -13.0695    1.0000 </r>
       <r>  -13.0674    1.0000 </r>
       <r>   -8.0854    1.0000 </r>
       <r>   -7.8695    1.0000 </r>
       <r>   -7.7117    1.0000 </r>
       <r>   -1.7028    1.0000 </r>
       <r>    3.7882    1.0000 </r>
       <r>    4.2529    1.0000 </r>
       <r>    4.9566    1.0000 </r>
       <r>    5.4839    1.0000 </r>
       <r>    6.0075    1.0000 </r>
       <r>    6.6715    1.0000 </r>
       <r>    7.2418    1.0000 </r>
       <r>    8.1841    1.0000 </r>
       <r>   10.4232    0.0000 </r>
       <r>   11.3872    0.0000 </r>
       <r>   11.4029    0.0000 </r>
       <r>   12.3261    0.0000 </r>
       <r>   12.3381    0.0000 </r>
       <r>   12.6254    0.0000 </r>
      </set>
      <set comment="kpoint 38">
       <r>  -29.5773    1.0000 </r>
       <r>  -13.1258    1.0000 </r>
       <r>  -13.1091    1.0000 </r>
       <r>  -13.0792    1.0000 </r>
       <r>  -13.0656    1.0000 </r>
       <r>  -13.0656    1.0000 </r>
       <r>   -8.0326    1.0000 </r>
       <r>   -7.8244    1.0000 </r>
       <r>   -7.8244    1.0000 </r>
       <r>   -2.0051    1.0000 </r>
       <r>    3.7165    1.0000 </r>
       <r>    5.1788    1.0000 </r>
       <r>    5.1788    1.0000 </r>
       <r>    5.2788    1.0000 </r>
       <r>    5.5624    1.0000 </r>
       <r>    6.9073    1.0000 </r>
       <r>    8.1758    1.0000 </r>
       <r>    8.1758    1.0000 </r>
       <r>    9.5928    1.0000 </r>
       <r>   11.3552    0.0000 </r>
       <r>   11.8387    0.0000 </r>
       <r>   11.8387    0.0000 </r>
       <r>   11.9862    0.0000 </r>
       <r>   12.5900    0.0000 </r>
      </set>
      <set comment="kpoint 39">
       <r>  -29.5756    1.0000 </r>
       <r>  -13.1210    1.0000 </r>
       <r>  -13.1099    1.0000 </r>
       <r>  -13.0802    1.0000 </r>
       <r>  -13.0650    1.0000 </r>
       <r>  -13.0646    1.0000 </r>
       <r>   -8.0658    1.0000 </r>
       <r>   -7.8310    1.0000 </r>
       <r>   -7.8236    1.0000 </r>
       <r>   -1.9850    1.0000 </r>
       <r>    3.9344    1.0000 </r>
       <r>    4.9097    1.0000 </r>
       <r>    5.0880    1.0000 </r>
       <r>    5.3984    1.0000 </r>
       <r>    5.5938    1.0000 </r>
       <r>    6.7226    1.0000 </r>
       <r>    8.0697    1.0000 </r>
       <r>    8.2642    1.0000 </r>
       <r>    9.7662    1.0000 </r>
       <r>   11.4643    0.0000 </r>
       <r>   11.9141    0.0000 </r>
       <r>   11.9689    0.0000 </r>
       <r>   12.0249    0.0000 </r>
       <r>   12.6193    0.0000 </r>
      </set>
      <set comment="kpoint 40">
       <r>  -29.5741    1.0000 </r>
       <r>  -13.1168    1.0000 </r>
       <r>  -13.1139    1.0000 </r>
       <r>  -13.0801    1.0000 </r>
       <r>  -13.0654    1.0000 </r>
       <r>  -13.0640    1.0000 </r>
       <r>   -8.0869    1.0000 </r>
       <r>   -7.8519    1.0000 </r>
       <r>   -7.8104    1.0000 </r>
       <r>   -1.9469    1.0000 </r>
       <r>    4.2243    1.0000 </r>
       <r>    4.6914    1.0000 </r>
       <r>    4.9347    1.0000 </r>
       <r>    5.5462    1.0000 </r>
       <r>    5.6393    1.0000 </r>
       <r>    6.4825    1.0000 </r>
       <r>    7.7800    1.0000 </r>
       <r>    8.2899    1.0000 </r>
       <r>    9.9437    1.0000 </r>
       <r>   11.5649    0.0000 </r>
       <r>   11.9732    0.0000 </r>
       <r>   12.0838    0.0000 </r>
       <r>   12.1526    0.0000 </r>
       <r>   12.6043    0.0000 </r>
      </set>
      <set comment="kpoint 41">
       <r>  -29.5732    1.0000 </r>
       <r>  -13.1201    1.0000 </r>
       <r>  -13.1142    1.0000 </r>
       <r>  -13.0788    1.0000 </r>
       <r>  -13.0669    1.0000 </r>
       <r>  -13.0639    1.0000 </r>
       <r>   -8.0838    1.0000 </r>
       <r>   -7.8916    1.0000 </r>
       <r>   -7.7878    1.0000 </r>
       <r>   -1.8853    1.0000 </r>
       <r>    4.4163    1.0000 </r>
       <r>    4.6214    1.0000 </r>
       <r>    4.7426    1.0000 </r>
       <r>    5.6361    1.0000 </r>
       <r>    5.7221    1.0000 </r>
       <r>    6.3031    1.0000 </r>
       <r>    7.4848    1.0000 </r>
       <r>    8.2255    1.0000 </r>
       <r>   10.0743    1.0000 </r>
       <r>   11.4749    0.0000 </r>
       <r>   12.0227    0.0000 </r>
       <r>   12.2069    0.0000 </r>
       <r>   12.2210    0.0000 </r>
       <r>   12.5795    0.0000 </r>
      </set>
      <set comment="kpoint 42">
       <r>  -29.5730    1.0000 </r>
       <r>  -13.1271    1.0000 </r>
       <r>  -13.1140    1.0000 </r>
       <r>  -13.0764    1.0000 </r>
       <r>  -13.0691    1.0000 </r>
       <r>  -13.0644    1.0000 </r>
       <r>   -8.0628    1.0000 </r>
       <r>   -7.9366    1.0000 </r>
       <r>   -7.7609    1.0000 </r>
       <r>   -1.7999    1.0000 </r>
       <r>    4.4091    1.0000 </r>
       <r>    4.5503    1.0000 </r>
       <r>    4.6034    1.0000 </r>
       <r>    5.6239    1.0000 </r>
       <r>    5.8256    1.0000 </r>
       <r>    6.3565    1.0000 </r>
       <r>    7.2445    1.0000 </r>
       <r>    8.1298    1.0000 </r>
       <r>   10.2656    0.0000 </r>
       <r>   11.3045    0.0000 </r>
       <r>   12.0256    0.0000 </r>
       <r>   12.2507    0.0000 </r>
       <r>   12.2718    0.0000 </r>
       <r>   12.5776    0.0000 </r>
      </set>
      <set comment="kpoint 43">
       <r>  -29.5737    1.0000 </r>
       <r>  -13.1334    1.0000 </r>
       <r>  -13.1160    1.0000 </r>
       <r>  -13.0739    1.0000 </r>
       <r>  -13.0712    1.0000 </r>
       <r>  -13.0653    1.0000 </r>
       <r>   -8.0646    1.0000 </r>
       <r>   -7.9400    1.0000 </r>
       <r>   -7.7356    1.0000 </r>
       <r>   -1.7065    1.0000 </r>
       <r>    4.1822    1.0000 </r>
       <r>    4.3944    1.0000 </r>
       <r>    4.6370    1.0000 </r>
       <r>    5.5835    1.0000 </r>
       <r>    5.9102    1.0000 </r>
       <r>    6.5324    1.0000 </r>
       <r>    7.1169    1.0000 </r>
       <r>    8.0809    1.0000 </r>
       <r>   10.4668    0.0000 </r>
       <r>   11.2131    0.0000 </r>
       <r>   11.9139    0.0000 </r>
       <r>   12.2723    0.0000 </r>
       <r>   12.3211    0.0000 </r>
       <r>   12.5605    0.0000 </r>
      </set>
      <set comment="kpoint 44">
       <r>  -29.5744    1.0000 </r>
       <r>  -13.1143    1.0000 </r>
       <r>  -13.1074    1.0000 </r>
       <r>  -13.0816    1.0000 </r>
       <r>  -13.0636    1.0000 </r>
       <r>  -13.0636    1.0000 </r>
       <r>   -8.0828    1.0000 </r>
       <r>   -7.8344    1.0000 </r>
       <r>   -7.8344    1.0000 </r>
       <r>   -2.0558    1.0000 </r>
       <r>    4.2330    1.0000 </r>
       <r>    5.0689    1.0000 </r>
       <r>    5.0689    1.0000 </r>
       <r>    5.0794    1.0000 </r>
       <r>    5.6316    1.0000 </r>
       <r>    6.5522    1.0000 </r>
       <r>    8.3936    1.0000 </r>
       <r>    8.3936    1.0000 </r>
       <r>    9.6829    1.0000 </r>
       <r>   11.6234    0.0000 </r>
       <r>   11.8309    0.0000 </r>
       <r>   11.9765    0.0000 </r>
       <r>   11.9765    0.0000 </r>
       <r>   12.5329    0.0000 </r>
      </set>
      <set comment="kpoint 45">
       <r>  -29.5734    1.0000 </r>
       <r>  -13.1094    1.0000 </r>
       <r>  -13.1086    1.0000 </r>
       <r>  -13.0820    1.0000 </r>
       <r>  -13.0635    1.0000 </r>
       <r>  -13.0630    1.0000 </r>
       <r>   -8.0952    1.0000 </r>
       <r>   -7.8474    1.0000 </r>
       <r>   -7.8315    1.0000 </r>
       <r>   -2.0768    1.0000 </r>
       <r>    4.5653    1.0000 </r>
       <r>    4.8344    1.0000 </r>
       <r>    4.9894    1.0000 </r>
       <r>    5.2599    1.0000 </r>
       <r>    5.6652    1.0000 </r>
       <r>    6.3025    1.0000 </r>
       <r>    8.2760    1.0000 </r>
       <r>    8.4513    1.0000 </r>
       <r>    9.8143    1.0000 </r>
       <r>   11.7180    0.0000 </r>
       <r>   11.8589    0.0000 </r>
       <r>   12.0299    0.0000 </r>
       <r>   12.0743    0.0000 </r>
       <r>   12.4746    0.0000 </r>
      </set>
      <set comment="kpoint 46">
       <r>  -29.5727    1.0000 </r>
       <r>  -13.1130    1.0000 </r>
       <r>  -13.1075    1.0000 </r>
       <r>  -13.0811    1.0000 </r>
       <r>  -13.0646    1.0000 </r>
       <r>  -13.0630    1.0000 </r>
       <r>   -8.0851    1.0000 </r>
       <r>   -7.8836    1.0000 </r>
       <r>   -7.8156    1.0000 </r>
       <r>   -2.0389    1.0000 </r>
       <r>    4.5788    1.0000 </r>
       <r>    4.8574    1.0000 </r>
       <r>    4.9220    1.0000 </r>
       <r>    5.4646    1.0000 </r>
       <r>    5.7214    1.0000 </r>
       <r>    6.0869    1.0000 </r>
       <r>    7.8876    1.0000 </r>
       <r>    8.3704    1.0000 </r>
       <r>    9.9367    1.0000 </r>
       <r>   11.6650    0.0000 </r>
       <r>   11.9881    0.0000 </r>
       <r>   12.1287    0.0000 </r>
       <r>   12.1325    0.0000 </r>
       <r>   12.5326    0.0000 </r>
      </set>
      <set comment="kpoint 47">
       <r>  -29.5726    1.0000 </r>
       <r>  -13.1197    1.0000 </r>
       <r>  -13.1092    1.0000 </r>
       <r>  -13.0790    1.0000 </r>
       <r>  -13.0667    1.0000 </r>
       <r>  -13.0635    1.0000 </r>
       <r>   -8.0562    1.0000 </r>
       <r>   -7.9333    1.0000 </r>
       <r>   -7.7902    1.0000 </r>
       <r>   -1.9419    1.0000 </r>
       <r>    4.5007    1.0000 </r>
       <r>    4.7000    1.0000 </r>
       <r>    4.8732    1.0000 </r>
       <r>    5.5901    1.0000 </r>
       <r>    5.7872    1.0000 </r>
       <r>    6.1501    1.0000 </r>
       <r>    7.4704    1.0000 </r>
       <r>    8.2256    1.0000 </r>
       <r>   10.0798    1.0000 </r>
       <r>   11.4875    0.0000 </r>
       <r>   12.0419    0.0000 </r>
       <r>   12.1703    0.0000 </r>
       <r>   12.2558    0.0000 </r>
       <r>   12.5640    0.0000 </r>
      </set>
      <set comment="kpoint 48">
       <r>  -29.5728    1.0000 </r>
       <r>  -13.1065    1.0000 </r>
       <r>  -13.1048    1.0000 </r>
       <r>  -13.0830    1.0000 </r>
       <r>  -13.0625    1.0000 </r>
       <r>  -13.0625    1.0000 </r>
       <r>   -8.1090    1.0000 </r>
       <r>   -7.8401    1.0000 </r>
       <r>   -7.8401    1.0000 </r>
       <r>   -2.1410    1.0000 </r>
       <r>    4.8989    1.0000 </r>
       <r>    4.9985    1.0000 </r>
       <r>    4.9985    1.0000 </r>
       <r>    5.0120    1.0000 </r>
       <r>    5.6721    1.0000 </r>
       <r>    6.0426    1.0000 </r>
       <r>    8.5784    1.0000 </r>
       <r>    8.5784    1.0000 </r>
       <r>    9.7785    1.0000 </r>
       <r>   11.7414    0.0000 </r>
       <r>   11.8456    0.0000 </r>
       <r>   12.0403    0.0000 </r>
       <r>   12.0403    0.0000 </r>
       <r>   12.2109    0.0000 </r>
      </set>
      <set comment="kpoint 49">
       <r>  -29.5726    1.0000 </r>
       <r>  -13.1081    1.0000 </r>
       <r>  -13.1041    1.0000 </r>
       <r>  -13.0827    1.0000 </r>
       <r>  -13.0629    1.0000 </r>
       <r>  -13.0624    1.0000 </r>
       <r>   -8.1049    1.0000 </r>
       <r>   -7.8537    1.0000 </r>
       <r>   -7.8344    1.0000 </r>
       <r>   -2.1284    1.0000 </r>
       <r>    4.7397    1.0000 </r>
       <r>    4.9509    1.0000 </r>
       <r>    5.1236    1.0000 </r>
       <r>    5.2261    1.0000 </r>
       <r>    5.6927    1.0000 </r>
       <r>    5.9048    1.0000 </r>
       <r>    8.3780    1.0000 </r>
       <r>    8.5377    1.0000 </r>
       <r>    9.8373    1.0000 </r>
       <r>   11.8290    0.0000 </r>
       <r>   11.8334    0.0000 </r>
       <r>   12.0646    0.0000 </r>
       <r>   12.0760    0.0000 </r>
       <r>   12.3340    0.0000 </r>
      </set>
      <set comment="kpoint 50">
       <r>  -29.5836    1.0000 </r>
       <r>  -13.1278    1.0000 </r>
       <r>  -13.1158    1.0000 </r>
       <r>  -13.0737    1.0000 </r>
       <r>  -13.0698    1.0000 </r>
       <r>  -13.0696    1.0000 </r>
       <r>   -7.9353    1.0000 </r>
       <r>   -7.8074    1.0000 </r>
       <r>   -7.7662    1.0000 </r>
       <r>   -2.3449    1.0000 </r>
       <r>    4.1471    1.0000 </r>
       <r>    4.8604    1.0000 </r>
       <r>    5.3083    1.0000 </r>
       <r>    5.4553    1.0000 </r>
       <r>    5.8501    1.0000 </r>
       <r>    7.2087    1.0000 </r>
       <r>    7.9595    1.0000 </r>
       <r>    8.4275    1.0000 </r>
       <r>   10.1024    0.9864 </r>
       <r>   10.3060    0.0000 </r>
       <r>   11.0363    0.0000 </r>
       <r>   11.5485    0.0000 </r>
       <r>   12.2890    0.0000 </r>
       <r>   12.3599    0.0000 </r>
      </set>
      <set comment="kpoint 51">
       <r>  -29.5811    1.0000 </r>
       <r>  -13.1323    1.0000 </r>
       <r>  -13.1184    1.0000 </r>
       <r>  -13.0748    1.0000 </r>
       <r>  -13.0691    1.0000 </r>
       <r>  -13.0686    1.0000 </r>
       <r>   -8.0163    1.0000 </r>
       <r>   -7.8092    1.0000 </r>
       <r>   -7.7459    1.0000 </r>
       <r>   -2.0686    1.0000 </r>
       <r>    3.9073    1.0000 </r>
       <r>    4.6191    1.0000 </r>
       <r>    5.1551    1.0000 </r>
       <r>    5.5036    1.0000 </r>
       <r>    5.9185    1.0000 </r>
       <r>    6.8398    1.0000 </r>
       <r>    7.7711    1.0000 </r>
       <r>    8.3414    1.0000 </r>
       <r>   10.0790    1.0000 </r>
       <r>   10.7347    0.0000 </r>
       <r>   11.3271    0.0000 </r>
       <r>   11.9864    0.0000 </r>
       <r>   12.3300    0.0000 </r>
       <r>   12.4909    0.0000 </r>
      </set>
      <set comment="kpoint 52">
       <r>  -29.5784    1.0000 </r>
       <r>  -13.1355    1.0000 </r>
       <r>  -13.1226    1.0000 </r>
       <r>  -13.0760    1.0000 </r>
       <r>  -13.0686    1.0000 </r>
       <r>  -13.0675    1.0000 </r>
       <r>   -8.0979    1.0000 </r>
       <r>   -7.7987    1.0000 </r>
       <r>   -7.7313    1.0000 </r>
       <r>   -1.7959    1.0000 </r>
       <r>    3.7520    1.0000 </r>
       <r>    4.4540    1.0000 </r>
       <r>    4.9718    1.0000 </r>
       <r>    5.4907    1.0000 </r>
       <r>    5.8925    1.0000 </r>
       <r>    6.4514    1.0000 </r>
       <r>    7.8045    1.0000 </r>
       <r>    8.2857    1.0000 </r>
       <r>   10.0350    1.0000 </r>
       <r>   11.1652    0.0000 </r>
       <r>   11.5912    0.0000 </r>
       <r>   12.2219    0.0000 </r>
       <r>   12.3390    0.0000 </r>
       <r>   12.5515    0.0000 </r>
      </set>
      <set comment="kpoint 53">
       <r>  -29.5762    1.0000 </r>
       <r>  -13.1369    1.0000 </r>
[...]
       <r>   10.5573    0.0000 </r>
       <r>   11.0018    0.0000 </r>
       <r>   11.9844    0.0000 </r>
       <r>   12.1693    0.0000 </r>
       <r>   12.3326    0.0000 </r>
       <r>   12.5238    0.0000 </r>
      </set>
      <set comment="kpoint 81">
       <r>  -29.5733    1.0000 </r>
       <r>  -13.1296    1.0000 </r>
       <r>  -13.1120    1.0000 </r>
       <r>  -13.0752    1.0000 </r>
       <r>  -13.0713    1.0000 </r>
       <r>  -13.0637    1.0000 </r>
       <r>   -8.0549    1.0000 </r>
       <r>   -7.9250    1.0000 </r>
       <r>   -7.7765    1.0000 </r>
       <r>   -1.7975    1.0000 </r>
       <r>    4.2822    1.0000 </r>
       <r>    4.4689    1.0000 </r>
       <r>    4.8436    1.0000 </r>
       <r>    5.5929    1.0000 </r>
       <r>    5.8516    1.0000 </r>
       <r>    6.4939    1.0000 </r>
       <r>    6.8587    1.0000 </r>
       <r>    8.3919    1.0000 </r>
       <r>   10.6016    0.0000 </r>
       <r>   10.9779    0.0000 </r>
       <r>   11.9694    0.0000 </r>
       <r>   12.1696    0.0000 </r>
       <r>   12.3466    0.0000 </r>
       <r>   12.5190    0.0000 </r>
      </set>
      <set comment="kpoint 82">
       <r>  -29.5726    1.0000 </r>
       <r>  -13.1200    1.0000 </r>
       <r>  -13.1054    1.0000 </r>
       <r>  -13.0794    1.0000 </r>
       <r>  -13.0675    1.0000 </r>
       <r>  -13.0623    1.0000 </r>
       <r>   -8.0612    1.0000 </r>
       <r>   -7.8894    1.0000 </r>
       <r>   -7.8332    1.0000 </r>
       <r>   -1.9796    1.0000 </r>
       <r>    4.4020    1.0000 </r>
       <r>    4.9209    1.0000 </r>
       <r>    4.9837    1.0000 </r>
       <r>    5.4853    1.0000 </r>
       <r>    5.8193    1.0000 </r>
       <r>    6.1243    1.0000 </r>
       <r>    7.1740    1.0000 </r>
       <r>    8.6402    1.0000 </r>
       <r>   10.2121    0.0000 </r>
       <r>   11.4196    0.0000 </r>
       <r>   11.8820    0.0000 </r>
       <r>   12.0561    0.0000 </r>
       <r>   12.2273    0.0000 </r>
       <r>   12.5487    0.0000 </r>
      </set>
      <set comment="kpoint 83">
       <r>  -29.5724    1.0000 </r>
       <r>  -13.1240    1.0000 </r>
       <r>  -13.1053    1.0000 </r>
       <r>  -13.0774    1.0000 </r>
       <r>  -13.0699    1.0000 </r>
       <r>  -13.0623    1.0000 </r>
       <r>   -8.0344    1.0000 </r>
       <r>   -7.9247    1.0000 </r>
       <r>   -7.8248    1.0000 </r>
       <r>   -1.9308    1.0000 </r>
       <r>    4.3373    1.0000 </r>
       <r>    4.9158    1.0000 </r>
       <r>    4.9750    1.0000 </r>
       <r>    5.5385    1.0000 </r>
       <r>    5.8847    1.0000 </r>
       <r>    6.1709    1.0000 </r>
       <r>    6.8306    1.0000 </r>
       <r>    8.6200    1.0000 </r>
       <r>   10.4024    0.0000 </r>
       <r>   11.2223    0.0000 </r>
       <r>   11.9260    0.0000 </r>
       <r>   12.0752    0.0000 </r>
       <r>   12.2887    0.0000 </r>
       <r>   12.5596    0.0000 </r>
      </set>
      <set comment="kpoint 84">
       <r>  -29.5724    1.0000 </r>
       <r>  -13.1263    1.0000 </r>
       <r>  -13.1054    1.0000 </r>
       <r>  -13.0757    1.0000 </r>
       <r>  -13.0719    1.0000 </r>
       <r>  -13.0623    1.0000 </r>
       <r>   -8.0225    1.0000 </r>
       <r>   -7.9314    1.0000 </r>
       <r>   -7.8279    1.0000 </r>
       <r>   -1.9024    1.0000 </r>
       <r>    4.2984    1.0000 </r>
       <r>    4.9001    1.0000 </r>
       <r>    4.9646    1.0000 </r>
       <r>    5.5430    1.0000 </r>
       <r>    5.9239    1.0000 </r>
       <r>    6.3142    1.0000 </r>
       <r>    6.5609    1.0000 </r>
       <r>    8.6474    1.0000 </r>
       <r>   10.6735    0.0000 </r>
       <r>   10.9541    0.0000 </r>
       <r>   11.9066    0.0000 </r>
       <r>   12.0697    0.0000 </r>
       <r>   12.3385    0.0000 </r>
       <r>   12.5124    0.0000 </r>
      </set>
     </set>
    </set>
   </array>
  </eigenvalues>
  <separator name="orbital magnetization" >
   <v name="MAGDIPOLOUT">      0.00000000      0.00000000      0.00000000</v>
  </separator>
  <dos>
   <i name="efermi">     10.11804671 </i>
   <total>
    <array>
     <dimension dim="1">gridpoints</dimension>
     <dimension dim="2">spin</dimension>
     <field>energy</field>
     <field>total</field>
     <field>integrated</field>
     <set>
      <set comment="spin 1">
       <r>   -31.6986     0.0000     0.0000 </r>
       <r>   -31.5438     0.0000     0.0000 </r>
       <r>   -31.3890     0.0000     0.0000 </r>
       <r>   -31.2342     0.0000     0.0000 </r>
       <r>   -31.0794     0.0000     0.0000 </r>
       <r>   -30.9246     0.0000     0.0000 </r>
       <r>   -30.7699     0.0000     0.0000 </r>
       <r>   -30.6151     0.0000     0.0000 </r>
       <r>   -30.4603     0.0000     0.0000 </r>
       <r>   -30.3055     0.0000     0.0000 </r>
       <r>   -30.1507     0.0000     0.0000 </r>
       <r>   -29.9959     0.0000     0.0000 </r>
       <r>   -29.8412     0.0000     0.0000 </r>
       <r>   -29.6864     0.0000     0.0000 </r>
       <r>   -29.5316    12.9214     2.0000 </r>
       <r>   -29.3768     0.0000     2.0000 </r>
       <r>   -29.2220     0.0000     2.0000 </r>
       <r>   -29.0673     0.0000     2.0000 </r>
       <r>   -28.9125     0.0000     2.0000 </r>
       <r>   -28.7577     0.0000     2.0000 </r>
       <r>   -28.6029     0.0000     2.0000 </r>
       <r>   -28.4481     0.0000     2.0000 </r>
       <r>   -28.2933     0.0000     2.0000 </r>
       <r>   -28.1386     0.0000     2.0000 </r>
       <r>   -27.9838     0.0000     2.0000 </r>
       <r>   -27.8290     0.0000     2.0000 </r>
       <r>   -27.6742     0.0000     2.0000 </r>
       <r>   -27.5194     0.0000     2.0000 </r>
       <r>   -27.3647     0.0000     2.0000 </r>
       <r>   -27.2099     0.0000     2.0000 </r>
       <r>   -27.0551     0.0000     2.0000 </r>
       <r>   -26.9003     0.0000     2.0000 </r>
       <r>   -26.7455     0.0000     2.0000 </r>
       <r>   -26.5907     0.0000     2.0000 </r>
       <r>   -26.4360     0.0000     2.0000 </r>
       <r>   -26.2812     0.0000     2.0000 </r>
       <r>   -26.1264     0.0000     2.0000 </r>
       <r>   -25.9716     0.0000     2.0000 </r>
       <r>   -25.8168     0.0000     2.0000 </r>
       <r>   -25.6620     0.0000     2.0000 </r>
       <r>   -25.5073     0.0000     2.0000 </r>
       <r>   -25.3525     0.0000     2.0000 </r>
       <r>   -25.1977     0.0000     2.0000 </r>
       <r>   -25.0429     0.0000     2.0000 </r>
       <r>   -24.8881     0.0000     2.0000 </r>
       <r>   -24.7334     0.0000     2.0000 </r>
       <r>   -24.5786     0.0000     2.0000 </r>
       <r>   -24.4238     0.0000     2.0000 </r>
       <r>   -24.2690     0.0000     2.0000 </r>
       <r>   -24.1142     0.0000     2.0000 </r>
       <r>   -23.9594     0.0000     2.0000 </r>
       <r>   -23.8047     0.0000     2.0000 </r>
       <r>   -23.6499     0.0000     2.0000 </r>
       <r>   -23.4951     0.0000     2.0000 </r>
       <r>   -23.3403     0.0000     2.0000 </r>
       <r>   -23.1855     0.0000     2.0000 </r>
       <r>   -23.0308     0.0000     2.0000 </r>
       <r>   -22.8760     0.0000     2.0000 </r>
       <r>   -22.7212     0.0000     2.0000 </r>
       <r>   -22.5664     0.0000     2.0000 </r>
       <r>   -22.4116     0.0000     2.0000 </r>
       <r>   -22.2568     0.0000     2.0000 </r>
       <r>   -22.1021     0.0000     2.0000 </r>
       <r>   -21.9473     0.0000     2.0000 </r>
       <r>   -21.7925     0.0000     2.0000 </r>
       <r>   -21.6377     0.0000     2.0000 </r>
       <r>   -21.4829     0.0000     2.0000 </r>
       <r>   -21.3282     0.0000     2.0000 </r>
       <r>   -21.1734     0.0000     2.0000 </r>
       <r>   -21.0186     0.0000     2.0000 </r>
       <r>   -20.8638     0.0000     2.0000 </r>
       <r>   -20.7090     0.0000     2.0000 </r>
       <r>   -20.5542     0.0000     2.0000 </r>
       <r>   -20.3995     0.0000     2.0000 </r>
       <r>   -20.2447     0.0000     2.0000 </r>
       <r>   -20.0899     0.0000     2.0000 </r>
       <r>   -19.9351     0.0000     2.0000 </r>
       <r>   -19.7803     0.0000     2.0000 </r>
       <r>   -19.6255     0.0000     2.0000 </r>
       <r>   -19.4708     0.0000     2.0000 </r>
       <r>   -19.3160     0.0000     2.0000 </r>
       <r>   -19.1612     0.0000     2.0000 </r>
       <r>   -19.0064     0.0000     2.0000 </r>
       <r>   -18.8516     0.0000     2.0000 </r>
       <r>   -18.6969     0.0000     2.0000 </r>
       <r>   -18.5421     0.0000     2.0000 </r>
       <r>   -18.3873     0.0000     2.0000 </r>
       <r>   -18.2325     0.0000     2.0000 </r>
       <r>   -18.0777     0.0000     2.0000 </r>
       <r>   -17.9229     0.0000     2.0000 </r>
       <r>   -17.7682     0.0000     2.0000 </r>
       <r>   -17.6134     0.0000     2.0000 </r>
       <r>   -17.4586     0.0000     2.0000 </r>
       <r>   -17.3038     0.0000     2.0000 </r>
       <r>   -17.1490     0.0000     2.0000 </r>
       <r>   -16.9943     0.0000     2.0000 </r>
       <r>   -16.8395     0.0000     2.0000 </r>
       <r>   -16.6847     0.0000     2.0000 </r>
       <r>   -16.5299     0.0000     2.0000 </r>
       <r>   -16.3751     0.0000     2.0000 </r>
       <r>   -16.2203     0.0000     2.0000 </r>
       <r>   -16.0656     0.0000     2.0000 </r>
       <r>   -15.9108     0.0000     2.0000 </r>
       <r>   -15.7560     0.0000     2.0000 </r>
       <r>   -15.6012     0.0000     2.0000 </r>
       <r>   -15.4464     0.0000     2.0000 </r>
       <r>   -15.2916     0.0000     2.0000 </r>
       <r>   -15.1369     0.0000     2.0000 </r>
       <r>   -14.9821     0.0000     2.0000 </r>
       <r>   -14.8273     0.0000     2.0000 </r>
       <r>   -14.6725     0.0000     2.0000 </r>
       <r>   -14.5177     0.0000     2.0000 </r>
       <r>   -14.3630     0.0000     2.0000 </r>
       <r>   -14.2082     0.0000     2.0000 </r>
       <r>   -14.0534     0.0000     2.0000 </r>
       <r>   -13.8986     0.0000     2.0000 </r>
       <r>   -13.7438     0.0000     2.0000 </r>
       <r>   -13.5890     0.0000     2.0000 </r>
       <r>   -13.4343     0.0000     2.0000 </r>
       <r>   -13.2795     0.0000     2.0000 </r>
       <r>   -13.1247    11.9929     3.8563 </r>
       <r>   -12.9699     0.0000    12.0000 </r>
       <r>   -12.8151     0.0000    12.0000 </r>
       <r>   -12.6604     0.0000    12.0000 </r>
       <r>   -12.5056     0.0000    12.0000 </r>
       <r>   -12.3508     0.0000    12.0000 </r>
       <r>   -12.1960     0.0000    12.0000 </r>
       <r>   -12.0412     0.0000    12.0000 </r>
       <r>   -11.8864     0.0000    12.0000 </r>
       <r>   -11.7317     0.0000    12.0000 </r>
       <r>   -11.5769     0.0000    12.0000 </r>
       <r>   -11.4221     0.0000    12.0000 </r>
       <r>   -11.2673     0.0000    12.0000 </r>
       <r>   -11.1125     0.0000    12.0000 </r>
       <r>   -10.9577     0.0000    12.0000 </r>
       <r>   -10.8030     0.0000    12.0000 </r>
       <r>   -10.6482     0.0000    12.0000 </r>
       <r>   -10.4934     0.0000    12.0000 </r>
       <r>   -10.3386     0.0000    12.0000 </r>
       <r>   -10.1838     0.0000    12.0000 </r>
       <r>   -10.0291     0.0000    12.0000 </r>
       <r>    -9.8743     0.0000    12.0000 </r>
       <r>    -9.7195     0.0000    12.0000 </r>
       <r>    -9.5647     0.0000    12.0000 </r>
       <r>    -9.4099     0.0000    12.0000 </r>
       <r>    -9.2551     0.0000    12.0000 </r>
       <r>    -9.1004     0.0000    12.0000 </r>
       <r>    -8.9456     0.0000    12.0000 </r>
       <r>    -8.7908     0.0000    12.0000 </r>
       <r>    -8.6360     0.0000    12.0000 </r>
       <r>    -8.4812     0.0000    12.0000 </r>
       <r>    -8.3265     0.0000    12.0000 </r>
       <r>    -8.1717     1.0599    12.1641 </r>
       <r>    -8.0169     7.2628    13.7741 </r>
       <r>    -7.8621     4.8918    14.6980 </r>
       <r>    -7.7073    11.0182    17.9721 </r>
       <r>    -7.5525     0.0000    18.0000 </r>
       <r>    -7.3978     0.0000    18.0000 </r>
       <r>    -7.2430     0.0000    18.0000 </r>
       <r>    -7.0882     0.0000    18.0000 </r>
       <r>    -6.9334     0.0000    18.0000 </r>
       <r>    -6.7786     0.0000    18.0000 </r>
       <r>    -6.6239     0.0000    18.0000 </r>
       <r>    -6.4691     0.0000    18.0000 </r>
       <r>    -6.3143     0.0000    18.0000 </r>
       <r>    -6.1595     0.0000    18.0000 </r>
       <r>    -6.0047     0.0000    18.0000 </r>
       <r>    -5.8499     0.0000    18.0000 </r>
       <r>    -5.6952     0.0000    18.0000 </r>
       <r>    -5.5404     0.0000    18.0000 </r>
       <r>    -5.3856     0.0000    18.0000 </r>
       <r>    -5.2308     0.0000    18.0000 </r>
       <r>    -5.0760     0.0000    18.0000 </r>
       <r>    -4.9212     0.0000    18.0000 </r>
       <r>    -4.7665     0.0000    18.0000 </r>
       <r>    -4.6117     0.0000    18.0000 </r>
       <r>    -4.4569     0.0000    18.0000 </r>
       <r>    -4.3021     0.0000    18.0000 </r>
       <r>    -4.1473     0.0000    18.0000 </r>
       <r>    -3.9926     0.0000    18.0000 </r>
       <r>    -3.8378     0.0000    18.0000 </r>
       <r>    -3.6830     0.0000    18.0000 </r>
       <r>    -3.5282     0.0000    18.0000 </r>
       <r>    -3.3734     0.0000    18.0000 </r>
       <r>    -3.2186     0.0000    18.0000 </r>
       <r>    -3.0639     0.0000    18.0000 </r>
       <r>    -2.9091     0.0000    18.0000 </r>
       <r>    -2.7543     0.0473    18.0082 </r>
       <r>    -2.5995     0.0706    18.0246 </r>
       <r>    -2.4447     0.0627    18.0561 </r>
       <r>    -2.2900     0.2823    18.1029 </r>
       <r>    -2.1352     0.1110    18.1637 </r>
       <r>    -1.9804     1.3499    18.4829 </r>
       <r>    -1.8256     2.1780    19.0044 </r>
       <r>    -1.6708     1.6918    19.5482 </r>
       <r>    -1.5160     0.6302    19.8645 </r>
       <r>    -1.3613     0.3057    19.9963 </r>
       <r>    -1.2065     0.0000    20.0000 </r>
       <r>    -1.0517     0.0000    20.0000 </r>
       <r>    -0.8969     0.0000    20.0000 </r>
       <r>    -0.7421     0.0000    20.0000 </r>
       <r>    -0.5873     0.0000    20.0000 </r>
       <r>    -0.4326     0.0000    20.0000 </r>
       <r>    -0.2778     0.0000    20.0000 </r>
       <r>    -0.1230     0.0000    20.0000 </r>
       <r>     0.0318     0.0000    20.0000 </r>
       <r>     0.1866     0.0000    20.0000 </r>
       <r>     0.3413     0.0000    20.0000 </r>
       <r>     0.4961     0.0000    20.0000 </r>
       <r>     0.6509     0.0000    20.0000 </r>
       <r>     0.8057     0.0000    20.0000 </r>
       <r>     0.9605     0.0000    20.0000 </r>
       <r>     1.1153     0.0000    20.0000 </r>
       <r>     1.2700     0.0000    20.0000 </r>
       <r>     1.4248     0.0000    20.0000 </r>
       <r>     1.5796     0.0000    20.0000 </r>
       <r>     1.7344     0.0000    20.0000 </r>
       <r>     1.8892     0.0000    20.0000 </r>
       <r>     2.0439     0.0000    20.0000 </r>
       <r>     2.1987     0.0000    20.0000 </r>
       <r>     2.3535     0.0000    20.0000 </r>
       <r>     2.5083     0.0000    20.0000 </r>
       <r>     2.6631     0.0000    20.0000 </r>
       <r>     2.8179     0.0000    20.0000 </r>
       <r>     2.9726     0.0000    20.0000 </r>
       <r>     3.1274     0.0000    20.0000 </r>
       <r>     3.2822     0.0000    20.0000 </r>
       <r>     3.4370     0.0015    20.0002 </r>
       <r>     3.5918     0.2764    20.0719 </r>
       <r>     3.7466     1.9650    20.4498 </r>
       <r>     3.9013     0.8346    20.7992 </r>
       <r>     4.0561     0.4224    21.1141 </r>
       <r>     4.2109     0.8091    21.2996 </r>
       <r>     4.3657     2.1979    21.8040 </r>
       <r>     4.5205     3.4464    22.8348 </r>
       <r>     4.6752     3.1513    23.6302 </r>
       <r>     4.8300     2.4068    24.3707 </r>
       <r>     4.9848     3.4614    25.2986 </r>
       <r>     5.1396     1.2273    25.7485 </r>
       <r>     5.2944     0.6994    26.0181 </r>
       <r>     5.4492     0.6149    26.1735 </r>
       <r>     5.6039     5.6800    27.8296 </r>
       <r>     5.7587     3.1510    28.8273 </r>
       <r>     5.9135     2.6535    29.8099 </r>
       <r>     6.0683     1.0655    30.2050 </r>
       <r>     6.2231     1.3898    30.5301 </r>
       <r>     6.3778     2.5128    30.9843 </r>
       <r>     6.5326     1.0049    31.3845 </r>
       <r>     6.6874     0.7267    31.5981 </r>
       <r>     6.8422     0.9989    31.8551 </r>
       <r>     6.9970     0.5003    32.0019 </r>
       <r>     7.1518     0.7437    32.1816 </r>
       <r>     7.3065     0.8334    32.4740 </r>
       <r>     7.4613     0.6964    32.6458 </r>
       <r>     7.6161     2.2081    33.0928 </r>
       <r>     7.7709     0.3109    33.1706 </r>
       <r>     7.9257     1.0889    33.4876 </r>
       <r>     8.0804     0.7281    33.7067 </r>
       <r>     8.2352     3.3664    34.3554 </r>
       <r>     8.3900     2.1701    35.4155 </r>
       <r>     8.5448     0.9575    35.8105 </r>
       <r>     8.6996     0.4491    35.9758 </r>
       <r>     8.8544     0.0176    36.0009 </r>
       <r>     9.0091     0.0000    36.0009 </r>
       <r>     9.1639     0.0000    36.0009 </r>
       <r>     9.3187     0.0000    36.0009 </r>
       <r>     9.4735     0.0000    36.0082 </r>
       <r>     9.6283     0.1060    36.0392 </r>
       <r>     9.7831     0.4403    36.1200 </r>
       <r>     9.9378     0.8705    36.4233 </r>
       <r>    10.0926     2.4713    36.9624 </r>
       <r>    10.2474     1.4850    37.3942 </r>
       <r>    10.4022     1.4174    37.7906 </r>
       <r>    10.5570     0.5948    38.0347 </r>
       <r>    10.7117     0.3766    38.1921 </r>
       <r>    10.8665     0.3599    38.2915 </r>
       <r>    11.0213     1.0738    38.5003 </r>
       <r>    11.1761     1.7382    38.8853 </r>
       <r>    11.3309     1.9861    39.4335 </r>
       <r>    11.4857     1.7472    40.0511 </r>
       <r>    11.6404     1.7111    40.5370 </r>
       <r>    11.7952     1.7884    40.9568 </r>
       <r>    11.9500     2.9721    41.7354 </r>
       <r>    12.1048     2.7288    42.7810 </r>
       <r>    12.2596     6.0343    44.1520 </r>
       <r>    12.4143     4.3921    46.0681 </r>
       <r>    12.5691     6.0006    47.2337 </r>
       <r>    12.7239     0.0000    48.0000 </r>
       <r>    12.8787     0.0000    48.0000 </r>
       <r>    13.0335     0.0000    48.0000 </r>
       <r>    13.1883     0.0000    48.0000 </r>
       <r>    13.3430     0.0000    48.0000 </r>
       <r>    13.4978     0.0000    48.0000 </r>
       <r>    13.6526     0.0000    48.0000 </r>
       <r>    13.8074     0.0000    48.0000 </r>
       <r>    13.9622     0.0000    48.0000 </r>
       <r>    14.1170     0.0000    48.0000 </r>
       <r>    14.2717     0.0000    48.0000 </r>
       <r>    14.4265     0.0000    48.0000 </r>
       <r>    14.5813     0.0000    48.0000 </r>
       <r>    14.7361     0.0000    48.0000 </r>
      </set>
     </set>
    </array>
   </total>
  </dos>
 </calculation>
 <structure name="finalpos" >
  <crystal>
   <varray name="basis" >
    <v>       0.00000000       3.28198748       3.28198748 </v>
    <v>       3.28198748       0.00000000       3.28198748 </v>
    <v>       3.28198748       3.28198748       0.00000000 </v>
   </varray>
   <i name="volume">     70.70347464 </i>
   <varray name="rec_basis" >
    <v>      -0.15234671       0.15234671       0.15234671 </v>
    <v>       0.15234671      -0.15234671       0.15234671 </v>
    <v>       0.15234671       0.15234671      -0.15234671 </v>
   </varray>
  </crystal>
  <varray name="positions" >
   <v>       0.25000000       0.25000000       0.25000000 </v>
   <v>       0.75000000       0.75000000       0.75000000 </v>
   <v>       0.00000000       0.00000000       0.00000000 </v>
  </varray>
 </structure>
</modeling>
