   3   3   0   0
  0.2239674E+02  0.4563244E-09  0.4563244E-09  0.4563244E-09  0.5000000E-15
  1.000000000000000E-004
  CAR
 unknown system
     14.31744977    -35.00732467  301     11.28321306      1.00000000
    -35.007  0.0000E+00  0.0000E+00
    -34.843  0.0000E+00  0.0000E+00
    -34.678  0.0000E+00  0.0000E+00
    -34.514  0.0000E+00  0.0000E+00
    -34.350  0.0000E+00  0.0000E+00
    -34.185  0.0000E+00  0.0000E+00
    -34.021  0.0000E+00  0.0000E+00
    -33.856  0.0000E+00  0.0000E+00
    -33.692  0.0000E+00  0.0000E+00
    -33.528  0.0000E+00  0.0000E+00
    -33.363  0.0000E+00  0.0000E+00
    -33.199  0.0000E+00  0.0000E+00
    -33.034  0.0000E+00  0.0000E+00
    -32.870  0.0000E+00  0.0000E+00
    -32.706  0.1216E+02  0.2000E+01
    -32.541  0.0000E+00  0.2000E+01
    -32.377  0.0000E+00  0.2000E+01
    -32.212  0.0000E+00  0.2000E+01
    -32.048  0.0000E+00  0.2000E+01
    -31.883  0.0000E+00  0.2000E+01
    -31.719  0.0000E+00  0.2000E+01
    -31.555  0.0000E+00  0.2000E+01
    -31.390  0.0000E+00  0.2000E+01
    -31.226  0.0000E+00  0.2000E+01
    -31.061  0.0000E+00  0.2000E+01
    -30.897  0.0000E+00  0.2000E+01
    -30.733  0.0000E+00  0.2000E+01
    -30.568  0.0000E+00  0.2000E+01
    -30.404  0.0000E+00  0.2000E+01
    -30.239  0.0000E+00  0.2000E+01
    -30.075  0.0000E+00  0.2000E+01
    -29.910  0.0000E+00  0.2000E+01
    -29.746  0.0000E+00  0.2000E+01
    -29.582  0.0000E+00  0.2000E+01
    -29.417  0.0000E+00  0.2000E+01
    -29.253  0.0000E+00  0.2000E+01
    -29.088  0.0000E+00  0.2000E+01
    -28.924  0.0000E+00  0.2000E+01
    -28.760  0.0000E+00  0.2000E+01
    -28.595  0.0000E+00  0.2000E+01
    -28.431  0.0000E+00  0.2000E+01
    -28.266  0.0000E+00  0.2000E+01
    -28.102  0.0000E+00  0.2000E+01
    -27.937  0.0000E+00  0.2000E+01
    -27.773  0.0000E+00  0.2000E+01
    -27.609  0.0000E+00  0.2000E+01
    -27.444  0.0000E+00  0.2000E+01
    -27.280  0.0000E+00  0.2000E+01
    -27.115  0.0000E+00  0.2000E+01
    -26.951  0.0000E+00  0.2000E+01
    -26.787  0.0000E+00  0.2000E+01
    -26.622  0.0000E+00  0.2000E+01
    -26.458  0.0000E+00  0.2000E+01
    -26.293  0.0000E+00  0.2000E+01
    -26.129  0.0000E+00  0.2000E+01
    -25.964  0.0000E+00  0.2000E+01
    -25.800  0.0000E+00  0.2000E+01
    -25.636  0.0000E+00  0.2000E+01
    -25.471  0.0000E+00  0.2000E+01
    -25.307  0.0000E+00  0.2000E+01
    -25.142  0.0000E+00  0.2000E+01
    -24.978  0.0000E+00  0.2000E+01
    -24.814  0.0000E+00  0.2000E+01
    -24.649  0.0000E+00  0.2000E+01
    -24.485  0.0000E+00  0.2000E+01
    -24.320  0.0000E+00  0.2000E+01
    -24.156  0.0000E+00  0.2000E+01
    -23.991  0.0000E+00  0.2000E+01
    -23.827  0.0000E+00  0.2000E+01
    -23.663  0.0000E+00  0.2000E+01
    -23.498  0.0000E+00  0.2000E+01
    -23.334  0.0000E+00  0.2000E+01
    -23.169  0.0000E+00  0.2000E+01
    -23.005  0.0000E+00  0.2000E+01
    -22.841  0.0000E+00  0.2000E+01
    -22.676  0.0000E+00  0.2000E+01
    -22.512  0.0000E+00  0.2000E+01
    -22.347  0.0000E+00  0.2000E+01
    -22.183  0.0000E+00  0.2000E+01
    -22.018  0.0000E+00  0.2000E+01
    -21.854  0.0000E+00  0.2000E+01
    -21.690  0.0000E+00  0.2000E+01
    -21.525  0.0000E+00  0.2000E+01
    -21.361  0.0000E+00  0.2000E+01
    -21.196  0.0000E+00  0.2000E+01
    -21.032  0.0000E+00  0.2000E+01
    -20.868  0.0000E+00  0.2000E+01
    -20.703  0.0000E+00  0.2000E+01
    -20.539  0.0000E+00  0.2000E+01
    -20.374  0.0000E+00  0.2000E+01
    -20.210  0.0000E+00  0.2000E+01
    -20.045  0.0000E+00  0.2000E+01
    -19.881  0.0000E+00  0.2000E+01
    -19.717  0.0000E+00  0.2000E+01
    -19.552  0.0000E+00  0.2000E+01
    -19.388  0.0000E+00  0.2000E+01
    -19.223  0.0000E+00  0.2000E+01
    -19.059  0.0000E+00  0.2000E+01
    -18.895  0.0000E+00  0.2000E+01
    -18.730  0.0000E+00  0.2000E+01
    -18.566  0.0000E+00  0.2000E+01
    -18.401  0.0000E+00  0.2000E+01
    -18.237  0.0000E+00  0.2000E+01
    -18.072  0.0000E+00  0.2000E+01
    -17.908  0.0000E+00  0.2000E+01
    -17.744  0.0000E+00  0.2000E+01
    -17.579  0.0000E+00  0.2000E+01
    -17.415  0.0000E+00  0.2000E+01
    -17.250  0.0000E+00  0.2000E+01
    -17.086  0.0000E+00  0.2000E+01
    -16.922  0.0000E+00  0.2000E+01
    -16.757  0.0000E+00  0.2000E+01
    -16.593  0.0000E+00  0.2000E+01
    -16.428  0.0000E+00  0.2000E+01
    -16.264  0.0000E+00  0.2000E+01
    -16.099  0.0000E+00  0.2000E+01
    -15.935  0.0000E+00  0.2000E+01
    -15.771  0.0000E+00  0.2000E+01
    -15.606  0.0000E+00  0.2000E+01
    -15.442  0.0000E+00  0.2000E+01
    -15.277  0.0000E+00  0.2000E+01
    -15.113  0.0000E+00  0.2000E+01
    -14.949  0.0000E+00  0.2000E+01
    -14.784  0.0000E+00  0.2000E+01
    -14.620  0.0000E+00  0.2000E+01
    -14.455  0.0000E+00  0.2000E+01
    -14.291  0.0000E+00  0.2000E+01
    -14.127  0.0000E+00  0.2000E+01
    -13.962  0.0000E+00  0.2000E+01
    -13.798  0.0000E+00  0.2000E+01
    -13.633  0.0000E+00  0.2000E+01
    -13.469  0.0000E+00  0.2000E+01
    -13.304  0.0000E+00  0.2000E+01
    -13.140  0.0000E+00  0.2000E+01
    -12.976  0.0000E+00  0.2000E+01
    -12.811  0.0000E+00  0.2000E+01
    -12.647  0.0000E+00  0.2000E+01
    -12.482  0.0000E+00  0.2000E+01
    -12.318  0.0000E+00  0.2000E+01
    -12.154  0.0000E+00  0.2000E+01
    -11.989  0.0000E+00  0.2000E+01
    -11.825  0.6927E+01  0.3139E+01
    -11.660  0.0000E+00  0.1200E+02
    -11.496  0.0000E+00  0.1200E+02
    -11.331  0.0000E+00  0.1200E+02
    -11.167  0.0000E+00  0.1200E+02
    -11.003  0.0000E+00  0.1200E+02
    -10.838  0.0000E+00  0.1200E+02
    -10.674  0.0000E+00  0.1200E+02
    -10.509  0.0000E+00  0.1200E+02
    -10.345  0.0000E+00  0.1200E+02
    -10.181  0.0000E+00  0.1200E+02
    -10.016  0.0000E+00  0.1200E+02
     -9.852  0.0000E+00  0.1200E+02
     -9.687  0.0000E+00  0.1200E+02
     -9.523  0.0000E+00  0.1200E+02
     -9.358  0.0000E+00  0.1200E+02
     -9.194  0.0000E+00  0.1200E+02
     -9.030  0.0000E+00  0.1200E+02
     -8.865  0.0000E+00  0.1200E+02
     -8.701  0.0000E+00  0.1200E+02
     -8.536  0.0000E+00  0.1200E+02
     -8.372  0.3821E+01  0.1266E+02
     -8.208  0.4084E+01  0.1450E+02
     -8.043  0.1005E+02  0.1799E+02
     -7.879  0.0000E+00  0.1800E+02
     -7.714  0.0000E+00  0.1800E+02
     -7.550  0.0000E+00  0.1800E+02
     -7.385  0.0000E+00  0.1800E+02
     -7.221  0.0000E+00  0.1800E+02
     -7.057  0.0000E+00  0.1800E+02
     -6.892  0.0000E+00  0.1800E+02
     -6.728  0.0000E+00  0.1800E+02
     -6.563  0.0000E+00  0.1800E+02
     -6.399  0.0000E+00  0.1800E+02
     -6.235  0.0000E+00  0.1800E+02
     -6.070  0.0000E+00  0.1800E+02
     -5.906  0.0000E+00  0.1800E+02
     -5.741  0.0000E+00  0.1800E+02
     -5.577  0.0000E+00  0.1800E+02
     -5.412  0.0000E+00  0.1800E+02
     -5.248  0.0000E+00  0.1800E+02
     -5.084  0.0000E+00  0.1800E+02
     -4.919  0.0000E+00  0.1800E+02
     -4.755  0.0000E+00  0.1800E+02
     -4.590  0.0000E+00  0.1800E+02
     -4.426  0.0000E+00  0.1800E+02
     -4.262  0.0000E+00  0.1800E+02
     -4.097  0.0000E+00  0.1800E+02
     -3.933  0.0000E+00  0.1800E+02
     -3.768  0.0000E+00  0.1800E+02
     -3.604  0.0000E+00  0.1800E+02
     -3.439  0.0000E+00  0.1800E+02
     -3.275  0.0000E+00  0.1800E+02
     -3.111  0.0000E+00  0.1800E+02
     -2.946  0.0000E+00  0.1800E+02
     -2.782  0.0000E+00  0.1800E+02
     -2.617  0.0000E+00  0.1800E+02
     -2.453  0.0000E+00  0.1800E+02
     -2.289  0.0000E+00  0.1800E+02
     -2.124  0.0000E+00  0.1800E+02
     -1.960  0.0000E+00  0.1800E+02
     -1.795  0.7604E-09  0.1800E+02
     -1.631  0.7693E-01  0.1801E+02
     -1.466  0.1100E+00  0.1803E+02
     -1.302  0.3322E-01  0.1806E+02
     -1.138  0.2303E+00  0.1814E+02
     -0.973  0.3268E+00  0.1821E+02
     -0.809  0.8708E+00  0.1840E+02
     -0.644  0.1800E+01  0.1900E+02
     -0.480  0.1597E+01  0.1967E+02
     -0.316  0.7872E+00  0.1997E+02
     -0.151  0.0000E+00  0.2000E+02
      0.013  0.0000E+00  0.2000E+02
      0.178  0.0000E+00  0.2000E+02
      0.342  0.0000E+00  0.2000E+02
      0.507  0.0000E+00  0.2000E+02
      0.671  0.0000E+00  0.2000E+02
      0.835  0.0000E+00  0.2000E+02
      1.000  0.0000E+00  0.2000E+02
      1.164  0.0000E+00  0.2000E+02
      1.329  0.0000E+00  0.2000E+02
      1.493  0.0000E+00  0.2000E+02
      1.657  0.0000E+00  0.2000E+02
      1.822  0.0000E+00  0.2000E+02
      1.986  0.0000E+00  0.2000E+02
      2.151  0.0000E+00  0.2000E+02
      2.315  0.0000E+00  0.2000E+02
      2.480  0.0000E+00  0.2000E+02
      2.644  0.0000E+00  0.2000E+02
      2.808  0.0000E+00  0.2000E+02
      2.973  0.0000E+00  0.2000E+02
      3.137  0.0000E+00  0.2000E+02
      3.302  0.0000E+00  0.2000E+02
      3.466  0.0000E+00  0.2000E+02
      3.630  0.0000E+00  0.2000E+02
      3.795  0.0000E+00  0.2000E+02
      3.959  0.0000E+00  0.2000E+02
      4.124  0.0000E+00  0.2000E+02
      4.288  0.0000E+00  0.2000E+02
      4.452  0.0000E+00  0.2000E+02
      4.617  0.1242E+00  0.2002E+02
      4.781  0.1495E+01  0.2034E+02
      4.946  0.6063E+00  0.2077E+02
      5.110  0.5320E+00  0.2109E+02
      5.275  0.1153E+01  0.2136E+02
      5.439  0.1516E+01  0.2173E+02
      5.603  0.3069E+01  0.2278E+02
      5.768  0.2722E+01  0.2366E+02
      5.932  0.2619E+01  0.2452E+02
      6.097  0.2473E+01  0.2543E+02
      6.261  0.1063E+01  0.2591E+02
      6.425  0.2968E+00  0.2607E+02
      6.590  0.5623E+01  0.2708E+02
      6.754  0.2045E+01  0.2842E+02
      6.919  0.3990E+01  0.2964E+02
      7.083  0.1176E+01  0.3019E+02
      7.248  0.7397E+00  0.3039E+02
      7.412  0.1707E+01  0.3083E+02
      7.576  0.9864E+00  0.3119E+02
      7.741  0.7722E+00  0.3153E+02
      7.905  0.4230E+00  0.3165E+02
      8.070  0.3014E+00  0.3188E+02
      8.234  0.3293E+00  0.3204E+02
      8.398  0.1278E+01  0.3237E+02
      8.563  0.4431E+00  0.3254E+02
      8.727  0.5625E+00  0.3273E+02
      8.892  0.3946E+00  0.3310E+02
      9.056  0.9631E+00  0.3332E+02
      9.221  0.6616E+00  0.3358E+02
      9.385  0.8078E+00  0.3379E+02
      9.549  0.4937E+01  0.3512E+02
      9.714  0.1658E+01  0.3584E+02
      9.878  0.3568E-01  0.3598E+02
     10.043  0.0000E+00  0.3600E+02
     10.207  0.0000E+00  0.3600E+02
     10.371  0.3400E-01  0.3601E+02
     10.536  0.4667E+00  0.3611E+02
     10.700  0.1956E+01  0.3659E+02
     10.865  0.1690E+01  0.3720E+02
     11.029  0.2001E+01  0.3786E+02
     11.194  0.6545E+00  0.3810E+02
     11.358  0.1010E+02  0.4049E+02
     11.522  0.4122E+01  0.4206E+02
     11.687  0.8655E+01  0.4455E+02
     11.851  0.7720E+01  0.4717E+02
     12.016  0.6017E+00  0.4798E+02
     12.180  0.0000E+00  0.4800E+02
     12.344  0.0000E+00  0.4800E+02
     12.509  0.0000E+00  0.4800E+02
     12.673  0.0000E+00  0.4800E+02
     12.838  0.0000E+00  0.4800E+02
     13.002  0.0000E+00  0.4800E+02
     13.167  0.0000E+00  0.4800E+02
     13.331  0.0000E+00  0.4800E+02
     13.495  0.0000E+00  0.4800E+02
     13.660  0.0000E+00  0.4800E+02
     13.824  0.0000E+00  0.4800E+02
     13.989  0.0000E+00  0.4800E+02
     14.153  0.0000E+00  0.4800E+02
     14.317  0.0000E+00  0.4800E+02
