    3    3    1    1
  0.2239674E+02  0.4563244E-09  0.4563244E-09  0.4563244E-09  0.5000000E-15
  1.000000000000000E-004
  CAR
 unknown system
     39     84     24

  0.0000000E+00  0.0000000E+00  0.0000000E+00  0.4551661E-03
    1      -32.765289   1.000000
    2      -11.794921   1.000000
    3      -11.794921   1.000000
    4      -11.760472   1.000000
    5      -11.760472   1.000000
    6      -11.760472   1.000000
    7       -8.150517   1.000000
    8       -8.150517   1.000000
    9       -8.150517   1.000000
   10       -1.758964   1.000000
   11        6.284820   1.000000
   12        6.284820   1.000000
   13        6.284820   1.000000
   14        6.444612   1.000000
   15        6.444612   1.000000
   16        9.913705   1.000000
   17        9.956946   1.000000
   18        9.956946   1.000000
   19        9.956946   1.000000
   20       11.161368   1.000000
   21       11.161368   1.000000
   22       11.161368   1.000000
   23       11.580617   0.000000
   24       11.580618   0.000000

  0.7692308E-01  0.3652501E-17  0.1683512E-17  0.3641329E-02
    1      -32.764836   1.000000
    2      -11.797495   1.000000
    3      -11.797495   1.000000
    4      -11.760952   1.000000
    5      -11.760185   1.000000
    6      -11.760185   1.000000
    7       -8.172805   1.000000
    8       -8.144712   1.000000
    9       -8.144712   1.000000
   10       -1.672648   1.000000
   11        6.104624   1.000000
   12        6.104624   1.000000
   13        6.157404   1.000000
   14        6.614068   1.000000
   15        6.614068   1.000000
   16        9.252175   1.000000
   17        9.891487   1.000000
   18        9.891487   1.000000
   19       10.367696   1.000000
   20       11.171268   1.000000
   21       11.171268   1.000000
   22       11.219063   1.000000
   23       11.649558   0.000000
   24       11.650075   0.000000

  0.1538462E+00 -0.2631769E-17  0.2108929E-17  0.3641329E-02
    1      -32.763581   1.000000
    2      -11.804599   1.000000
    3      -11.804599   1.000000
    4      -11.762438   1.000000
    5      -11.759338   1.000000
    6      -11.759337   1.000000
    7       -8.231478   1.000000
    8       -8.128702   1.000000
    9       -8.128702   1.000000
   10       -1.433146   1.000000
   11        5.827184   1.000000
   12        5.895381   1.000000
   13        5.895381   1.000000
   14        6.778248   1.000000
   15        6.778248   1.000000
   16        8.540371   1.000000
   17        9.756326   1.000000
   18        9.756326   1.000000
   19       10.406749   1.000000
   20       11.194947   1.000000
   21       11.194947   1.000000
   22       11.482338   0.000000
   23       11.786264   0.000000
   24       11.799516   0.000000

  0.2307692E+00  0.2362193E-17 -0.3146453E-17  0.3641329E-02
    1      -32.761814   1.000000
    2      -11.814549   1.000000
    3      -11.814549   1.000000
    4      -11.764954   1.000000
    5      -11.758098   1.000000
    6      -11.758097   1.000000
    7       -8.307123   1.000000
    8       -8.106285   1.000000
    9       -8.106285   1.000000
   10       -1.093916   1.000000
   11        5.407766   1.000000
   12        5.741770   1.000000
   13        5.741770   1.000000
   14        6.829403   1.000000
   15        6.829403   1.000000
   16        7.910788   1.000000
   17        9.651637   1.000000
   18        9.651637   1.000000
   19       10.382210   1.000000
   20       11.229581   1.000000
   21       11.229581   1.000000
   22       11.592162   0.000000
   23       11.651920   0.000000
   24       11.902094   0.000000

  0.3076923E+00 -0.5263538E-17  0.4217858E-17  0.3641329E-02
    1      -32.759937   1.000000
    2      -11.825000   1.000000
    3      -11.825000   1.000000
    4      -11.768194   1.000000
    5      -11.756749   1.000000
    6      -11.756749   1.000000
    7       -8.379314   1.000000
    8       -8.082692   1.000000
    9       -8.082692   1.000000
   10       -0.730862   1.000000
   11        5.010624   1.000000
   12        5.658215   1.000000
   13        5.658215   1.000000
   14        6.759007   1.000000
   15        6.759007   1.000000
   16        7.421297   1.000000
   17        9.620678   1.000000
   18        9.620678   1.000000
   19       10.415798   1.000000
   20       11.277315   0.797906
   21       11.277315   0.797905
   22       11.598398   0.000000
   23       11.741550   0.000000
   24       11.884342   0.000000

  0.3846154E+00  0.1360821E-16 -0.1491531E-16  0.3641329E-02
    1      -32.758384   1.000000
    2      -11.833566   1.000000
    3      -11.833566   1.000000
    4      -11.771338   1.000000
    5      -11.755617   1.000000
    6      -11.755617   1.000000
    7       -8.433450   1.000000
    8       -8.063292   1.000000
    9       -8.063292   1.000000
   10       -0.427577   1.000000
   11        4.715320   1.000000
   12        5.638016   1.000000
   13        5.638016   1.000000
   14        6.624209   1.000000
   15        6.624209   1.000000
   16        7.092068   1.000000
   17        9.639542   1.000000
   18        9.639542   1.000000
   19       10.498171   1.000000
   20       11.336883   0.000000
   21       11.336883   0.000000
   22       11.603586   0.000000
   23       11.796791   0.000000
   24       11.805434   0.000000

  0.4615385E+00 -0.7895307E-17  0.6326787E-17  0.3641329E-02
    1      -32.757509   1.000000
    2      -11.838370   1.000000
    3      -11.838370   1.000000
    4      -11.773301   1.000000
    5      -11.754973   1.000000
    6      -11.754973   1.000000
    7       -8.461909   1.000000
    8       -8.052403   1.000000
    9       -8.052403   1.000000
   10       -0.255729   1.000000
   11        4.562225   1.000000
   12        5.649621   1.000000
   13        5.649621   1.000000
   14        6.517186   1.000000
   15        6.517186   1.000000
   16        6.927219   1.000000
   17        9.662926   1.000000
   18        9.662926   1.000000
   19       10.573680   1.000000
   20       11.390479   0.000000
   21       11.390479   0.000000
   22       11.606537   0.000000
   23       11.717352   0.000000
   24       11.717352   0.000000

  0.7692308E-01  0.7692308E-01  0.2666883E-17  0.2730997E-02
    1      -32.764687   1.000000
    2      -11.801908   1.000000
    3      -11.794307   1.000000
    4      -11.761202   1.000000
    5      -11.760045   1.000000
    6      -11.760045   1.000000
    7       -8.162046   1.000000
    8       -8.152131   1.000000
    9       -8.152131   1.000000
   10       -1.645775   1.000000
   11        5.821475   1.000000
   12        6.297195   1.000000
   13        6.297195   1.000000
   14        6.458790   1.000000
   15        6.675035   1.000000
   16        9.244321   1.000000
   17        9.783835   1.000000
   18        9.783835   1.000000
   19       10.508735   1.000000
   20       11.129518   1.000000
   21       11.209802   1.000000
   22       11.209802   1.000000
   23       11.593405   0.000000
   24       11.667070   0.000000

  0.1538462E+00  0.7692308E-01  0.1243890E-16  0.1092399E-01
    1      -32.763704   1.000000
    2      -11.809726   1.000000
    3      -11.796374   1.000000
    4      -11.762339   1.000000
    5      -11.759458   1.000000
    6      -11.759298   1.000000
    7       -8.206887   1.000000
    8       -8.147814   1.000000
    9       -8.134288   1.000000
   10       -1.463327   1.000000
   11        5.518475   1.000000
   12        6.155023   1.000000
   13        6.158148   1.000000
   14        6.601904   1.000000
   15        6.802171   1.000000
   16        8.753869   1.000000
   17        9.637276   1.000000
   18        9.643866   1.000000
   19       10.569407   1.000000
   20       11.162532   1.000000
   21       11.232855   1.000000
   22       11.391450   0.000000
   23       11.600360   0.000000
   24       11.777105   0.000000

  0.2307692E+00  0.7692308E-01 -0.3779754E-17  0.1092399E-01
    1      -32.762117   1.000000
    2      -11.819119   1.000000
    3      -11.803271   1.000000
    4      -11.764300   1.000000
    5      -11.758612   1.000000
    6      -11.758025   1.000000
    7       -8.277494   1.000000
    8       -8.132864   1.000000
    9       -8.109704   1.000000
   10       -1.168200   1.000000
   11        5.236002   1.000000
   12        5.886196   1.000000
   13        5.995530   1.000000
   14        6.692081   1.000000
   15        6.903265   1.000000
   16        8.161762   1.000000
   17        9.506066   1.000000
   18        9.543365   1.000000
   19       10.538798   1.000000
   20       11.201604   1.000000
   21       11.250332   0.999998
   22       11.594581   0.000000
   23       11.604273   0.000000
   24       11.873468   0.000000

  0.3076923E+00  0.7692308E-01 -0.4927388E-17  0.1092399E-01
    1      -32.760288   1.000000
    2      -11.827938   1.000000
    3      -11.813236   1.000000
    4      -11.767013   1.000000
    5      -11.757586   1.000000
    6      -11.756592   1.000000
    7       -8.350700   1.000000
    8       -8.110837   1.000000
    9       -8.086866   1.000000
   10       -0.829247   1.000000
   11        4.979326   1.000000
   12        5.663827   1.000000
   13        5.883144   1.000000
   14        6.659832   1.000000
   15        6.899015   1.000000
   16        7.635267   1.000000
   17        9.438982   1.000000
   18        9.534427   1.000000
   19       10.524386   1.000000
   20       11.260829   0.999226
   21       11.278415   0.751299
   22       11.607716   0.000000
   23       11.691364   0.000000
   24       11.878947   0.000000

  0.3846154E+00  0.7692308E-01  0.3695018E-17  0.1092399E-01
    1      -32.758635   1.000000
    2      -11.834220   1.000000
    3      -11.823870   1.000000
    4      -11.769949   1.000000
    5      -11.756550   1.000000
    6      -11.755388   1.000000
    7       -8.410164   1.000000
    8       -8.086813   1.000000
    9       -8.070846   1.000000
   10       -0.525483   1.000000
   11        4.771612   1.000000
   12        5.565018   1.000000
   13        5.806795   1.000000
   14        6.564197   1.000000
   15        6.797557   1.000000
   16        7.238718   1.000000
   17        9.442682   1.000000
   18        9.575155   1.000000
   19       10.559395   1.000000
   20       11.323910   0.000000
   21       11.326968   0.000000
   22       11.608814   0.000000
   23       11.730771   0.000000
   24       11.837134   0.000000

  0.4615385E+00  0.7692308E-01 -0.2818459E-17  0.1092399E-01
    1      -32.757538   1.000000
    2      -11.836610   1.000000
    3      -11.832734   1.000000
    4      -11.772166   1.000000
    5      -11.755747   1.000000
    6      -11.754714   1.000000
    7       -8.446369   1.000000
    8       -8.066225   1.000000
    9       -8.065068   1.000000
   10       -0.325715   1.000000
   11        4.646698   1.000000
   12        5.580627   1.000000
   13        5.726920   1.000000
   14        6.511390   1.000000
   15        6.655989   1.000000
   16        7.002151   1.000000
   17        9.472334   1.000000
   18        9.612575   1.000000
   19       10.621180   1.000000
   20       11.381987   0.000000
   21       11.382509   0.000000
   22       11.603294   0.000000
   23       11.707411   0.000000
   24       11.781424   0.000000

 -0.4615385E+00  0.7692308E-01 -0.1547203E-16  0.1092399E-01
    1      -32.757246   1.000000
    2      -11.837920   1.000000
    3      -11.834642   1.000000
    4      -11.772756   1.000000
    5      -11.755392   1.000000
    6      -11.754714   1.000000
    7       -8.455370   1.000000
    8       -8.070607   1.000000
    9       -8.053642   1.000000
   10       -0.271304   1.000000
   11        4.615094   1.000000
   12        5.621739   1.000000
   13        5.666638   1.000000
   14        6.544567   1.000000
   15        6.568194   1.000000
   16        6.943893   1.000000
   17        9.479252   1.000000
   18        9.620961   1.000000
   19       10.647739   1.000000
   20       11.388922   0.000000
   21       11.419459   0.000000
   22       11.591866   0.000000
   23       11.714439   0.000000
   24       11.726195   0.000000

 -0.3846154E+00  0.7692308E-01  0.5770066E-17  0.1092399E-01
    1      -32.757826   1.000000
    2      -11.838339   1.000000
    3      -11.828718   1.000000
    4      -11.771451   1.000000
    5      -11.755602   1.000000
    6      -11.755359   1.000000
    7       -8.436538   1.000000
    8       -8.086037   1.000000
    9       -8.051872   1.000000
   10       -0.373021   1.000000
   11        4.681533   1.000000
   12        5.527086   1.000000
   13        5.771826   1.000000
   14        6.521687   1.000000
   15        6.708766   1.000000
   16        7.065863   1.000000
   17        9.436977   1.000000
   18        9.608525   1.000000
   19       10.609295   1.000000
   20       11.345644   0.000000
   21       11.385967   0.000000
   22       11.598752   0.000000
   23       11.748700   0.000000
   24       11.768188   0.000000

 -0.3076923E+00  0.7692308E-01  0.1439247E-16  0.1092399E-01
    1      -32.759145   1.000000
    2      -11.833902   1.000000
    3      -11.820054   1.000000
    4      -11.768805   1.000000
    5      -11.756463   1.000000
    6      -11.756348   1.000000
    7       -8.391827   1.000000
    8       -8.107745   1.000000
    9       -8.061391   1.000000
   10       -0.612001   1.000000
   11        4.860042   1.000000
   12        5.488192   1.000000
   13        5.876134   1.000000
   14        6.585630   1.000000
   15        6.862623   1.000000
   16        7.356118   1.000000
   17        9.356015   1.000000
   18        9.607787   1.000000
   19       10.551758   1.000000
   20       11.296681   0.028415
   21       11.317003   0.000001
   22       11.604108   0.000000
   23       11.745141   0.000000
   24       11.818907   0.000000

 -0.2307692E+00  0.7692308E-01  0.7878995E-17  0.1092399E-01
    1      -32.760904   1.000000
    2      -11.825581   1.000000
    3      -11.810535   1.000000
    4      -11.765827   1.000000
    5      -11.757762   1.000000
    6      -11.757467   1.000000
    7       -8.327226   1.000000
    8       -8.130573   1.000000
    9       -8.080141   1.000000
   10       -0.936633   1.000000
   11        5.145967   1.000000
   12        5.529458   1.000000
   13        6.006785   1.000000
   14        6.652565   1.000000
   15        6.955127   1.000000
   16        7.797137   1.000000
   17        9.291113   1.000000
   18        9.658047   1.000000
   19       10.526363   1.000000
   20       11.248520   1.000000
   21       11.260716   0.999267
   22       11.601889   0.000000
   23       11.677645   0.000000
   24       11.873037   0.000000

 -0.1538462E+00  0.7692308E-01  0.2623613E-17  0.1092399E-01
    1      -32.762697   1.000000
    2      -11.815187   1.000000
    3      -11.802373   1.000000
    4      -11.763352   1.000000
    5      -11.758952   1.000000
    6      -11.758675   1.000000
    7       -8.255313   1.000000
    8       -8.148549   1.000000
    9       -8.103922   1.000000
   10       -1.271276   1.000000
   11        5.494087   1.000000
   12        5.656137   1.000000
   13        6.181919   1.000000
   14        6.630257   1.000000
   15        6.936485   1.000000
   16        8.347429   1.000000
   17        9.330829   1.000000
   18        9.767936   1.000000
   19       10.541139   1.000000
   20       11.190866   1.000000
   21       11.235797   1.000000
   22       11.561224   0.000000
   23       11.596616   0.000000
   24       11.840217   0.000000

 -0.7692308E-01  0.7692308E-01 -0.3889864E-17  0.5461994E-02
    1      -32.764118   1.000000
    2      -11.805061   1.000000
    3      -11.797626   1.000000
    4      -11.761725   1.000000
    5      -11.759794   1.000000
    6      -11.759649   1.000000
    7       -8.197217   1.000000
    8       -8.154203   1.000000
    9       -8.127275   1.000000
   10       -1.537299   1.000000
   11        5.840791   1.000000
   12        5.857452   1.000000
   13        6.308289   1.000000
   14        6.547298   1.000000
   15        6.808405   1.000000
   16        8.887136   1.000000
   17        9.567349   1.000000
   18        9.878280   1.000000
   19       10.524181   1.000000
   20       11.157902   1.000000
   21       11.205396   1.000000
   22       11.360882   0.000000
   23       11.589650   0.000000
   24       11.728465   0.000000

  0.1538462E+00  0.1538462E+00  0.5333766E-17  0.2730997E-02
    1      -32.763041   1.000000
    2      -11.816374   1.000000
    3      -11.792596   1.000000
    4      -11.763441   1.000000
    5      -11.758749   1.000000
    6      -11.758749   1.000000
    7       -8.194991   1.000000
    8       -8.156812   1.000000
    9       -8.156812   1.000000
   10       -1.356019   1.000000
   11        5.190413   1.000000
   12        6.315364   1.000000
   13        6.315364   1.000000
   14        6.498649   1.000000
   15        6.737581   1.000000
   16        8.721429   1.000000
   17        9.493597   1.000000
   18        9.493597   1.000000
   19       10.575651   1.000000
   20       11.261273   0.999041
   21       11.261273   0.999041
   22       11.339963   0.000000
   23       11.632098   0.000000
   24       11.835834   0.000000

  0.2307692E+00  0.1538462E+00  0.1317416E-16  0.1092399E-01
    1      -32.761746   1.000000
    2      -11.822938   1.000000
    3      -11.794366   1.000000
    4      -11.765081   1.000000
    5      -11.757940   1.000000
    6      -11.757583   1.000000
    7       -8.247181   1.000000
    8       -8.153673   1.000000
    9       -8.139026   1.000000
   10       -1.142044   1.000000
   11        4.937295   1.000000
   12        6.156545   1.000000
   13        6.221688   1.000000
   14        6.578198   1.000000
   15        6.799173   1.000000
   16        8.401717   1.000000
   17        9.323930   1.000000
   18        9.410656   1.000000
   19       10.607870   1.000000
   20       11.230569   1.000000
   21       11.276911   0.813583
   22       11.510888   0.000000
   23       11.647421   0.000000
   24       11.903386   0.000000

  0.3076923E+00  0.1538462E+00  0.1063249E-17  0.1092399E-01
    1      -32.760112   1.000000
    2      -11.827937   1.000000
    3      -11.801242   1.000000
    4      -11.766950   1.000000
    5      -11.757377   1.000000
    6      -11.756073   1.000000
    7       -8.315604   1.000000
    8       -8.139245   1.000000
    9       -8.116908   1.000000
   10       -0.878898   1.000000
   11        4.790751   1.000000
   12        5.884572   1.000000
   13        6.103759   1.000000
   14        6.590162   1.000000
   15        6.876146   1.000000
   16        7.963464   1.000000
   17        9.164067   1.000000
   18        9.417661   1.000000
   19       10.656430   1.000000
   20       11.251343   0.999997
   21       11.296000   0.035271
   22       11.611070   0.000000
   23       11.648967   0.000000
   24       11.910315   0.000000

  0.3846154E+00  0.1538462E+00 -0.4192133E-17  0.1092399E-01
    1      -32.758518   1.000000
    2      -11.830278   1.000000
    3      -11.811349   1.000000
    4      -11.768870   1.000000
    5      -11.757044   1.000000
    6      -11.754757   1.000000
    7       -8.375030   1.000000
    8       -8.116944   1.000000
    9       -8.104089   1.000000
   10       -0.632417   1.000000
   11        4.757207   1.000000
   12        5.672543   1.000000
   13        5.984271   1.000000
   14        6.548950   1.000000
   15        6.872209   1.000000
   16        7.533334   1.000000
   17        9.096365   1.000000
   18        9.472776   1.000000
   19       10.679362   1.000000
   20       11.311754   0.000027
   21       11.330447   0.000000
   22       11.642657   0.000000
   23       11.652332   0.000000
   24       11.878288   0.000000

  0.4615385E+00  0.1538462E+00  0.3172178E-17  0.1092399E-01
    1      -32.757326   1.000000
    2      -11.829575   1.000000
    3      -11.822257   1.000000
    4      -11.770397   1.000000
    5      -11.756854   1.000000
    6      -11.754019   1.000000
    7       -8.414213   1.000000
    8       -8.103577   1.000000
    9       -8.091857   1.000000
   10       -0.454264   1.000000
   11        4.797196   1.000000
   12        5.580451   1.000000
   13        5.829276   1.000000
   14        6.554683   1.000000
   15        6.790019   1.000000
   16        7.212714   1.000000
   17        9.088067   1.000000
   18        9.515049   1.000000
   19       10.716399   1.000000
   20       11.363019   0.000000
   21       11.383844   0.000000
   22       11.625448   0.000000
   23       11.673161   0.000000
   24       11.850315   0.000000

 -0.4615385E+00  0.1538462E+00 -0.9481396E-17  0.1092399E-01
    1      -32.756809   1.000000
    2      -11.831524   1.000000
    3      -11.826109   1.000000
    4      -11.770854   1.000000
    5      -11.756790   1.000000
    6      -11.753994   1.000000
    7       -8.428500   1.000000
    8       -8.114786   1.000000
    9       -8.069616   1.000000
   10       -0.370368   1.000000
   11        4.827778   1.000000
   12        5.621395   1.000000
   13        5.649712   1.000000
   14        6.647088   1.000000
   15        6.669686   1.000000
   16        7.081035   1.000000
   17        9.078825   1.000000
   18        9.519423   1.000000
   19       10.754409   1.000000
   20       11.367123   0.000000
   21       11.444821   0.000000
   22       11.589791   0.000000
   23       11.709160   0.000000
   24       11.790840   0.000000

 -0.3846154E+00  0.1538462E+00 -0.1599487E-16  0.1092399E-01
    1      -32.757085   1.000000
    2      -11.837180   1.000000
    3      -11.820682   1.000000
    4      -11.769908   1.000000
    5      -11.756887   1.000000
    6      -11.754631   1.000000
    7       -8.417627   1.000000
    8       -8.134086   1.000000
    9       -8.055192   1.000000
   10       -0.390829   1.000000
   11        4.811669   1.000000
   12        5.493877   1.000000
   13        5.761660   1.000000
   14        6.572988   1.000000
   15        6.795961   1.000000
   16        7.166405   1.000000
   17        9.018807   1.000000
   18        9.502957   1.000000
   19       10.755013   1.000000
   20       11.332423   0.000000
   21       11.458255   0.000000
   22       11.571671   0.000000
   23       11.747062   0.000000
   24       11.759830   0.000000

 -0.3076923E+00  0.1538462E+00 -0.7372467E-17  0.1092399E-01
    1      -32.758091   1.000000
    2      -11.838050   1.000000
    3      -11.814288   1.000000
    4      -11.768004   1.000000
    5      -11.757138   1.000000
    6      -11.755718   1.000000
    7       -8.384561   1.000000
    8       -8.155418   1.000000
    9       -8.051870   1.000000
   10       -0.520369   1.000000
   11        4.815281   1.000000
   12        5.401406   1.000000
   13        5.947888   1.000000
   14        6.532641   1.000000
   15        6.946506   1.000000
   16        7.433336   1.000000
   17        8.900483   1.000000
   18        9.505674   1.000000
   19       10.722506   1.000000
   20       11.297418   0.022274
   21       11.392690   0.000000
   22       11.599653   0.000000
   23       11.734128   0.000000
   24       11.779960   0.000000

 -0.2307692E+00  0.1538462E+00  0.1386963E-16  0.1092399E-01
    1      -32.759597   1.000000
    2      -11.833946   1.000000
    3      -11.808138   1.000000
    4      -11.766040   1.000000
    5      -11.757519   1.000000
    6      -11.756985   1.000000
    7       -8.336645   1.000000
    8       -8.170698   1.000000
    9       -8.060524   1.000000
   10       -0.745777   1.000000
   11        4.924828   1.000000
   12        5.394832   1.000000
   13        6.143838   1.000000
   14        6.523179   1.000000
   15        7.038912   1.000000
   16        7.815664   1.000000
   17        8.787348   1.000000
   18        9.564441   1.000000
   19       10.685217   1.000000
   20       11.275958   0.847545
   21       11.312893   0.000014
   22       11.612506   0.000000
   23       11.694184   0.000000
   24       11.827510   0.000000

 -0.1538462E+00  0.1538462E+00 -0.5263538E-17  0.5461994E-02
    1      -32.761260   1.000000
    2      -11.825747   1.000000
    3      -11.803716   1.000000
    4      -11.764523   1.000000
    5      -11.758133   1.000000
    6      -11.758027   1.000000
    7       -8.288495   1.000000
    8       -8.169725   1.000000
    9       -8.079292   1.000000
   10       -1.019716   1.000000
   11        5.164626   1.000000
   12        5.481867   1.000000
   13        6.298876   1.000000
   14        6.504953   1.000000
   15        7.034421   1.000000
   16        8.167217   1.000000
   17        8.876902   1.000000
   18        9.675061   1.000000
   19       10.642958   1.000000
   20       11.238644   1.000000
   21       11.260655   0.999289
   22       11.609088   0.000000
   23       11.636838   0.000000
   24       11.859270   0.000000

  0.2307692E+00  0.2307692E+00  0.8000649E-17  0.2730997E-02
    1      -32.760783   1.000000
    2      -11.824987   1.000000
    3      -11.790165   1.000000
    4      -11.766797   1.000000
    5      -11.756659   1.000000
    6      -11.756659   1.000000
    7       -8.244919   1.000000
    8       -8.163919   1.000000
    9       -8.163919   1.000000
   10       -1.032121   1.000000
   11        4.738412   1.000000
   12        6.297483   1.000000
   13        6.297483   1.000000
   14        6.556298   1.000000
   15        6.617593   1.000000
   16        8.371667   1.000000
   17        9.337565   1.000000
   18        9.337565   1.000000
   19       10.547391   1.000000
   20       11.295087   0.046556
   21       11.295087   0.046555
   22       11.469192   0.000000
   23       11.696885   0.000000
   24       11.974338   0.000000

  0.3076923E+00  0.2307692E+00  0.1139322E-16  0.1092399E-01
    1      -32.759454   1.000000
    2      -11.824751   1.000000
    3      -11.791880   1.000000
    4      -11.768520   1.000000
    5      -11.755764   1.000000
    6      -11.755252   1.000000
    7       -8.291998   1.000000
    8       -8.161354   1.000000
    9       -8.155071   1.000000
   10       -0.878840   1.000000
   11        4.685033   1.000000
   12        6.100229   1.000000
   13        6.227811   1.000000
   14        6.583864   1.000000
   15        6.666787   1.000000
   16        8.149650   1.000000
   17        9.193039   1.000000
   18        9.355159   1.000000
   19       10.652527   1.000000
   20       11.278434   0.750433
   21       11.312473   0.000018
   22       11.523715   0.000000
   23       11.719216   0.000000
   24       11.980544   0.000000

  0.3846154E+00  0.2307692E+00  0.2561306E-16  0.1092399E-01
    1      -32.758059   1.000000
    2      -11.822338   1.000000
    3      -11.798886   1.000000
    4      -11.769766   1.000000
    5      -11.755673   1.000000
    6      -11.753863   1.000000
    7       -8.343934   1.000000
    8       -8.146872   1.000000
    9       -8.146680   1.000000
   10       -0.726515   1.000000
   11        4.782154   1.000000
   12        5.841855   1.000000
   13        6.104244   1.000000
   14        6.588543   1.000000
   15        6.761011   1.000000
   16        7.830468   1.000000
   17        8.968841   1.000000
   18        9.417853   1.000000
   19       10.767819   1.000000
   20       11.290396   0.154846
   21       11.340161   0.000000
   22       11.571850   0.000000
   23       11.714101   0.000000
   24       11.933510   0.000000

  0.4615385E+00  0.2307692E+00 -0.5973068E-17  0.1092399E-01
    1      -32.756921   1.000000
    2      -11.818459   1.000000
    3      -11.809267   1.000000
    4      -11.770172   1.000000
    5      -11.756403   1.000000
    6      -11.753024   1.000000
    7       -8.379015   1.000000
    8       -8.152198   1.000000
    9       -8.123320   1.000000
   10       -0.603951   1.000000
   11        4.979352   1.000000
   12        5.669536   1.000000
   13        5.927848   1.000000
   14        6.626955   1.000000
   15        6.787275   1.000000
   16        7.502483   1.000000
   17        8.803868   1.000000
   18        9.454914   1.000000
   19       10.816694   1.000000
   20       11.329419   0.000000
   21       11.384564   0.000000
   22       11.619964   0.000000
   23       11.688140   0.000000
   24       11.878313   0.000000

 -0.4615385E+00  0.2307692E+00 -0.1862664E-16  0.1092399E-01
    1      -32.756300   1.000000
    2      -11.820606   1.000000
    3      -11.814315   1.000000
    4      -11.769387   1.000000
    5      -11.757653   1.000000
    6      -11.752952   1.000000
    7       -8.391073   1.000000
    8       -8.170490   1.000000
    9       -8.096562   1.000000
   10       -0.520019   1.000000
   11        5.149135   1.000000
   12        5.608043   1.000000
   13        5.723836   1.000000
   14        6.724305   1.000000
   15        6.726258   1.000000
   16        7.313095   1.000000
   17        8.691199   1.000000
   18        9.440349   1.000000
   19       10.851758   1.000000
   20       11.330090   0.000000
   21       11.442431   0.000000
   22       11.639606   0.000000
   23       11.691332   0.000000
   24       11.833959   0.000000

 -0.3846154E+00  0.2307692E+00 -0.2514012E-16  0.1092399E-01
    1      -32.756334   1.000000
    2      -11.830413   1.000000
    3      -11.810925   1.000000
    4      -11.767512   1.000000
    5      -11.758906   1.000000
    6      -11.753561   1.000000
    7       -8.381759   1.000000
    8       -8.194942   1.000000
    9       -8.072395   1.000000
   10       -0.478414   1.000000
   11        5.129283   1.000000
   12        5.537151   1.000000
   13        5.673053   1.000000
   14        6.636345   1.000000
   15        6.857851   1.000000
   16        7.363590   1.000000
   17        8.585149   1.000000
   18        9.402609   1.000000
   19       10.872701   1.000000
   20       11.294241   0.059428
   21       11.498329   0.000000
   22       11.576061   0.000000