 vasp.6.0.8 29Jun18 (build Jun 13 2019 12:54:44) complex

 executed on      IFC18_CrayMPICH date 2021.12.05  14:21:50
 running   64 mpi-ranks, with    1 threads/rank
 distrk:  each k-point on   16 cores,    4 groups
 distr:  one band on NCORES_PER_BAND=   4 cores,    4 groups


--------------------------------------------------------------------------------------------------------


 INCAR:
 POTCAR:    PAW_PBE U 06Sep2000
 POTCAR:    PAW_PBE Bi_d 06Sep2000
 POTCAR:    PAW_PBE Pt 04Feb2005
 POTCAR:    PAW_PBE U 06Sep2000
   VRHFIN =U:  [Xe,5d,4f]
   LEXCH  = PE
   EATOM  =  1405.3058 eV,  103.2871 Ry

   TITEL  = PAW_PBE U 06Sep2000
   LULTRA =        F    use ultrasoft PP ?
   IUNSCR =        1    unscreen: 0-lin 1-nonlin 2-no
   RPACOR =    2.200    partial core radius
   POMASS =  238.029; ZVAL   =   14.000    mass and valenz
   RCORE  =    2.800    outmost cutoff radius
   RWIGS  =    3.000; RWIGS  =    1.588    wigner-seitz radius (au A)
   ENMAX  =  252.502; ENMIN  =  189.376 eV
   RCLOC  =    1.811    cutoff for local pot
   LCOR   =        T    correct aug charges
   LPAW   =        T    paw PP
   EAUG   =  526.410
   DEXC   =    0.000
   RMAX   =    2.863    core radius for proj-oper
   RAUG   =    1.300    factor for augmentation sphere
   RDEP   =    2.950    radius for radial grids
   RDEPT  =    2.270    core radius for aug-charge

   Atomic configuration
   18 entries
     n  l   j            E        occ.
     1  0  0.50   -116038.1941   2.0000
     2  0  0.50    -21694.8835   2.0000
     2  1  1.50    -18009.1553   6.0000
     3  0  0.50     -5481.2929   2.0000
     3  1  1.50     -4458.9283   6.0000
     3  2  2.50     -3575.9978  10.0000
     4  0  0.50     -1400.5351   2.0000
     4  1  1.50     -1066.7807   6.0000
     4  2  2.50      -732.1336  10.0000
     4  3  3.50      -377.4393  14.0000
     5  0  0.50      -314.7366   2.0000
     5  1  1.50      -211.6057   6.0000
     5  2  2.50      -103.2045  10.0000
     6  0  0.50       -50.6026   2.0000
     7  0  0.50        -4.5896   2.0000
     6  1  1.50       -25.2884   6.0000
     6  2  1.50        -3.1039   2.0000
     5  3  2.50        -6.3670   2.0000
   Description
     l       E           TYP  RCUT    TYP  RCUT
     0    -50.6026097     23  2.600
     0     -4.5896371     23  2.600
     1    -25.2883770     23  2.500
     1     27.2116520     23  2.500
     2     -3.1038686     23  2.500
     2      0.8290654     23  2.500
     3     -6.3670133     23  2.800
     3     -7.7275959     23  2.800
  local pseudopotential read in
  partial core-charges read in
  partial kinetic energy density read in
  atomic valenz-charges read in
  non local Contribution for L=           0  read in
    real space projection operators read in
  non local Contribution for L=           0  read in
    real space projection operators read in
  non local Contribution for L=           1  read in
    real space projection operators read in
  non local Contribution for L=           1  read in
    real space projection operators read in
  non local Contribution for L=           2  read in
    real space projection operators read in
  non local Contribution for L=           2  read in
    real space projection operators read in
  non local Contribution for L=           3  read in
    real space projection operators read in
  non local Contribution for L=           3  read in
    real space projection operators read in
    PAW grid and wavefunctions read in

   number of l-projection  operators is LMAX  =           8
   number of lm-projection operators is LMMAX =          32

 POTCAR:    PAW_PBE Bi_d 06Sep2000
   VRHFIN =Bi:
   LEXCH  = PE
   EATOM  =  1959.2045 eV,  143.9975 Ry

   TITEL  = PAW_PBE Bi_d 06Sep2000
   LULTRA =        F    use ultrasoft PP ?
   IUNSCR =        1    unscreen: 0-lin 1-nonlin 2-no
   RPACOR =    2.200    partial core radius
   POMASS =  208.980; ZVAL   =   15.000    mass and valenz
   RCORE  =    2.500    outmost cutoff radius
   RWIGS  =    3.090; RWIGS  =    1.635    wigner-seitz radius (au A)
   ENMAX  =  242.839; ENMIN  =  182.129 eV
   ICORE  =        3    local potential
   LCOR   =        T    correct aug charges
   LPAW   =        T    paw PP
   EAUG   =  442.899
   DEXC   =    0.000
   RMAX   =    2.551    core radius for proj-oper
   RAUG   =    1.300    factor for augmentation sphere
   RDEP   =    2.650    radius for radial grids
   RDEPT  =    2.039    core radius for aug-charge

   Atomic configuration
   16 entries
     n  l   j            E        occ.
     1  0  0.50    -90639.6581   2.0000
     2  0  0.50    -16282.4666   2.0000
     2  1  1.50    -13922.8286   6.0000
     3  0  0.50     -3930.4763   2.0000
     3  1  1.50     -3256.7013   6.0000
     3  2  2.50     -2581.6168  10.0000
     4  0  0.50      -902.2614   2.0000
     4  1  1.50      -681.5915   6.0000
     4  2  2.50      -429.8249  10.0000
     4  3  3.50      -152.6004  14.0000
     5  0  0.50      -157.7156   2.0000
     5  1  1.50       -95.8054   6.0000
     5  2  2.50       -27.0806  10.0000
     6  0  0.50       -14.4732   2.0000
     6  1  1.50        -4.5702   3.0000
     5  3  2.50        -2.7212   0.0000
   Description
     l       E           TYP  RCUT    TYP  RCUT
     2    -27.0805982     23  2.500
     2     -1.3605826     23  2.500
     0    -14.4732271     23  2.500
     0      6.8029130     23  2.500
     1     -4.5701651     23  2.500
     1     13.6058260     23  2.500
     3     -1.3605826      7  2.500
  local pseudopotential read in
  partial core-charges read in
  partial kinetic energy density read in
  atomic valenz-charges read in
  non local Contribution for L=           2  read in
    real space projection operators read in
  non local Contribution for L=           2  read in
    real space projection operators read in
  non local Contribution for L=           0  read in
    real space projection operators read in
  non local Contribution for L=           0  read in
    real space projection operators read in
  non local Contribution for L=           1  read in
    real space projection operators read in
  non local Contribution for L=           1  read in
    real space projection operators read in
    PAW grid and wavefunctions read in

   number of l-projection  operators is LMAX  =           6
   number of lm-projection operators is LMMAX =          18

 POTCAR:    PAW_PBE Pt 04Feb2005
   VRHFIN =Pt: s1d9
   LEXCH  = PE
   EATOM  =   729.1176 eV,   53.5886 Ry

   TITEL  = PAW_PBE Pt 04Feb2005
   LULTRA =        F    use ultrasoft PP ?
   IUNSCR =        1    unscreen: 0-lin 1-nonlin 2-no
   RPACOR =    2.330    partial core radius
   POMASS =  195.080; ZVAL   =   10.000    mass and valenz
   RCORE  =    2.600    outmost cutoff radius
   RWIGS  =    2.750; RWIGS  =    1.455    wigner-seitz radius (au A)
   ENMAX  =  230.283; ENMIN  =  172.712 eV
   ICORE  =        3    local potential
   LCOR   =        T    correct aug charges
   LPAW   =        T    paw PP
   EAUG   =  358.966
   DEXC   =    0.000
   RMAX   =    2.658    core radius for proj-oper
   RAUG   =    1.300    factor for augmentation sphere
   RDEP   =    2.761    radius for radial grids
   RDEPT  =    2.203    core radius for aug-charge

   Atomic configuration
   16 entries
     n  l   j            E        occ.
     1  0  0.50    -78401.1885   2.0000
     2  0  0.50    -13770.7750   2.0000
     2  1  1.50    -11931.0468   6.0000
     3  0  0.50     -3234.7234   2.0000
     3  1  1.50     -2699.2216   6.0000
     3  2  2.50     -2119.5714  10.0000
     4  0  0.50      -695.1528   2.0000
     4  1  1.50      -519.6034   6.0000
     4  2  2.50      -306.6786  10.0000
     4  3  3.50       -70.1041  14.0000
     5  0  0.50      -101.7747   2.0000
     5  1  1.50       -55.9873   6.0000
     5  2  2.50        -6.1423   9.0000
     6  0  0.50        -5.6573   1.0000
     6  1  1.50        -6.8029   0.0000
     5  3  2.50        -1.3606   0.0000
   Description
     l       E           TYP  RCUT    TYP  RCUT
     2     -6.1423404     23  2.500
     2     -7.5029230     23  2.500
     0     -5.6573207     23  2.500
     0      0.7416693     23  2.500
     1     -2.7211652     23  2.600
     1     20.4087390     23  2.600
     3     -1.3605826     23  2.500
  local pseudopotential read in
  partial core-charges read in
  partial kinetic energy density read in
  atomic valenz-charges read in
  non local Contribution for L=           2  read in
    real space projection operators read in
  non local Contribution for L=           2  read in
    real space projection operators read in
  non local Contribution for L=           0  read in
    real space projection operators read in
  non local Contribution for L=           0  read in
    real space projection operators read in
  non local Contribution for L=           1  read in
    real space projection operators read in
  non local Contribution for L=           1  read in
    real space projection operators read in
    PAW grid and wavefunctions read in

   number of l-projection  operators is LMAX  =           6
   number of lm-projection operators is LMMAX =          18

 WARNING: PSMAXN for non-local potential too small
          PSMAXN should be >   13.5545592237991       NTYP=           1

 -----------------------------------------------------------------------------
|                                                                             |
|  ADVICE TO THIS USER RUNNING 'VASP/VAMP'   (HEAR YOUR MASTER'S VOICE ...):  |
|                                                                             |
|      You enforced a specific xc-type in the INCAR file,                     |
|      a different type was found on the POTCAR file                          |
|          I HOPE YOU KNOW, WHAT YOU ARE  DOING                               |
|                                                                             |
 -----------------------------------------------------------------------------

  PAW_PBE U 06Sep2000                   :
 energy of atom  1       EATOM=-1405.3058
 kinetic energy error for atom=    0.0006 (will be added to EATOM!!)
  PAW_PBE Bi_d 06Sep2000                :
 energy of atom  2       EATOM=-1959.2045
 kinetic energy error for atom=    0.0012 (will be added to EATOM!!)
  PAW_PBE Pt 04Feb2005                  :
 energy of atom  3       EATOM= -729.1176
 kinetic energy error for atom=    0.0010 (will be added to EATOM!!)


 POSCAR: U1 Bi1 Pt1
  positions in direct lattice
  No initial velocities read in
 exchange correlation table for  LEXCH =       14
   RHO(1)=    0.500       N(1)  =     2000
   RHO(2)=  100.500       N(2)  =     4000



--------------------------------------------------------------------------------------------------------


 ion  position               nearest neighbor table
   1  0.250  0.250  0.250-   3 2.79   3 2.79   3 2.79   3 2.79   2 3.23   2 3.23   2 3.23   2 3.23
                             2 3.23   2 3.23
   2  0.750  0.750  0.750-   3 2.79   3 2.79   3 2.79   3 2.79   1 3.23   1 3.23   1 3.23   1 3.23
                             1 3.23   1 3.23
   3  0.000  0.000  0.000-   2 2.79   2 2.79   2 2.79   1 2.79   2 2.79   1 2.79   1 2.79   1 2.79


  LATTYP: Found a face centered cubic cell.
 ALAT       =     6.4534011320

  Lattice vectors:

 A1 = (   0.0000000000,   3.2267005660,   3.2267005660)
 A2 = (   3.2267005660,   0.0000000000,   3.2267005660)
 A3 = (   3.2267005660,   3.2267005660,   0.0000000000)


Analysis of symmetry for initial positions (statically):
=====================================================================
 Subroutine PRICEL returns:
 Original cell was already a primitive cell.


 Routine SETGRP: Setting up the symmetry group for a
 face centered cubic supercell.


 Subroutine GETGRP returns: Found 24 space group operations
 (whereof 24 operations were pure point group operations)
 out of a pool of 48 trial point group operations.


The static configuration has the point symmetry T_d .


Analysis of symmetry for dynamics (positions and initial velocities):
=====================================================================
 Subroutine PRICEL returns:
 Original cell was already a primitive cell.


 Routine SETGRP: Setting up the symmetry group for a
 face centered cubic supercell.


 Subroutine GETGRP returns: Found 24 space group operations
 (whereof 24 operations were pure point group operations)
 out of a pool of 48 trial point group operations.


The dynamic configuration has the point symmetry T_d .


 Subroutine INISYM returns: Found 24 space group operations
 (whereof 24 operations are pure point group operations),
 and found     1 'primitive' translations


----------------------------------------------------------------------------------------

                                     Primitive cell

  volume of cell :      67.1902

  direct lattice vectors                    reciprocal lattice vectors
     0.000000000  3.226700566  3.226700566    -0.154957050  0.154957050  0.154957050
     3.226700566  0.000000000  3.226700566     0.154957050 -0.154957050  0.154957050
     3.226700566  3.226700566  0.000000000     0.154957050  0.154957050 -0.154957050

  length of vectors
     4.563243702  4.563243702  4.563243702     0.268393483  0.268393483  0.268393483

  position of ions in fractional coordinates (direct lattice)
     0.250000000  0.250000000  0.250000000
     0.750000000  0.750000000  0.750000000
     0.000000000  0.000000000  0.000000000

  ion indices of the primitive-cell ions
   primitive index   ion index
                 1           1
                 2           2
                 3           3

----------------------------------------------------------------------------------------



 KPOINTS: KPOINTS

Automatic generation of k-mesh.
Space group operators:
 irot       det(A)        alpha          n_x          n_y          n_z        tau_x        tau_y        tau_z
    1     1.000000     0.000000     1.000000     0.000000     0.000000     0.000000     0.000000     0.000000
    2     1.000000   120.000000    -0.577350    -0.577350    -0.577350     0.000000     0.000000     0.000000
    3     1.000000   120.000000     0.577350     0.577350     0.577350     0.000000     0.000000     0.000000
    4    -1.000000    90.000000     0.000000     0.000000    -1.000000     0.000000     0.000000     0.000000
    5    -1.000000   180.000000    -0.000000     0.707107     0.707107     0.000000     0.000000     0.000000
    6    -1.000000    90.000000     0.000000     1.000000     0.000000     0.000000     0.000000     0.000000
    7     1.000000   180.000000     0.000000     0.000000     1.000000     0.000000     0.000000     0.000000
    8     1.000000   120.000000    -0.577350     0.577350     0.577350     0.000000     0.000000     0.000000
    9     1.000000   120.000000    -0.577350     0.577350    -0.577350     0.000000     0.000000     0.000000
   10    -1.000000    90.000000     0.000000     0.000000     1.000000     0.000000     0.000000     0.000000
   11    -1.000000    90.000000    -1.000000    -0.000000     0.000000     0.000000     0.000000     0.000000
   12    -1.000000   180.000000     0.707107     0.000000     0.707107     0.000000     0.000000     0.000000
   13     1.000000   120.000000     0.577350    -0.577350     0.577350     0.000000     0.000000     0.000000
   14     1.000000   120.000000    -0.577350    -0.577350     0.577350     0.000000     0.000000     0.000000
   15     1.000000   180.000000     1.000000     0.000000     0.000000     0.000000     0.000000     0.000000
   16    -1.000000    90.000000     0.000000    -1.000000     0.000000     0.000000     0.000000     0.000000
   17    -1.000000   180.000000     0.707107     0.707107     0.000000     0.000000     0.000000     0.000000
   18    -1.000000    90.000000     1.000000    -0.000000    -0.000000     0.000000     0.000000     0.000000
   19     1.000000   120.000000     0.577350    -0.577350    -0.577350     0.000000     0.000000     0.000000
   20     1.000000   180.000000    -0.000000    -1.000000    -0.000000     0.000000     0.000000     0.000000
   21     1.000000   120.000000     0.577350     0.577350    -0.577350     0.000000     0.000000     0.000000
   22    -1.000000   180.000000     0.000000    -0.707107     0.707107     0.000000     0.000000     0.000000
   23    -1.000000   180.000000     0.707107    -0.707107     0.000000     0.000000     0.000000     0.000000
   24    -1.000000   180.000000     0.707107     0.000000    -0.707107     0.000000     0.000000     0.000000

 Subroutine IBZKPT returns following result:
 ===========================================

 Found     84 irreducible k-points:

 Following reciprocal coordinates:
            Coordinates               Weight
  0.000000  0.000000  0.000000      1.000000
  0.076923  0.000000  0.000000      8.000000
  0.153846 -0.000000  0.000000      8.000000
  0.230769  0.000000 -0.000000      8.000000
  0.307692 -0.000000  0.000000      8.000000
  0.384615  0.000000 -0.000000      8.000000
  0.461538 -0.000000  0.000000      8.000000
  0.076923  0.076923  0.000000      6.000000
  0.153846  0.076923  0.000000     24.000000
  0.230769  0.076923 -0.000000     24.000000
  0.307692  0.076923 -0.000000     24.000000
  0.384615  0.076923  0.000000     24.000000
  0.461538  0.076923 -0.000000     24.000000
 -0.461538  0.076923 -0.000000     24.000000
 -0.384615  0.076923  0.000000     24.000000
 -0.307692  0.076923  0.000000     24.000000
 -0.230769  0.076923  0.000000     24.000000
 -0.153846  0.076923  0.000000     24.000000
 -0.076923  0.076923 -0.000000     12.000000
  0.153846  0.153846  0.000000      6.000000
  0.230769  0.153846  0.000000     24.000000
  0.307692  0.153846  0.000000     24.000000
  0.384615  0.153846 -0.000000     24.000000
  0.461538  0.153846  0.000000     24.000000
 -0.461538  0.153846 -0.000000     24.000000
 -0.384615  0.153846 -0.000000     24.000000
 -0.307692  0.153846 -0.000000     24.000000
 -0.230769  0.153846  0.000000     24.000000
 -0.153846  0.153846 -0.000000     12.000000
  0.230769  0.230769  0.000000      6.000000
  0.307692  0.230769  0.000000     24.000000
  0.384615  0.230769  0.000000     24.000000
  0.461538  0.230769 -0.000000     24.000000
 -0.461538  0.230769 -0.000000     24.000000
 -0.384615  0.230769 -0.000000     24.000000
 -0.307692  0.230769 -0.000000     24.000000
 -0.230769  0.230769  0.000000     12.000000
  0.307692  0.307692  0.000000      6.000000
  0.384615  0.307692  0.000000     24.000000
  0.461538  0.307692  0.000000     24.000000
 -0.461538  0.307692 -0.000000     24.000000
 -0.384615  0.307692 -0.000000     24.000000
 -0.307692  0.307692 -0.000000     12.000000
  0.384615  0.384615  0.000000      6.000000
  0.461538  0.384615  0.000000     24.000000
 -0.461538  0.384615  0.000000     24.000000
 -0.384615  0.384615  0.000000     12.000000
  0.461538  0.461538  0.000000      6.000000
 -0.461538  0.461538 -0.000000     12.000000
  0.230769  0.153846  0.076923     24.000000
  0.307692  0.153846  0.076923     48.000000
  0.384615  0.153846  0.076923     48.000000
  0.461538  0.153846  0.076923     48.000000
 -0.461538  0.153846  0.076923     48.000000
  0.307692  0.230769  0.076923     24.000000
  0.384615  0.230769  0.076923     48.000000
  0.461538  0.230769  0.076923     48.000000
 -0.461538  0.230769  0.076923     48.000000
 -0.384615  0.230769  0.076923     48.000000
 -0.307692  0.230769  0.076923     48.000000
 -0.230769  0.230769  0.076923     48.000000
 -0.153846  0.230769  0.076923     24.000000
  0.384615  0.307692  0.076923     24.000000
  0.461538  0.307692  0.076923     48.000000
 -0.461538  0.307692  0.076923     48.000000
 -0.384615  0.307692  0.076923     48.000000
 -0.307692  0.307692  0.076923     48.000000
 -0.230769  0.307692  0.076923     24.000000
  0.461538  0.384615  0.076923     24.000000
 -0.461538  0.384615  0.076923     48.000000
 -0.384615  0.384615  0.076923     48.000000
 -0.307692  0.384615  0.076923     24.000000
 -0.461538  0.461538  0.076923     24.000000
 -0.384615  0.461538  0.076923     24.000000
  0.461538  0.307692  0.153846     24.000000
 -0.461538  0.307692  0.153846     48.000000
 -0.384615  0.307692  0.153846     48.000000
 -0.461538  0.384615  0.153846     24.000000
 -0.384615  0.384615  0.153846     48.000000
 -0.307692  0.384615  0.153846     48.000000
 -0.230769  0.384615  0.153846     24.000000
 -0.384615  0.461538  0.153846     24.000000
 -0.307692  0.461538  0.153846     24.000000
 -0.307692  0.461538  0.230769     24.000000

 Following cartesian coordinates:
            Coordinates               Weight
  0.000000  0.000000  0.000000      1.000000
 -0.011593  0.011593  0.011593      8.000000
 -0.023186  0.023186  0.023186      8.000000
 -0.034779  0.034779  0.034779      8.000000
 -0.046372  0.046372  0.046372      8.000000
 -0.057965  0.057965  0.057965      8.000000
 -0.069558  0.069558  0.069558      8.000000
  0.000000  0.000000  0.023186      6.000000
 -0.011593  0.011593  0.034779     24.000000
 -0.023186  0.023186  0.046372     24.000000
 -0.034779  0.034779  0.057965     24.000000
 -0.046372  0.046372  0.069558     24.000000
 -0.057965  0.057965  0.081151     24.000000
  0.081151 -0.081151 -0.057965     24.000000
  0.069558 -0.069558 -0.046372     24.000000
  0.057965 -0.057965 -0.034779     24.000000
  0.046372 -0.046372 -0.023186     24.000000
  0.034779 -0.034779 -0.011593     24.000000
  0.023186 -0.023186  0.000000     12.000000
  0.000000  0.000000  0.046372      6.000000
 -0.011593  0.011593  0.057965     24.000000
 -0.023186  0.023186  0.069558     24.000000
 -0.034779  0.034779  0.081151     24.000000
 -0.046372  0.046372  0.092744     24.000000
  0.092744 -0.092744 -0.046372     24.000000
  0.081151 -0.081151 -0.034779     24.000000
  0.069558 -0.069558 -0.023186     24.000000
  0.057965 -0.057965 -0.011593     24.000000
  0.046372 -0.046372  0.000000     12.000000
  0.000000 -0.000000  0.069558      6.000000
 -0.011593  0.011593  0.081151     24.000000
 -0.023186  0.023186  0.092744     24.000000
 -0.034779  0.034779  0.104337     24.000000
  0.104337 -0.104337 -0.034779     24.000000
  0.092744 -0.092744 -0.023186     24.000000
  0.081151 -0.081151 -0.011593     24.000000
  0.069558 -0.069558  0.000000     12.000000
  0.000000  0.000000  0.092744      6.000000
 -0.011593  0.011593  0.104337     24.000000
 -0.023186  0.023186  0.115930     24.000000
  0.115930 -0.115930 -0.023186     24.000000
  0.104337 -0.104337 -0.011593     24.000000
  0.092744 -0.092744  0.000000     12.000000
 -0.000000  0.000000  0.115930      6.000000
 -0.011593  0.011593  0.127523     24.000000
  0.127523 -0.127523 -0.011593     24.000000
  0.115930 -0.115930 -0.000000     12.000000
  0.000000  0.000000  0.139116      6.000000
  0.139116 -0.139116  0.000000     12.000000
  0.000000  0.023186  0.046372     24.000000
 -0.011593  0.034779  0.057965     48.000000
 -0.023186  0.046372  0.069558     48.000000
 -0.034779  0.057965  0.081151     48.000000
  0.104337 -0.081151 -0.057965     48.000000
  0.000000  0.023186  0.069558     24.000000
 -0.011593  0.034779  0.081151     48.000000
 -0.023186  0.046372  0.092744     48.000000
  0.115930 -0.092744 -0.046372     48.000000
  0.104337 -0.081151 -0.034779     48.000000
  0.092744 -0.069558 -0.023186     48.000000
  0.081151 -0.057965 -0.011593     48.000000
  0.069558 -0.046372  0.000000     24.000000
  0.000000  0.023186  0.092744     24.000000
 -0.011593  0.034779  0.104337     48.000000
  0.127523 -0.104337 -0.034779     48.000000
  0.115930 -0.092744 -0.023186     48.000000
  0.104337 -0.081151 -0.011593     48.000000
  0.092744 -0.069558 -0.000000     24.000000
  0.000000  0.023186  0.115930     24.000000
  0.139116 -0.115930 -0.023186     48.000000
  0.127523 -0.104337 -0.011593     48.000000
  0.115930 -0.092744 -0.000000     24.000000
  0.150709 -0.127523 -0.011593     24.000000
  0.139116 -0.115930 -0.000000     24.000000
 -0.000000  0.046372  0.092744     24.000000
  0.139116 -0.092744 -0.046372     48.000000
  0.127523 -0.081151 -0.034779     48.000000
  0.150709 -0.104337 -0.034779     24.000000
  0.139116 -0.092744 -0.023186     48.000000
  0.127523 -0.081151 -0.011593     48.000000
  0.115930 -0.069558 -0.000000     24.000000
  0.150709 -0.104337 -0.011593     24.000000
  0.139116 -0.092744  0.000000     24.000000
  0.150709 -0.081151 -0.011593     24.000000



--------------------------------------------------------------------------------------------------------




 Dimension of arrays:
   k-points           NKPTS =     84   k-points in BZ     NKDIM =     84   number of bands    NBANDS=     24
   number of dos      NEDOS =    301   number of ions     NIONS =      3
   non local maximal  LDIM  =      8   non local SUM 2l+1 LMDIM =     32
   total plane-waves  NPLWV =  64000
   max r-space proj   IRMAX =      1   max aug-charges    IRDMAX= 464913
   dimension x,y,z NGX =    40 NGY =   40 NGZ =   40
   dimension x,y,z NGXF=    80 NGYF=   80 NGZF=   80
   support grid    NGXF=   160 NGYF=  160 NGZF=  160
   ions per type =               1   1   1
   NGX,Y,Z   is equivalent  to a cutoff of  14.57, 14.57, 14.57 a.u.
   NGXF,Y,Z  is equivalent  to a cutoff of  29.15, 29.15, 29.15 a.u.

 SYSTEM =  unknown system
 POSCAR =  U1 Bi1 Pt1

 Startparameter for this run:
   NWRITE =      2    write-flag & timer
   PREC   = acc       normal or accurate (medium, high low for compatibility)
   ISTART =      0    job   : 0-new  1-cont  2-samecut
   ICHARG =      2    charge: 1-file 2-atom 10-const
   ISPIN  =      1    spin polarized calculation?
   LNONCOLLINEAR =      F non collinear calculations
   LSORBIT =      F    spin-orbit coupling
   INIWAV =      1    electr: 0-lowe 1-rand  2-diag
   LASPH  =      F    aspherical Exc in radial PAW
   METAGGA=      F    non-selfconsistent MetaGGA calc.

 Electronic Relaxation 1
   ENCUT  =  700.0 eV  51.45 Ry    7.17 a.u.   9.84  9.84  9.84*2*pi/ulx,y,z
   ENINI  =  700.0     initial cutoff
   ENAUG  =  526.4 eV  augmentation charge cutoff
   NELM   =     60;   NELMIN=  5; NELMDL= -5     # of ELM steps
   EDIFF  = 0.1E-06   stopping-criterion for ELM
   LREAL  =      F    real-space projection
   NLSPLINE    = F    spline interpolate recip. space projectors
   LCOMPAT=      F    compatible to vasp.4.4
   GGA_COMPAT  = T    GGA compatible to vasp.4.4-vasp.4.6
   LMAXPAW     = -100 max onsite density
   LMAXMIX     =    2 max onsite mixed and CHGCAR
   VOSKOWN=      0    Vosko Wilk Nusair interpolation
   ROPT   =    0.00000   0.00000   0.00000
 Ionic relaxation
   EDIFFG = 0.1E-05   stopping-criterion for IOM
   NSW    =      0    number of steps for IOM
   NBLOCK =      1;   KBLOCK =      1    inner block; outer block
   IBRION =     -1    ionic relax: 0-MD 1-quasi-New 2-CG
   NFREE  =      0    steps in history (QN), initial steepest desc. (CG)
   ISIF   =      3    stress and relaxation
   IWAVPR =     10    prediction:  0-non 1-charg 2-wave 3-comb
   ISYM   =      2    0-nonsym 1-usesym 2-fastsym
   LCORR  =      T    Harris-Foulkes like correction to forces

   POTIM  = 0.5000    time-step for ionic-motion
   TEIN   =    0.0    initial temperature
   TEBEG  =    0.0;   TEEND  =   0.0 temperature during run
   SMASS  =  -3.00    Nose mass-parameter (am)
   estimated Nose-frequenzy (Omega)   =  0.10E-29 period in steps = 0.13E+47 mass=  -0.476E-27a.u.
   SCALEE = 1.0000    scale energy and forces
   NPACO  =    256;   APACO  = 16.0  distance and # of slots for P.C.
   PSTRESS=    0.0 pullay stress

  Mass of Ions in am
   POMASS = 238.03208.98195.08
  Ionic Valenz
   ZVAL   =  14.00 15.00 10.00
  Atomic Wigner-Seitz radii
   RWIGS  =  -1.00 -1.00 -1.00
  virtual crystal weights
   VCA    =   1.00  1.00  1.00
   NELECT =      39.0000    total number of electrons
   NUPDOWN=      -1.0000    fix difference up-down

 DOS related values:
   EMIN   =  10.00;   EMAX   =-10.00  energy-range for DOS
   EFERMI =   0.00
   ISMEAR =     0;   SIGMA  =   0.01  broadening in eV -4-tet -1-fermi 0-gaus

 Electronic relaxation 2 (details)
   IALGO  =     38    algorithm
   LDIAG  =      T    sub-space diagonalisation (order eigenvalues)
   LSUBROT=      F    optimize rotation matrix (better conditioning)
   TURBO    =      0    0=normal 1=particle mesh
   IRESTART =      0    0=no restart 2=restart with 2 vectors
   NREBOOT  =      0    no. of reboots
   NMIN     =      0    reboot dimension
   EREF     =   0.00    reference energy to select bands
   IMIX   =      4    mixing-type and parameters
     AMIX     =   0.40;   BMIX     =  1.00
     AMIX_MAG =   1.60;   BMIX_MAG =  1.00
     AMIN     =   0.10
     WC   =   100.;   INIMIX=   1;  MIXPRE=   1;  MAXMIX= -45

 Intra band minimization:
   WEIMIN = 0.0000     energy-eigenvalue tresh-hold
   EBREAK =  0.10E-08  absolut break condition
   DEPER  =   0.30     relativ break condition

   TIME   =   0.40     timestep for ELM

  volume/ion in A,a.u.               =      22.40       151.14
  Fermi-wavevector in a.u.,A,eV,Ry     =   1.365613  2.580635 25.373497  1.864899
  Thomas-Fermi vector in A             =   2.491826

 Write flags
   LWAVE        =      F    write WAVECAR
   LDOWNSAMPLE  =      F    k-point downsampling of WAVECAR
   LCHARG       =      F    write CHGCAR
   LVTOT        =      F    write LOCPOT, total local potential
   LVHAR        =      F    write LOCPOT, Hartree potential only
   LELF         =      F    write electronic localiz. function (ELF)
   LORBIT       =      0    0 simple, 1 ext, 2 COOP (PROOUT), +10 PAW based schemes


 Dipole corrections
   LMONO  =      F    monopole corrections only (constant potential shift)
   LDIPOL =      F    correct potential (dipole corrections)
   IDIPOL =      0    1-x, 2-y, 3-z, 4-all directions
   EPSILON=  1.0000000 bulk dielectric constant

 Exchange correlation treatment:
   GGA     =    PS    GGA type
   LEXCH   =    14    internal setting for exchange type
   VOSKOWN=      0    Vosko Wilk Nusair interpolation
   LHFCALC =     F    Hartree Fock is set to
   LHFONE  =     F    Hartree Fock one center treatment
   AEXX    =    0.0000 exact exchange contribution

 Linear response parameters
   LEPSILON=     F    determine dielectric tensor
   LRPA    =     F    only Hartree local field effects (RPA)
   LNABLA  =     F    use nabla operator in PAW spheres
   LVEL    =     F    velocity operator in full k-point grid
   LINTERFAST=   F  fast interpolation
   KINTER  =     0    interpolate to denser k-point grid
   CSHIFT  =0.1000    complex shift for real part using Kramers Kronig
   OMEGAMAX=  -1.0    maximum frequency
   DEG_THRESHOLD= 0.2000000E-02 threshold for treating states as degnerate
   RTIME   =   -0.100 relaxation time in fs
  (WPLASMAI=    0.000 imaginary part of plasma frequency in eV, 0.658/RTIME)
   DFIELD  = 0.0000000 0.0000000 0.0000000 field for delta impulse in time

 Orbital magnetization related:
   ORBITALMAG=     F  switch on orbital magnetization
   LCHIMAG   =     F  perturbation theory with respect to B field
   DQ        =  0.001000  dq finite difference perturbation B field
   LLRAUG    =     F  two centre corrections for induced B field



--------------------------------------------------------------------------------------------------------


 Static calculation
 charge density and potential will be updated during run
 non-spin polarized calculation
 Variant of blocked Davidson
 Davidson routine will perform the subspace rotation
 perform sub-space diagonalisation
    after iterative eigenvector-optimisation
 modified Broyden-mixing scheme, WC =      100.0
 initial mixing is a Kerker type mixing with AMIX =  0.4000 and BMIX =      1.0000
 Hartree-type preconditioning will be used
 using additional bands            4
 reciprocal scheme for non local part
 use partial core corrections
 calculate Harris-corrections to forces
   (improved forces if not selfconsistent)
 use gradient corrections
 use of overlap-Matrix (Vanderbilt PP)
 Gauss-broadening in eV      SIGMA  =   0.01


--------------------------------------------------------------------------------------------------------


  energy-cutoff  :      700.00
  volume of cell :       67.19
      direct lattice vectors                 reciprocal lattice vectors
     0.000000000  3.226700566  3.226700566    -0.154957050  0.154957050  0.154957050
     3.226700566  0.000000000  3.226700566     0.154957050 -0.154957050  0.154957050
     3.226700566  3.226700566  0.000000000     0.154957050  0.154957050 -0.154957050

  length of vectors
     4.563243702  4.563243702  4.563243702     0.268393483  0.268393483  0.268393483



 k-points in units of 2pi/SCALE and weight: KPOINTS
   0.00000000  0.00000000  0.00000000       0.000
  -0.01159304  0.01159304  0.01159304       0.004
  -0.02318608  0.02318608  0.02318608       0.004
  -0.03477911  0.03477911  0.03477911       0.004
  -0.04637215  0.04637215  0.04637215       0.004
  -0.05796519  0.05796519  0.05796519       0.004
  -0.06955823  0.06955823  0.06955823       0.004
   0.00000000  0.00000000  0.02318608       0.003
  -0.01159304  0.01159304  0.03477911       0.011
  -0.02318608  0.02318608  0.04637215       0.011
  -0.03477911  0.03477911  0.05796519       0.011
  -0.04637215  0.04637215  0.06955823       0.011
  -0.05796519  0.05796519  0.08115127       0.011
   0.08115127 -0.08115127 -0.05796519       0.011
   0.06955823 -0.06955823 -0.04637215       0.011
   0.05796519 -0.05796519 -0.03477911       0.011
   0.04637215 -0.04637215 -0.02318608       0.011
   0.03477911 -0.03477911 -0.01159304       0.011
   0.02318608 -0.02318608  0.00000000       0.005
   0.00000000  0.00000000  0.04637215       0.003
  -0.01159304  0.01159304  0.05796519       0.011
  -0.02318608  0.02318608  0.06955823       0.011
  -0.03477911  0.03477911  0.08115127       0.011
  -0.04637215  0.04637215  0.09274430       0.011
   0.09274430 -0.09274430 -0.04637215       0.011
   0.08115127 -0.08115127 -0.03477911       0.011
   0.06955823 -0.06955823 -0.02318608       0.011
   0.05796519 -0.05796519 -0.01159304       0.011
   0.04637215 -0.04637215  0.00000000       0.005
   0.00000000 -0.00000000  0.06955823       0.003
  -0.01159304  0.01159304  0.08115127       0.011
  -0.02318608  0.02318608  0.09274430       0.011
  -0.03477911  0.03477911  0.10433734       0.011
   0.10433734 -0.10433734 -0.03477911       0.011
   0.09274430 -0.09274430 -0.02318608       0.011
   0.08115127 -0.08115127 -0.01159304       0.011
   0.06955823 -0.06955823  0.00000000       0.005
   0.00000000  0.00000000  0.09274430       0.003
  -0.01159304  0.01159304  0.10433734       0.011
  -0.02318608  0.02318608  0.11593038       0.011
   0.11593038 -0.11593038 -0.02318608       0.011
   0.10433734 -0.10433734 -0.01159304       0.011
   0.09274430 -0.09274430  0.00000000       0.005
  -0.00000000  0.00000000  0.11593038       0.003
  -0.01159304  0.01159304  0.12752342       0.011
   0.12752342 -0.12752342 -0.01159304       0.011
   0.11593038 -0.11593038 -0.00000000       0.005
   0.00000000  0.00000000  0.13911646       0.003
   0.13911646 -0.13911646  0.00000000       0.005
   0.00000000  0.02318608  0.04637215       0.011
  -0.01159304  0.03477911  0.05796519       0.022
  -0.02318608  0.04637215  0.06955823       0.022
  -0.03477911  0.05796519  0.08115127       0.022
   0.10433734 -0.08115127 -0.05796519       0.022
   0.00000000  0.02318608  0.06955823       0.011
  -0.01159304  0.03477911  0.08115127       0.022
  -0.02318608  0.04637215  0.09274430       0.022
   0.11593038 -0.09274430 -0.04637215       0.022
   0.10433734 -0.08115127 -0.03477911       0.022
   0.09274430 -0.06955823 -0.02318608       0.022
   0.08115127 -0.05796519 -0.01159304       0.022
   0.06955823 -0.04637215  0.00000000       0.011
   0.00000000  0.02318608  0.09274430       0.011
  -0.01159304  0.03477911  0.10433734       0.022
   0.12752342 -0.10433734 -0.03477911       0.022
   0.11593038 -0.09274430 -0.02318608       0.022
   0.10433734 -0.08115127 -0.01159304       0.022
   0.09274430 -0.06955823 -0.00000000       0.011
   0.00000000  0.02318608  0.11593038       0.011
   0.13911646 -0.11593038 -0.02318608       0.022
   0.12752342 -0.10433734 -0.01159304       0.022
   0.11593038 -0.09274430 -0.00000000       0.011
   0.15070950 -0.12752342 -0.01159304       0.011
   0.13911646 -0.11593038 -0.00000000       0.011
  -0.00000000  0.04637215  0.09274430       0.011
   0.13911646 -0.09274430 -0.04637215       0.022
   0.12752342 -0.08115127 -0.03477911       0.022
   0.15070950 -0.10433734 -0.03477911       0.011
   0.13911646 -0.09274430 -0.02318608       0.022
   0.12752342 -0.08115127 -0.01159304       0.022
   0.11593038 -0.06955823 -0.00000000       0.011
   0.15070950 -0.10433734 -0.01159304       0.011
   0.13911646 -0.09274430  0.00000000       0.011
   0.15070950 -0.08115127 -0.01159304       0.011

 k-points in reciprocal lattice and weights: KPOINTS
   0.00000000  0.00000000  0.00000000       0.000
   0.07692308  0.00000000  0.00000000       0.004
   0.15384615 -0.00000000  0.00000000       0.004
   0.23076923  0.00000000 -0.00000000       0.004
   0.30769231 -0.00000000  0.00000000       0.004
   0.38461538  0.00000000 -0.00000000       0.004
   0.46153846 -0.00000000  0.00000000       0.004
   0.07692308  0.07692308  0.00000000       0.003
   0.15384615  0.07692308  0.00000000       0.011
   0.23076923  0.07692308 -0.00000000       0.011
   0.30769231  0.07692308 -0.00000000       0.011
   0.38461538  0.07692308  0.00000000       0.011
   0.46153846  0.07692308 -0.00000000       0.011
  -0.46153846  0.07692308 -0.00000000       0.011
  -0.38461538  0.07692308  0.00000000       0.011
  -0.30769231  0.07692308  0.00000000       0.011
  -0.23076923  0.07692308  0.00000000       0.011
  -0.15384615  0.07692308  0.00000000       0.011
  -0.07692308  0.07692308 -0.00000000       0.005
   0.15384615  0.15384615  0.00000000       0.003
   0.23076923  0.15384615  0.00000000       0.011
   0.30769231  0.15384615  0.00000000       0.011
   0.38461538  0.15384615 -0.00000000       0.011
   0.46153846  0.15384615  0.00000000       0.011
  -0.46153846  0.15384615 -0.00000000       0.011
  -0.38461538  0.15384615 -0.00000000       0.011
  -0.30769231  0.15384615 -0.00000000       0.011
  -0.23076923  0.15384615  0.00000000       0.011
  -0.15384615  0.15384615 -0.00000000       0.005
   0.23076923  0.23076923  0.00000000       0.003
   0.30769231  0.23076923  0.00000000       0.011
   0.38461538  0.23076923  0.00000000       0.011
   0.46153846  0.23076923 -0.00000000       0.011
  -0.46153846  0.23076923 -0.00000000       0.011
  -0.38461538  0.23076923 -0.00000000       0.011
  -0.30769231  0.23076923 -0.00000000       0.011
  -0.23076923  0.23076923  0.00000000       0.005
   0.30769231  0.30769231  0.00000000       0.003
   0.38461538  0.30769231  0.00000000       0.011
   0.46153846  0.30769231  0.00000000       0.011
  -0.46153846  0.30769231 -0.00000000       0.011
  -0.38461538  0.30769231 -0.00000000       0.011
  -0.30769231  0.30769231 -0.00000000       0.005
   0.38461538  0.38461538  0.00000000       0.003
   0.46153846  0.38461538  0.00000000       0.011
  -0.46153846  0.38461538  0.00000000       0.011
  -0.38461538  0.38461538  0.00000000       0.005
   0.46153846  0.46153846  0.00000000       0.003
  -0.46153846  0.46153846 -0.00000000       0.005
   0.23076923  0.15384615  0.07692308       0.011
   0.30769231  0.15384615  0.07692308       0.022
   0.38461538  0.15384615  0.07692308       0.022
   0.46153846  0.15384615  0.07692308       0.022
  -0.46153846  0.15384615  0.07692308       0.022
   0.30769231  0.23076923  0.07692308       0.011
   0.38461538  0.23076923  0.07692308       0.022
   0.46153846  0.23076923  0.07692308       0.022
  -0.46153846  0.23076923  0.07692308       0.022
  -0.38461538  0.23076923  0.07692308       0.022
  -0.30769231  0.23076923  0.07692308       0.022
  -0.23076923  0.23076923  0.07692308       0.022
  -0.15384615  0.23076923  0.07692308       0.011
   0.38461538  0.30769231  0.07692308       0.011
   0.46153846  0.30769231  0.07692308       0.022
  -0.46153846  0.30769231  0.07692308       0.022
  -0.38461538  0.30769231  0.07692308       0.022
  -0.30769231  0.30769231  0.07692308       0.022
  -0.23076923  0.30769231  0.07692308       0.011
   0.46153846  0.38461538  0.07692308       0.011
  -0.46153846  0.38461538  0.07692308       0.022
  -0.38461538  0.38461538  0.07692308       0.022
  -0.30769231  0.38461538  0.07692308       0.011
  -0.46153846  0.46153846  0.07692308       0.011
  -0.38461538  0.46153846  0.07692308       0.011
   0.46153846  0.30769231  0.15384615       0.011
  -0.46153846  0.30769231  0.15384615       0.022
  -0.38461538  0.30769231  0.15384615       0.022
  -0.46153846  0.38461538  0.15384615       0.011
  -0.38461538  0.38461538  0.15384615       0.022
  -0.30769231  0.38461538  0.15384615       0.022
  -0.23076923  0.38461538  0.15384615       0.011
  -0.38461538  0.46153846  0.15384615       0.011
  -0.30769231  0.46153846  0.15384615       0.011
  -0.30769231  0.46153846  0.23076923       0.011

 position of ions in fractional coordinates (direct lattice)
   0.25000000  0.25000000  0.25000000
   0.75000000  0.75000000  0.75000000
   0.00000000  0.00000000  0.00000000

 position of ions in cartesian coordinates  (Angst):
   1.61335028  1.61335028  1.61335028
   4.84005085  4.84005085  4.84005085
   0.00000000  0.00000000  0.00000000



--------------------------------------------------------------------------------------------------------


 k-point  1 :   0.0000 0.0000 0.0000  plane waves:    2741
 k-point  2 :   0.0769 0.0000 0.0000  plane waves:    2782
 k-point  3 :   0.1538-0.0000 0.0000  plane waves:    2803
 k-point  4 :   0.2308 0.0000-0.0000  plane waves:    2821
 k-point  5 :   0.3077-0.0000 0.0000  plane waves:    2821
 k-point  6 :   0.3846 0.0000-0.0000  plane waves:    2833
 k-point  7 :   0.4615-0.0000 0.0000  plane waves:    2839
 k-point  8 :   0.0769 0.0769 0.0000  plane waves:    2786
 k-point  9 :   0.1538 0.0769 0.0000  plane waves:    2796
 k-point 10 :   0.2308 0.0769-0.0000  plane waves:    2807
 k-point 11 :   0.3077 0.0769-0.0000  plane waves:    2837
 k-point 12 :   0.3846 0.0769 0.0000  plane waves:    2834
 k-point 13 :   0.4615 0.0769-0.0000  plane waves:    2834
 k-point 14 :  -0.4615 0.0769-0.0000  plane waves:    2837
 k-point 15 :  -0.3846 0.0769 0.0000  plane waves:    2835
 k-point 16 :  -0.3077 0.0769 0.0000  plane waves:    2827
 k-point 17 :  -0.2308 0.0769 0.0000  plane waves:    2832
 k-point 18 :  -0.1538 0.0769 0.0000  plane waves:    2808
 k-point 19 :  -0.0769 0.0769-0.0000  plane waves:    2793
 k-point 20 :   0.1538 0.1538 0.0000  plane waves:    2802
 k-point 21 :   0.2308 0.1538 0.0000  plane waves:    2819
 k-point 22 :   0.3077 0.1538 0.0000  plane waves:    2823
 k-point 23 :   0.3846 0.1538-0.0000  plane waves:    2823
 k-point 24 :   0.4615 0.1538 0.0000  plane waves:    2823
 k-point 25 :  -0.4615 0.1538-0.0000  plane waves:    2834
 k-point 26 :  -0.3846 0.1538-0.0000  plane waves:    2833
 k-point 27 :  -0.3077 0.1538-0.0000  plane waves:    2816
 k-point 28 :  -0.2308 0.1538 0.0000  plane waves:    2827
 k-point 29 :  -0.1538 0.1538-0.0000  plane waves:    2826
 k-point 30 :   0.2308 0.2308 0.0000  plane waves:    2826
 k-point 31 :   0.3077 0.2308 0.0000  plane waves:    2835
 k-point 32 :   0.3846 0.2308 0.0000  plane waves:    2816
 k-point 33 :   0.4615 0.2308-0.0000  plane waves:    2824
 k-point 34 :  -0.4615 0.2308-0.0000  plane waves:    2832
 k-point 35 :  -0.3846 0.2308-0.0000  plane waves:    2827
 k-point 36 :  -0.3077 0.2308-0.0000  plane waves:    2826
 k-point 37 :  -0.2308 0.2308 0.0000  plane waves:    2830
 k-point 38 :   0.3077 0.3077 0.0000  plane waves:    2842
 k-point 39 :   0.3846 0.3077 0.0000  plane waves:    2827
 k-point 40 :   0.4615 0.3077 0.0000  plane waves:    2839
 k-point 41 :  -0.4615 0.3077-0.0000  plane waves:    2827
 k-point 42 :  -0.3846 0.3077-0.0000  plane waves:    2828
 k-point 43 :  -0.3077 0.3077-0.0000  plane waves:    2810
 k-point 44 :   0.3846 0.3846 0.0000  plane waves:    2814
 k-point 45 :   0.4615 0.3846 0.0000  plane waves:    2831
 k-point 46 :  -0.4615 0.3846 0.0000  plane waves:    2829
 k-point 47 :  -0.3846 0.3846 0.0000  plane waves:    2842
 k-point 48 :   0.4615 0.4615 0.0000  plane waves:    2822
 k-point 49 :  -0.4615 0.4615-0.0000  plane waves:    2826
 k-point 50 :   0.2308 0.1538 0.0769  plane waves:    2806
 k-point 51 :   0.3077 0.1538 0.0769  plane waves:    2815
 k-point 52 :   0.3846 0.1538 0.0769  plane waves:    2833
 k-point 53 :   0.4615 0.1538 0.0769  plane waves:    2824
 k-point 54 :  -0.4615 0.1538 0.0769  plane waves:    2830
 k-point 55 :   0.3077 0.2308 0.0769  plane waves:    2824
 k-point 56 :   0.3846 0.2308 0.0769  plane waves:    2819
 k-point 57 :   0.4615 0.2308 0.0769  plane waves:    2821
 k-point 58 :  -0.4615 0.2308 0.0769  plane waves:    2820
 k-point 59 :  -0.3846 0.2308 0.0769  plane waves:    2818
 k-point 60 :  -0.3077 0.2308 0.0769  plane waves:    2827
 k-point 61 :  -0.2308 0.2308 0.0769  plane waves:    2833
 k-point 62 :  -0.1538 0.2308 0.0769  plane waves:    2827
 k-point 63 :   0.3846 0.3077 0.0769  plane waves:    2828
 k-point 64 :   0.4615 0.3077 0.0769  plane waves:    2820
 k-point 65 :  -0.4615 0.3077 0.0769  plane waves:    2835
 k-point 66 :  -0.3846 0.3077 0.0769  plane waves:    2830
 k-point 67 :  -0.3077 0.3077 0.0769  plane waves:    2823
 k-point 68 :  -0.2308 0.3077 0.0769  plane waves:    2813
 k-point 69 :   0.4615 0.3846 0.0769  plane waves:    2827
 k-point 70 :  -0.4615 0.3846 0.0769  plane waves:    2833
 k-point 71 :  -0.3846 0.3846 0.0769  plane waves:    2831
 k-point 72 :  -0.3077 0.3846 0.0769  plane waves:    2826
 k-point 73 :  -0.4615 0.4615 0.0769  plane waves:    2834
 k-point 74 :  -0.3846 0.4615 0.0769  plane waves:    2840
 k-point 75 :   0.4615 0.3077 0.1538  plane waves:    2826
 k-point 76 :  -0.4615 0.3077 0.1538  plane waves:    2824
 k-point 77 :  -0.3846 0.3077 0.1538  plane waves:    2828
 k-point 78 :  -0.4615 0.3846 0.1538  plane waves:    2823
 k-point 79 :  -0.3846 0.3846 0.1538  plane waves:    2828
 k-point 80 :  -0.3077 0.3846 0.1538  plane waves:    2821
 k-point 81 :  -0.2308 0.3846 0.1538  plane waves:    2828
 k-point 82 :  -0.3846 0.4615 0.1538  plane waves:    2832
 k-point 83 :  -0.3077 0.4615 0.1538  plane waves:    2822
 k-point 84 :  -0.3077 0.4615 0.2308  plane waves:    2817

 maximum and minimum number of plane-waves per node :       728      668

 maximum number of plane-waves:      2842
 maximum index in each direction:
   IXMAX=   10   IYMAX=    9   IZMAX=    9
   IXMIN=  -10   IYMIN=  -10   IZMIN=  -10


 parallel 3D FFT for wavefunctions:
    minimum data exchange during FFTs selected (reduces bandwidth)
 parallel 3D FFT for charge:
    minimum data exchange during FFTs selected (reduces bandwidth)


 total amount of memory used by VASP MPI-rank0    90822. kBytes
=======================================================================

   base      :      30000. kBytes
   nonl-proj :      46741. kBytes
   fftplans  :       5204. kBytes
   grid      :       2732. kBytes
   one-center:         49. kBytes
   wavefun   :       6096. kBytes

     INWAV:  cpu time    0.0003: real time    0.0006
 Broyden mixing: mesh for mixing (old mesh)
   NGX = 19   NGY = 19   NGZ = 19
  (NGX  = 80   NGY  = 80   NGZ  = 80)
  gives a total of   6859 points

 initial charge density was supplied:
 charge density of overlapping atoms calculated
 number of electron      39.0000000 magnetization
 keeping initial charge density in first step


--------------------------------------------------------------------------------------------------------


 Maximum index for augmentation-charges        28232 (set IRDMAX)


--------------------------------------------------------------------------------------------------------


 First call to EWALD:  gamma=   0.436
 Maximum number of real-space cells 3x 3x 3
 Maximum number of reciprocal cells 3x 3x 3

    FEWALD:  cpu time    0.0053: real time    0.0056


--------------------------------------- Iteration      1(   1)  ---------------------------------------


    POTLOK:  cpu time    0.0488: real time    0.1113
    SETDIJ:  cpu time    0.0929: real time    0.0934
     EDDAV:  cpu time    1.4167: real time    1.4241
       DOS:  cpu time    0.0041: real time    0.0049
    --------------------------------------------
      LOOP:  cpu time    1.5629: real time    1.6345

 eigenvalue-minimisations  :  4032
 total energy-change (2. order) : 0.4330124E+03  (-0.2260938E+04)
 number of electron      39.0000000 magnetization
 augmentation part       39.0000000 magnetization

 Free energy of the ion-electron system (eV)
  ---------------------------------------------------
  alpha Z        PSCENC =       234.03387081
  Ewald energy   TEWEN  =     -3694.58197187
  -Hartree energ DENC   =      -742.08638029
  -exchange      EXHF   =         0.00000000
  -V(xc)+E(xc)   XCENC  =        91.40452409
  PAW double counting   =      3513.29252893    -3436.88002192
  entropy T*S    EENTRO =        -0.00012287
  eigenvalues    EBANDS =       372.47790014
  atomic energy  EATOM  =      4095.35208632
  Solvation  Ediel_sol  =         0.00000000
  ---------------------------------------------------
  free energy    TOTEN  =       433.01241334 eV

  energy without entropy =      433.01253621  energy(sigma->0) =      433.01247478


--------------------------------------------------------------------------------------------------------




--------------------------------------- Iteration      1(   2)  ---------------------------------------


     EDDAV:  cpu time    1.4645: real time    1.4851
       DOS:  cpu time    0.0032: real time    0.0034
    --------------------------------------------
      LOOP:  cpu time    1.4677: real time    1.4906

 eigenvalue-minimisations  :  4272
 total energy-change (2. order) :-0.4013683E+03  (-0.3932691E+03)
 number of electron      39.0000000 magnetization
 augmentation part       39.0000000 magnetization

 Free energy of the ion-electron system (eV)
  ---------------------------------------------------
  alpha Z        PSCENC =       234.03387081
  Ewald energy   TEWEN  =     -3694.58197187
  -Hartree energ DENC   =      -742.08638029
  -exchange      EXHF   =         0.00000000
  -V(xc)+E(xc)   XCENC  =        91.40452409
  PAW double counting   =      3513.29252893    -3436.88002192
  entropy T*S    EENTRO =        -0.00039740
  eigenvalues    EBANDS =       -28.89008575
  atomic energy  EATOM  =      4095.35208632
  Solvation  Ediel_sol  =         0.00000000
  ---------------------------------------------------
  free energy    TOTEN  =        31.64415292 eV

  energy without entropy =       31.64455032  energy(sigma->0) =       31.64435162


--------------------------------------------------------------------------------------------------------




--------------------------------------- Iteration      1(   3)  ---------------------------------------


     EDDAV:  cpu time    1.6470: real time    1.6793
       DOS:  cpu time    0.0033: real time    0.0036
    --------------------------------------------
      LOOP:  cpu time    1.6503: real time    1.6818

 eigenvalue-minimisations  :  5032
 total energy-change (2. order) :-0.5211339E+02  (-0.5104608E+02)
 number of electron      39.0000000 magnetization
 augmentation part       39.0000000 magnetization

 Free energy of the ion-electron system (eV)
  ---------------------------------------------------
  alpha Z        PSCENC =       234.03387081
  Ewald energy   TEWEN  =     -3694.58197187
  -Hartree energ DENC   =      -742.08638029
  -exchange      EXHF   =         0.00000000
  -V(xc)+E(xc)   XCENC  =        91.40452409
  PAW double counting   =      3513.29252893    -3436.88002192
  entropy T*S    EENTRO =        -0.00072442
  eigenvalues    EBANDS =       -81.00315065
  atomic energy  EATOM  =      4095.35208632
  Solvation  Ediel_sol  =         0.00000000
  ---------------------------------------------------
  free energy    TOTEN  =       -20.46923900 eV

  energy without entropy =      -20.46851458  energy(sigma->0) =      -20.46887679


--------------------------------------------------------------------------------------------------------




--------------------------------------- Iteration      1(   4)  ---------------------------------------


     EDDAV:  cpu time    2.2709: real time    2.2976
       DOS:  cpu time    0.0032: real time    0.0034
    --------------------------------------------
      LOOP:  cpu time    2.2742: real time    2.3002

 eigenvalue-minimisations  :  7432
 total energy-change (2. order) :-0.5354557E+01  (-0.5325491E+01)
 number of electron      39.0000000 magnetization
 augmentation part       39.0000000 magnetization

 Free energy of the ion-electron system (eV)
  ---------------------------------------------------
  alpha Z        PSCENC =       234.03387081
  Ewald energy   TEWEN  =     -3694.58197187
  -Hartree energ DENC   =      -742.08638029
  -exchange      EXHF   =         0.00000000
  -V(xc)+E(xc)   XCENC  =        91.40452409
  PAW double counting   =      3513.29252893    -3436.88002192
  entropy T*S    EENTRO =        -0.00085276
  eigenvalues    EBANDS =       -86.35757964
  atomic energy  EATOM  =      4095.35208632
  Solvation  Ediel_sol  =         0.00000000
  ---------------------------------------------------
  free energy    TOTEN  =       -25.82379634 eV

  energy without entropy =      -25.82294357  energy(sigma->0) =      -25.82336995


--------------------------------------------------------------------------------------------------------




--------------------------------------- Iteration      1(   5)  ---------------------------------------


     EDDAV:  cpu time    1.7436: real time    1.7728
       DOS:  cpu time    0.0031: real time    0.0033
    CHARGE:  cpu time    0.3237: real time    0.3246
    MIXING:  cpu time    0.0087: real time    0.0091
    --------------------------------------------
      LOOP:  cpu time    2.0790: real time    2.1108

 eigenvalue-minimisations  :  5496
 total energy-change (2. order) :-0.1736810E+00  (-0.1735747E+00)
 number of electron      39.0000000 magnetization
 augmentation part        8.6913463 magnetization

 Broyden mixing:
  rms(total) = 0.15793E+01    rms(broyden)= 0.15793E+01
  rms(prec ) = 0.43821E+01
  weight for this iteration     100.00

 Free energy of the ion-electron system (eV)
  ---------------------------------------------------
  alpha Z        PSCENC =       234.03387081
  Ewald energy   TEWEN  =     -3694.58197187
  -Hartree energ DENC   =      -742.08638029
  -exchange      EXHF   =         0.00000000
  -V(xc)+E(xc)   XCENC  =        91.40452409
  PAW double counting   =      3513.29252893    -3436.88002192
  entropy T*S    EENTRO =        -0.00081205
  eigenvalues    EBANDS =       -86.53130133
  atomic energy  EATOM  =      4095.35208632
  Solvation  Ediel_sol  =         0.00000000
  ---------------------------------------------------
  free energy    TOTEN  =       -25.99747731 eV

  energy without entropy =      -25.99666526  energy(sigma->0) =      -25.99707129


--------------------------------------------------------------------------------------------------------




--------------------------------------- Iteration      1(   6)  ---------------------------------------


    POTLOK:  cpu time    0.0334: real time    0.0628
    SETDIJ:  cpu time    0.0924: real time    0.0925
     EDDAV:  cpu time    1.9199: real time    1.9202
       DOS:  cpu time    0.0031: real time    0.0034
    CHARGE:  cpu time    0.2952: real time    0.2953
    MIXING:  cpu time    0.0043: real time    0.0048
    --------------------------------------------
      LOOP:  cpu time    2.3482: real time    2.3789

 eigenvalue-minimisations  :  6144
 total energy-change (2. order) :-0.5677418E+01  (-0.1719843E+02)
 number of electron      39.0000000 magnetization
 augmentation part        7.0365001 magnetization

 Broyden mixing:
  rms(total) = 0.22366E+01    rms(broyden)= 0.22366E+01
  rms(prec ) = 0.57646E+01
  weight for this iteration     100.00

 eigenvalues of (default mixing * dielectric matrix)
  average eigenvalue GAMMA=   0.3419
  0.3419

 Free energy of the ion-electron system (eV)
  ---------------------------------------------------
  alpha Z        PSCENC =       234.03387081
  Ewald energy   TEWEN  =     -3694.58197187
  -Hartree energ DENC   =      -746.67853614
  -exchange      EXHF   =         0.00000000
  -V(xc)+E(xc)   XCENC  =        91.83133629
  PAW double counting   =      3905.81591719    -3830.52569408
  entropy T*S    EENTRO =        -0.00013549
  eigenvalues    EBANDS =       -86.92176839
  atomic energy  EATOM  =      4095.35208632
  Solvation  Ediel_sol  =         0.00000000
  ---------------------------------------------------
  free energy    TOTEN  =       -31.67489537 eV

  energy without entropy =      -31.67475989  energy(sigma->0) =      -31.67482763


--------------------------------------------------------------------------------------------------------




--------------------------------------- Iteration      1(   7)  ---------------------------------------


    POTLOK:  cpu time    0.0337: real time    0.0613
    SETDIJ:  cpu time    0.0937: real time    0.0938
     EDDAV:  cpu time    1.8512: real time    1.8514
       DOS:  cpu time    0.0032: real time    0.0035
    CHARGE:  cpu time    0.2764: real time    0.2766
    MIXING:  cpu time    0.0050: real time    0.0052
    --------------------------------------------
      LOOP:  cpu time    2.2632: real time    2.2907

 eigenvalue-minimisations  :  5832
 total energy-change (2. order) : 0.7478472E+01  (-0.2562349E+01)
 number of electron      39.0000000 magnetization
 augmentation part        7.6306446 magnetization

 Broyden mixing:
  rms(total) = 0.90471E+00    rms(broyden)= 0.90471E+00
  rms(prec ) = 0.24105E+01
  weight for this iteration     100.00

 eigenvalues of (default mixing * dielectric matrix)
  average eigenvalue GAMMA=   0.7957
  0.7957  0.7957

 Free energy of the ion-electron system (eV)
  ---------------------------------------------------
  alpha Z        PSCENC =       234.03387081
  Ewald energy   TEWEN  =     -3694.58197187
  -Hartree energ DENC   =      -734.67810799
  -exchange      EXHF   =         0.00000000
  -V(xc)+E(xc)   XCENC  =        91.24641958
  PAW double counting   =      4036.99193054    -3965.93706310
  entropy T*S    EENTRO =        -0.00068905
  eigenvalues    EBANDS =       -86.62289824
  atomic energy  EATOM  =      4095.35208632
  Solvation  Ediel_sol  =         0.00000000
  ---------------------------------------------------
  free energy    TOTEN  =       -24.19642301 eV

  energy without entropy =      -24.19573396  energy(sigma->0) =      -24.19607848


--------------------------------------------------------------------------------------------------------




--------------------------------------- Iteration      1(   8)  ---------------------------------------


    POTLOK:  cpu time    0.0436: real time    0.0853
    SETDIJ:  cpu time    0.0882: real time    0.0883
     EDDAV:  cpu time    1.8829: real time    1.8831
       DOS:  cpu time    0.0032: real time    0.0035
    CHARGE:  cpu time    0.2804: real time    0.2805
    MIXING:  cpu time    0.0070: real time    0.0071
    --------------------------------------------
      LOOP:  cpu time    2.3053: real time    2.3483

 eigenvalue-minimisations  :  5960
 total energy-change (2. order) : 0.2467130E-01  (-0.2266670E+01)
 number of electron      39.0000000 magnetization
 augmentation part        8.6061119 magnetization

 Broyden mixing:
  rms(total) = 0.67860E+00    rms(broyden)= 0.67860E+00
  rms(prec ) = 0.22455E+01
  weight for this iteration     100.00

 eigenvalues of (default mixing * dielectric matrix)
  average eigenvalue GAMMA=   1.0289
  1.9337  0.5766  0.5766

 Free energy of the ion-electron system (eV)
  ---------------------------------------------------
  alpha Z        PSCENC =       234.03387081
  Ewald energy   TEWEN  =     -3694.58197187
  -Hartree energ DENC   =      -725.16022847
  -exchange      EXHF   =         0.00000000
  -V(xc)+E(xc)   XCENC  =        90.84590558
  PAW double counting   =      4196.21080006    -4128.71475878
  entropy T*S    EENTRO =        -0.00121806
  eigenvalues    EBANDS =       -92.15623730
  atomic energy  EATOM  =      4095.35208632
  Solvation  Ediel_sol  =         0.00000000
  ---------------------------------------------------
  free energy    TOTEN  =       -24.17175171 eV

  energy without entropy =      -24.17053365  energy(sigma->0) =      -24.17114268


--------------------------------------------------------------------------------------------------------




--------------------------------------- Iteration      1(   9)  ---------------------------------------


    POTLOK:  cpu time    0.0433: real time    0.0656
    SETDIJ:  cpu time    0.0921: real time    0.0922
     EDDAV:  cpu time    1.9002: real time    1.9370
       DOS:  cpu time    0.0032: real time    0.0034
    CHARGE:  cpu time    0.2760: real time    0.2762
    MIXING:  cpu time    0.0059: real time    0.0060
    --------------------------------------------
      LOOP:  cpu time    2.3209: real time    2.3833

 eigenvalue-minimisations  :  6128
 total energy-change (2. order) : 0.6140150E+00  (-0.7094149E+00)
 number of electron      39.0000000 magnetization
 augmentation part        7.9204446 magnetization

 Broyden mixing:
  rms(total) = 0.12417E+00    rms(broyden)= 0.12417E+00
  rms(prec ) = 0.29019E+00
  weight for this iteration     100.00

 eigenvalues of (default mixing * dielectric matrix)
  average eigenvalue GAMMA=   1.0186
  2.2725  0.5831  0.5831  0.6359

 Free energy of the ion-electron system (eV)
  ---------------------------------------------------
  alpha Z        PSCENC =       234.03387081
  Ewald energy   TEWEN  =     -3694.58197187
  -Hartree energ DENC   =      -727.61001965
  -exchange      EXHF   =         0.00000000
  -V(xc)+E(xc)   XCENC  =        90.99838874
  PAW double counting   =      4373.72669978    -4307.58287944
  entropy T*S    EENTRO =        -0.00147031
  eigenvalues    EBANDS =       -87.89244110
  atomic energy  EATOM  =      4095.35208632
  Solvation  Ediel_sol  =         0.00000000
  ---------------------------------------------------
  free energy    TOTEN  =       -23.55773674 eV

  energy without entropy =      -23.55626643  energy(sigma->0) =      -23.55700158


--------------------------------------------------------------------------------------------------------




--------------------------------------- Iteration      1(  10)  ---------------------------------------


    POTLOK:  cpu time    0.0802: real time    0.1289
    SETDIJ:  cpu time    0.0821: real time    0.0861
     EDDAV:  cpu time    1.9515: real time    1.9520
       DOS:  cpu time    0.0033: real time    0.0073
    CHARGE:  cpu time    0.2758: real time    0.2759
    MIXING:  cpu time    0.0082: real time    0.0085
    --------------------------------------------
      LOOP:  cpu time    2.4010: real time    2.4579

 eigenvalue-minimisations  :  6168
 total energy-change (2. order) :-0.1005093E-01  (-0.2166654E-01)
 number of electron      39.0000000 magnetization
 augmentation part        7.9336505 magnetization

 Broyden mixing:
  rms(total) = 0.84051E-01    rms(broyden)= 0.84051E-01
  rms(prec ) = 0.27223E+00
  weight for this iteration     100.00

 eigenvalues of (default mixing * dielectric matrix)
  average eigenvalue GAMMA=   0.9737
  1.9481  0.5647  0.5647  0.8954  0.8954

 Free energy of the ion-electron system (eV)
  ---------------------------------------------------
  alpha Z        PSCENC =       234.03387081
  Ewald energy   TEWEN  =     -3694.58197187
  -Hartree energ DENC   =      -726.25422233
  -exchange      EXHF   =         0.00000000
  -V(xc)+E(xc)   XCENC  =        90.95258351
  PAW double counting   =      4431.19226799    -4365.69862567
  entropy T*S    EENTRO =        -0.00149662
  eigenvalues    EBANDS =       -88.56227979
  atomic energy  EATOM  =      4095.35208632
  Solvation  Ediel_sol  =         0.00000000
  ---------------------------------------------------
  free energy    TOTEN  =       -23.56778767 eV

  energy without entropy =      -23.56629104  energy(sigma->0) =      -23.56703936


--------------------------------------------------------------------------------------------------------




--------------------------------------- Iteration      1(  11)  ---------------------------------------


    POTLOK:  cpu time    0.0668: real time    0.1150
    SETDIJ:  cpu time    0.0919: real time    0.0920
     EDDAV:  cpu time    1.9232: real time    1.9233
       DOS:  cpu time    0.0032: real time    0.0034
    CHARGE:  cpu time    0.2796: real time    0.2798
    MIXING:  cpu time    0.0056: real time    0.0057
    --------------------------------------------
      LOOP:  cpu time    2.3703: real time    2.4168

 eigenvalue-minimisations  :  6184
 total energy-change (2. order) : 0.1137924E-01  (-0.1347586E-01)
 number of electron      39.0000000 magnetization
 augmentation part        8.0159795 magnetization

 Broyden mixing:
  rms(total) = 0.33707E-01    rms(broyden)= 0.33707E-01
  rms(prec ) = 0.71990E-01
  weight for this iteration     100.00

 eigenvalues of (default mixing * dielectric matrix)
  average eigenvalue GAMMA=   1.2644
  2.4570  2.4570  0.5639  0.5639  0.8201  0.7246

 Free energy of the ion-electron system (eV)
  ---------------------------------------------------
  alpha Z        PSCENC =       234.03387081
  Ewald energy   TEWEN  =     -3694.58197187
  -Hartree energ DENC   =      -725.81420871
  -exchange      EXHF   =         0.00000000
  -V(xc)+E(xc)   XCENC  =        90.92502837
  PAW double counting   =      4422.85565226    -4357.37904162
  entropy T*S    EENTRO =        -0.00151002
  eigenvalues    EBANDS =       -88.94631396
  atomic energy  EATOM  =      4095.35208632
  Solvation  Ediel_sol  =         0.00000000
  ---------------------------------------------------
  free energy    TOTEN  =       -23.55640843 eV

  energy without entropy =      -23.55489841  energy(sigma->0) =      -23.55565342


--------------------------------------------------------------------------------------------------------




--------------------------------------- Iteration      1(  12)  ---------------------------------------


    POTLOK:  cpu time    0.0467: real time    0.0697
    SETDIJ:  cpu time    0.0935: real time    0.0939
     EDDAV:  cpu time    2.0658: real time    2.0661
       DOS:  cpu time    0.0033: real time    0.0035
    CHARGE:  cpu time    0.2774: real time    0.2775
    MIXING:  cpu time    0.0068: real time    0.0087
    --------------------------------------------
      LOOP:  cpu time    2.4936: real time    2.5219

 eigenvalue-minimisations  :  6768
 total energy-change (2. order) : 0.1506919E-03  (-0.6927882E-03)
 number of electron      39.0000000 magnetization
 augmentation part        8.0026560 magnetization

 Broyden mixing:
  rms(total) = 0.50308E-02    rms(broyden)= 0.50307E-02
  rms(prec ) = 0.13194E-01
  weight for this iteration     100.00

 eigenvalues of (default mixing * dielectric matrix)
  average eigenvalue GAMMA=   1.2321
  2.7170  2.0760  0.5661  0.5661  1.0083  1.0083  0.6826

 Free energy of the ion-electron system (eV)
  ---------------------------------------------------
  alpha Z        PSCENC =       234.03387081
  Ewald energy   TEWEN  =     -3694.58197187
  -Hartree energ DENC   =      -725.93891597
  -exchange      EXHF   =         0.00000000
  -V(xc)+E(xc)   XCENC  =        90.92683146
  PAW double counting   =      4436.55255026    -4371.03512306
  entropy T*S    EENTRO =        -0.00151486
  eigenvalues    EBANDS =       -88.86407082
  atomic energy  EATOM  =      4095.35208632
  Solvation  Ediel_sol  =         0.00000000
  ---------------------------------------------------
  free energy    TOTEN  =       -23.55625773 eV

  energy without entropy =      -23.55474287  energy(sigma->0) =      -23.55550030


--------------------------------------------------------------------------------------------------------




--------------------------------------- Iteration      1(  13)  ---------------------------------------


    POTLOK:  cpu time    0.0440: real time    0.0644
    SETDIJ:  cpu time    0.0930: real time    0.0931
     EDDAV:  cpu time    1.9351: real time    1.9354
       DOS:  cpu time    0.0033: real time    0.0036
    CHARGE:  cpu time    0.2784: real time    0.2787
    MIXING:  cpu time    0.0062: real time    0.0069
    --------------------------------------------
      LOOP:  cpu time    2.3600: real time    2.3807

 eigenvalue-minimisations  :  6168
 total energy-change (2. order) : 0.3976535E-05  (-0.8368240E-04)
 number of electron      39.0000000 magnetization
 augmentation part        7.9960745 magnetization

 Broyden mixing:
  rms(total) = 0.47007E-02    rms(broyden)= 0.47007E-02
  rms(prec ) = 0.15728E-01
  weight for this iteration     100.00

 eigenvalues of (default mixing * dielectric matrix)
  average eigenvalue GAMMA=   1.2229
  2.5407  1.9658  1.6130  0.5661  0.5661  0.9201  0.9201  0.6914

 Free energy of the ion-electron system (eV)
  ---------------------------------------------------
  alpha Z        PSCENC =       234.03387081
  Ewald energy   TEWEN  =     -3694.58197187
  -Hartree energ DENC   =      -725.98322418
  -exchange      EXHF   =         0.00000000
  -V(xc)+E(xc)   XCENC  =        90.92842739
  PAW double counting   =      4437.70382668    -4372.13498384
  entropy T*S    EENTRO =        -0.00151290
  eigenvalues    EBANDS =       -88.87277216
  atomic energy  EATOM  =      4095.35208632
  Solvation  Ediel_sol  =         0.00000000
  ---------------------------------------------------
  free energy    TOTEN  =       -23.55625376 eV

  energy without entropy =      -23.55474086  energy(sigma->0) =      -23.55549731


--------------------------------------------------------------------------------------------------------




--------------------------------------- Iteration      1(  14)  ---------------------------------------


    POTLOK:  cpu time    0.0669: real time    0.0943
    SETDIJ:  cpu time    0.0915: real time    0.0916
     EDDAV:  cpu time    1.8476: real time    1.8481
       DOS:  cpu time    0.0033: real time    0.0044
    CHARGE:  cpu time    0.2777: real time    0.2778
    MIXING:  cpu time    0.0083: real time    0.0086
    --------------------------------------------
      LOOP:  cpu time    2.2953: real time    2.3280

 eigenvalue-minimisations  :  5872
 total energy-change (2. order) : 0.2865556E-04  (-0.5735783E-04)
 number of electron      39.0000000 magnetization
 augmentation part        8.0003301 magnetization

 Broyden mixing:
  rms(total) = 0.19735E-02    rms(broyden)= 0.19735E-02
  rms(prec ) = 0.59301E-02
  weight for this iteration     100.00

 eigenvalues of (default mixing * dielectric matrix)
  average eigenvalue GAMMA=   1.2834
  2.7135  2.1353  1.4584  1.4584  0.5661  0.5661  0.9796  0.9796  0.6935

 Free energy of the ion-electron system (eV)
  ---------------------------------------------------
  alpha Z        PSCENC =       234.03387081
  Ewald energy   TEWEN  =     -3694.58197187
  -Hartree energ DENC   =      -725.94964210
  -exchange      EXHF   =         0.00000000
  -V(xc)+E(xc)   XCENC  =        90.92659551
  PAW double counting   =      4437.83467240    -4372.24989190
  entropy T*S    EENTRO =        -0.00152099
  eigenvalues    EBANDS =       -88.92042329
  atomic energy  EATOM  =      4095.35208632
  Solvation  Ediel_sol  =         0.00000000
  ---------------------------------------------------
  free energy    TOTEN  =       -23.55622510 eV

  energy without entropy =      -23.55470411  energy(sigma->0) =      -23.55546461


--------------------------------------------------------------------------------------------------------




--------------------------------------- Iteration      1(  15)  ---------------------------------------


    POTLOK:  cpu time    0.0716: real time    0.1195
    SETDIJ:  cpu time    0.0897: real time    0.0899
     EDDAV:  cpu time    1.9315: real time    1.9317
       DOS:  cpu time    0.0032: real time    0.0034
    CHARGE:  cpu time    0.2791: real time    0.2792
    MIXING:  cpu time    0.0051: real time    0.0065
    --------------------------------------------
      LOOP:  cpu time    2.3802: real time    2.4278

 eigenvalue-minimisations  :  6160
 total energy-change (2. order) : 0.3504578E-05  (-0.7148233E-05)
 number of electron      39.0000000 magnetization
 augmentation part        7.9993646 magnetization

 Broyden mixing:
  rms(total) = 0.40810E-03    rms(broyden)= 0.40803E-03
  rms(prec ) = 0.11405E-02
  weight for this iteration     100.00

 eigenvalues of (default mixing * dielectric matrix)
  average eigenvalue GAMMA=   1.2988
  2.6531  2.3692  1.9330  0.5661  0.5661  1.1918  1.0619  1.0619  0.6974  0.8870

 Free energy of the ion-electron system (eV)
  ---------------------------------------------------
  alpha Z        PSCENC =       234.03387081
  Ewald energy   TEWEN  =     -3694.58197187
  -Hartree energ DENC   =      -725.96015316
  -exchange      EXHF   =         0.00000000
  -V(xc)+E(xc)   XCENC  =        90.92696507
  PAW double counting   =      4438.16903419    -4372.57984725
  entropy T*S    EENTRO =        -0.00151887
  eigenvalues    EBANDS =       -88.91468681
  atomic energy  EATOM  =      4095.35208632
  Solvation  Ediel_sol  =         0.00000000
  ---------------------------------------------------
  free energy    TOTEN  =       -23.55622160 eV

  energy without entropy =      -23.55470272  energy(sigma->0) =      -23.55546216


--------------------------------------------------------------------------------------------------------




--------------------------------------- Iteration      1(  16)  ---------------------------------------


    POTLOK:  cpu time    0.0576: real time    0.0879
    SETDIJ:  cpu time    0.0927: real time    0.0928
     EDDAV:  cpu time    1.9290: real time    1.9292
       DOS:  cpu time    0.0033: real time    0.0038
    CHARGE:  cpu time    0.2781: real time    0.2782
    MIXING:  cpu time    0.0081: real time    0.0149
    --------------------------------------------
      LOOP:  cpu time    2.3688: real time    2.4052

 eigenvalue-minimisations  :  5896
 total energy-change (2. order) : 0.2261468E-06  (-0.2287085E-06)
 number of electron      39.0000000 magnetization
 augmentation part        7.9993829 magnetization

 Broyden mixing:
  rms(total) = 0.29971E-03    rms(broyden)= 0.29961E-03
  rms(prec ) = 0.86963E-03
  weight for this iteration     100.00

 eigenvalues of (default mixing * dielectric matrix)
  average eigenvalue GAMMA=   1.3090
  2.7879  2.2223  2.2223  0.5661  0.5661  1.3906  0.6950  1.0560  1.0560  0.9185
  0.9185

 Free energy of the ion-electron system (eV)
  ---------------------------------------------------
  alpha Z        PSCENC =       234.03387081
  Ewald energy   TEWEN  =     -3694.58197187
  -Hartree energ DENC   =      -725.96250209
  -exchange      EXHF   =         0.00000000
  -V(xc)+E(xc)   XCENC  =        90.92705386
  PAW double counting   =      4438.22474747    -4372.63204618
  entropy T*S    EENTRO =        -0.00151923
  eigenvalues    EBANDS =       -88.91594046
  atomic energy  EATOM  =      4095.35208632
  Solvation  Ediel_sol  =         0.00000000
  ---------------------------------------------------
  free energy    TOTEN  =       -23.55622137 eV

  energy without entropy =      -23.55470214  energy(sigma->0) =      -23.55546175


--------------------------------------------------------------------------------------------------------




--------------------------------------- Iteration      1(  17)  ---------------------------------------


    POTLOK:  cpu time    0.0337: real time    0.0708
    SETDIJ:  cpu time    0.0927: real time    0.0927
     EDDAV:  cpu time    1.5484: real time    1.5486
       DOS:  cpu time    0.0030: real time    0.0033
    --------------------------------------------
      LOOP:  cpu time    1.6778: real time    1.7152

 eigenvalue-minimisations  :  4504
 total energy-change (2. order) : 0.7321705E-07  (-0.3406118E-07)
 number of electron      39.0000000 magnetization
 augmentation part        7.9993829 magnetization

 Free energy of the ion-electron system (eV)
  ---------------------------------------------------
  alpha Z        PSCENC =       234.03387081
  Ewald energy   TEWEN  =     -3694.58197187
  -Hartree energ DENC   =      -725.96251038
  -exchange      EXHF   =         0.00000000
  -V(xc)+E(xc)   XCENC  =        90.92707337
  PAW double counting   =      4438.29150792    -4372.69905030
  entropy T*S    EENTRO =        -0.00151942
  eigenvalues    EBANDS =       -88.91570775
  atomic energy  EATOM  =      4095.35208632
  Solvation  Ediel_sol  =         0.00000000
  ---------------------------------------------------
  free energy    TOTEN  =       -23.55622130 eV

  energy without entropy =      -23.55470188  energy(sigma->0) =      -23.55546159


--------------------------------------------------------------------------------------------------------




 average (electrostatic) potential at core
  the test charge radii are     1.2087  1.0856  1.2059
  (the norm of the test charge is              1.0000)
       1 -82.2623       2 -99.5890       3 -63.6050



 E-fermi :  11.2832     XC(G=0): -11.9593     alpha+bet :-17.4385


 k-point     1 :       0.0000    0.0000    0.0000
  band No.  band energies     occupation
      1     -32.7653      2.00000
      2     -11.7949      2.00000
      3     -11.7949      2.00000
      4     -11.7605      2.00000
      5     -11.7605      2.00000
      6     -11.7605      2.00000
      7      -8.1505      2.00000
      8      -8.1505      2.00000
      9      -8.1505      2.00000
     10      -1.7590      2.00000
     11       6.2848      2.00000
     12       6.2848      2.00000
     13       6.2848      2.00000
     14       6.4446      2.00000
     15       6.4446      2.00000
     16       9.9137      2.00000
     17       9.9569      2.00000
     18       9.9569      2.00000
     19       9.9569      2.00000
     20      11.1614      2.00000
     21      11.1614      2.00000
     22      11.1614      2.00000
     23      11.5806      0.00000
     24      11.5806      0.00000

 k-point     2 :       0.0769    0.0000    0.0000
  band No.  band energies     occupation
      1     -32.7648      2.00000
      2     -11.7975      2.00000
      3     -11.7975      2.00000
      4     -11.7610      2.00000
      5     -11.7602      2.00000
      6     -11.7602      2.00000
      7      -8.1728      2.00000
      8      -8.1447      2.00000
      9      -8.1447      2.00000
     10      -1.6726      2.00000
     11       6.1046      2.00000
     12       6.1046      2.00000
     13       6.1574      2.00000
     14       6.6141      2.00000
     15       6.6141      2.00000
     16       9.2522      2.00000
     17       9.8915      2.00000
     18       9.8915      2.00000
     19      10.3677      2.00000
     20      11.1713      2.00000
     21      11.1713      2.00000
     22      11.2191      2.00000
     23      11.6496      0.00000
     24      11.6501      0.00000

 k-point     3 :       0.1538   -0.0000    0.0000
  band No.  band energies     occupation
      1     -32.7636      2.00000
      2     -11.8046      2.00000
      3     -11.8046      2.00000
      4     -11.7624      2.00000
      5     -11.7593      2.00000
      6     -11.7593      2.00000
      7      -8.2315      2.00000
      8      -8.1287      2.00000
[...]
  212              fftbas_plan_mpi                       0.063956                     12   6
  213                dfftw_execute                         0.026658                   36   7
  214                map_backward                          0.004661                   12   7
  215                  map_gather                            0.000880                  6   8
  216                  m_alltoallv_z                         0.002330                  6   8
  217                  map_scatter                           0.001179                  6   8
  218                map_forward                           0.029369                   12   7
  219                  map_gather                            0.016998                  6   8
  220                  m_alltoallv_z                         0.006079                  6   8
  221                  map_scatter                           0.006002                  6   8
  222            M_sumb_d                              0.004550                        6   5
  223          M_sumb_d                              0.000029                          1   4
  224        setdij_                               1.470165                           20   3
  225          fft3d_mpi                             0.223806                         40   4
  226            fftbas_plan_mpi                       0.205565                       40   5
  227              dfftw_execute                         0.087970                    120   6
  228              map_backward                          0.013387                     40   6
  229                map_gather                            0.002614                   20   7
  230                m_alltoallv_z                         0.006175                   20   7
  231                map_scatter                           0.003635                   20   7
  232              map_forward                           0.093343                     40   6
  233                map_gather                            0.050764                   20   7
  234                m_alltoallv_z                         0.021150                   20   7
  235                map_scatter                           0.020433                   20   7
  236          M_sumb_d                              0.019827                         20   4
  237        set_dd_magatom                        0.000003                            1   3
  238        set_dd_paw                            0.011417                            1   3
  239          set_rsgf_all                          0.000004                          1   4
  240          M_sumb_d                              0.011266                          8   4
  241        strkin                                0.001334                            1   3
  242          M_sumb_d                              0.000756                          1   4
  243        strelo                                0.002712                            1   3
  244          M_sumb_d                              0.000392                          2   4
  245        strenl                                0.991708                            1   3
  246          spher                                 0.732876                         19   4
  247          phase                                 0.011734                        189   4
  248          proj1                                 0.215836                       1134   4
  249            crexp_mul_wave                        0.030771                     3402   5
  250            M_sumb_d                              0.058520                     1134   5
  251          M_sumb_d                              0.009496                          1   4
  252        M_sumb_d                              0.000264                            6   3
  253        fft3d_mpi                             0.015360                           11   3
  254          fftbas_plan_mpi                       0.014351                         11   4
  255            dfftw_execute                         0.004967                       33   5
  256            map_forward                           0.002874                       10   5
  257              map_gather                            0.000608                      5   6
  258              m_alltoallv_z                         0.001361                      5   6
  259              map_scatter                           0.000667                      5   6
  260            map_backward                          0.003874                       12   5
  261              map_gather                            0.000738                      6   6
  262              m_alltoallv_z                         0.001777                      6   6
  263              map_scatter                           0.001075                      6   6
  264        ggaall_grid                           0.001505                            1   3
  265        forhar                                0.006229                            2   3
  266          M_sumb_d                              0.000331                          2   4
  267        strehar                               0.002606                            1   3
  268          M_sumb_d                              0.000152                          1   4
  269        chggra                                0.006115                            1   3
  270          fft3d_mpi                             0.004216                          3   4
  271            fftbas_plan_mpi                       0.003943                        3   5
  272              dfftw_execute                         0.001340                      9   6
  273              map_backward                          0.000676                      2   6
  274                map_gather                            0.000121                    1   7
  275                m_alltoallv_z                         0.000241                    1   7
  276                map_scatter                           0.000262                    1   7
  277              map_forward                           0.001135                      4   6
  278                map_gather                            0.000240                    2   7
  279                m_alltoallv_z                         0.000549                    2   7
  280                map_scatter                           0.000251                    2   7
  281          M_sumb_d                              0.000114                          3   4
  282        brmix                                 0.010826                            1   3
  283          M_sumb_d                              0.000227                          6   4
  284          brpre                                 0.000054                          1   4
  285          setg0                                 0.001372                          1   4
  286          broyd                                 0.002657                          1   4
  287            M_sumb_d                              0.000723                       19   5
  288            brget                                 0.000455                       69   5
  289            brsav                                 0.000079                       17   5
  290          M_bcast_z                             0.005520                          1   4
  291          M_bcast_d                             0.000064                          1   4
  292        M_bcast_d                             0.000329                            2   3
  293      potlok                                0.028176                              1   2
  294        fft3d_mpi                             0.019653                           13   3
  295          fftbas_plan_mpi                       0.018397                         13   4
  296            dfftw_execute                         0.005848                       39   5
  297            map_forward                           0.004455                       14   5
  298              map_gather                            0.000789                      8   6
  299              m_alltoallv_z                         0.002134                      8   6
  300              map_scatter                           0.001178                      8   6
  301            map_backward                          0.004730                       12   5
  302              map_gather                            0.000975                      6   6
  303              m_alltoallv_z                         0.002076                      6   6
  304              map_scatter                           0.001366                      6   6
  305        ggaall_grid                           0.001564                            1   3
  306        M_sumb_d                              0.000274                            6   3
  307        M_bcast_d                             0.000101                            1   3
  308      potlok_metagga                        0.000003                              1   2
  309      set_dd_magatom                        0.000003                              1   2
  310      set_dd_paw                            0.000476                              1   2
  311        set_rsgf_all                          0.000004                            1   3
  312        M_sumb_d                              0.000277                            8   3
  313      densta                                0.002560                              1   2
  314        M_sumb_d                              0.000975                           41   3
  315      lprj_proall                           0.000007                              1   2

 Flat profile
 ============

             routine name                   CPU           calls
 ---------------------------------------------------------------
 total_time                             12.715127           1
 eddav                                   5.847768          17
 dfftw_execute                           5.292474       54822
 fftbas_plan_mpi                         3.737235       18276
 M_sumb_d                                2.919714       50458
 setdij_                                 2.664396          41
 set_charge                              2.214475          13
 m_alltoallv_z                           2.047773       18301
 elmin                                   1.863226           1
 pdssyex_zheevx                          1.577200         357
 M_alltoall_d                            1.262514       60606
 orth1                                   0.980156       12414
 proj1                                   0.962709        7380
 gemm                                    0.859677       24786
 spher                                   0.849489          20
 vhamil                                  0.833119        8262
 fftwav_mpi                              0.698757        9707
 map_forward                             0.684653       19708
 map_gather                              0.662681       18301
 map_scatter                             0.595620       18301
 vnlac0                                  0.549962        8262
 redis_pw                                0.512959       23400
 M_bcast_z                               0.497583        6684
 redis_proj                              0.454205       29541
 hamiltmu                                0.450721        4131
 w1_copy                                 0.346616       24786
 crpa_reader                             0.310510           1
 fft3d_mpi                               0.295471       18274
 map_backward                            0.293379       16840
 work_mul_crexp                          0.279401       24786
 fftext_mpi                              0.262204        8262
 crexp_mul_wave                          0.213876       22140
 eccp                                    0.188781        2142
 kinhamil                                0.166313        8262
 overl                                   0.163412       14403
 M_bcast_d                               0.133939        4165
 overl1                                  0.106329        8262
 potlok                                  0.091179          14
 pw_charge                               0.085703        1445
 apply_precond                           0.080369        6120
 setup_precond                           0.067117        2142
 w1_projall                              0.066519        3060
 lincom                                  0.060471         378
 force_and_stress                        0.054919           1
 fornl                                   0.044125           1
 phase                                   0.036615         589
 truncate_high_frequency_w1              0.035896       10404
 soft_charge                             0.035757          13
 densta                                  0.028905          18
 brmix                                   0.025879          13
 ggaall_grid                             0.023257          15
 strenl                                  0.021765           1
 broyd                                   0.017806          13
 setg0                                   0.015486          14
 forhar                                  0.005898           2
 depsum                                  0.005645          13
 set_dd_paw                              0.003212          15
 forloc                                  0.002980           1
 strehar                                 0.002454           1
 brget                                   0.002418         501
 strelo                                  0.002320           1
 orthch                                  0.002080           1
 chggra                                  0.001785           1
 choleski                                0.001713          21
 proj                                    0.001525          21
 brgrid                                  0.001160           1
 brpre                                   0.000953          13
 brsav                                   0.000820         145
 strkin                                  0.000578           1
 fordep                                  0.000131           1
 vectorpot                               0.000070          14
 set_rsgf_all                            0.000068          15
 potlok_metagga                          0.000057          14
 set_dd_magatom                          0.000056          15
 set_kineden                             0.000045          12
 rotate_active_occupied_orbital          0.000015           1
 lprj_proall                             0.000007           1
 redis_pw_over_bands                     0.000003           1
 ---------------------------------------------------------------
  summed up times    55.3221838474274

 Accumulative profile
 ====================

             routine name                   CPU           calls
 ---------------------------------------------------------------
 total_time                             55.322184           1
 elmin                                  38.104384           1
 eddav                                  31.193133          17
 fft3d_mpi                              13.511787       18274
 fftbas_plan_mpi                        13.313814       18276
 hamiltmu                                9.619106        4131
 fftwav_mpi                              7.650405        9707
 kinhamil                                6.012491        8262
 fftext_mpi                              5.846178        8262
 dfftw_execute                           5.292474       54822
 set_charge                              3.665763          13
 force_and_stress                        3.367851           1
 setdij_                                 3.204721          41
 M_sumb_d                                2.919714       50458
 map_forward                             2.513780       19708
 vnlac0                                  2.216446        8262
 m_alltoallv_z                           2.047773       18301
 map_backward                            1.770325       16840
 proj1                                   1.652416        7380
 pdssyex_zheevx                          1.577200         357
 w1_projall                              1.478709        3060
 M_alltoall_d                            1.262514       60606
 soft_charge                             1.248310          13
 redis_pw                                1.222010       23400
 redis_proj                              1.007668       29541
 strenl                                  0.991708           1
 orth1                                   0.980156       12414
 gemm                                    0.859677       24786
 spher                                   0.849489          20
 vhamil                                  0.833119        8262
 map_gather                              0.662681       18301
 map_scatter                             0.595620       18301
 M_bcast_z                               0.497583        6684
 fordep                                  0.455451           1
 potlok                                  0.368114          14
 w1_copy                                 0.346616       24786
 eccp                                    0.316783        2142
 crpa_reader                             0.310510           1
 work_mul_crexp                          0.279401       24786
 crexp_mul_wave                          0.213876       22140
 overl                                   0.163412       14403
 set_dd_paw                              0.150300          15
 M_bcast_d                               0.133939        4165
 setup_precond                           0.118779        2142
 overl1                                  0.106329        8262
 brmix                                   0.094574          13
 pw_charge                               0.085703        1445
 apply_precond                           0.080369        6120
 fornl                                   0.060627           1
 lincom                                  0.060471         378
 densta                                  0.043471          18
 phase                                   0.036615         589
 truncate_high_frequency_w1              0.035896       10404
 orthch                                  0.027353           1
 broyd                                   0.027027          13
 proj                                    0.025915          21
 ggaall_grid                             0.023257          15
 setg0                                   0.015486          14
 depsum                                  0.010014          13
 forhar                                  0.006229           2
 chggra                                  0.006115           1
 forloc                                  0.003989           1
 strelo                                  0.002712           1
 strehar                                 0.002606           1
 brget                                   0.002418         501
 choleski                                0.001713          21
 strkin                                  0.001334           1
 brgrid                                  0.001160           1
 brpre                                   0.000953          13
 brsav                                   0.000820         145
 vectorpot                               0.000070          14
 set_rsgf_all                            0.000068          15
 potlok_metagga                          0.000057          14
 set_dd_magatom                          0.000056          15
 set_kineden                             0.000045          12
 rotate_active_occupied_orbital          0.000015           1
 lprj_proall                             0.000007           1
 redis_pw_over_bands                     0.000003           1
 ---------------------------------------------------------------

Profiling took   1.432671  1.749336  0.005828  0.004419 seconds
Profiling took   1.383194 seconds
