 ----------------------------------------------------
    OOO  PPPP  EEEEE N   N M   M PPPP
   O   O P   P E     NN  N MM MM P   P
   O   O PPPP  EEEEE N N N M M M PPPP   -- VERSION
   O   O P     E     N  NN M   M P
    OOO  P     EEEEE N   N M   M P
 ----------------------------------------------------
 running   64 mpi-ranks, with    1 threads/rank
 distrk:  each k-point on   16 cores,    4 groups
 distr:  one band on    4 cores,    4 groups
 using from now: INCAR
 vasp.6.0.8 29Jun18 (build Jun 13 2019 12:54:44) complex

 POSCAR found type information on POSCAR  U  Bi Pt
 POSCAR found :  3 types and       3 ions
 scaLAPACK will be used
 WARNING: PSMAXN for non-local potential too small

 -----------------------------------------------------------------------------
|                                                                             |
|  ADVICE TO THIS USER RUNNING 'VASP/VAMP'   (HEAR YOUR MASTER'S VOICE ...):  |
|                                                                             |
|      You enforced a specific xc-type in the INCAR file,                     |
|      a different type was found on the POTCAR file                          |
|          I HOPE YOU KNOW, WHAT YOU ARE  DOING                               |
|                                                                             |
 -----------------------------------------------------------------------------

 LDA part: xc-table for Pade appr. of Perdew
 POSCAR, INCAR and KPOINTS ok, starting setup
 FFT: planning ...
 WAVECAR not read
 entering main loop
       N       E                     dE             d eps       ncg     rms          rms(c)
 ELPA: falling back to scaLAPACK
 ELPA: falling back to scaLAPACK
 ELPA: falling back to scaLAPACK
 ELPA: falling back to scaLAPACK
DAV:   1     0.433012413344E+03    0.43301E+03   -0.22609E+04  4032   0.238E+03
DAV:   2     0.316441529242E+02   -0.40137E+03   -0.39327E+03  4272   0.506E+02
DAV:   3    -0.204692390003E+02   -0.52113E+02   -0.51046E+02  5032   0.183E+02
DAV:   4    -0.258237963374E+02   -0.53546E+01   -0.53255E+01  7432   0.473E+01
DAV:   5    -0.259974773133E+02   -0.17368E+00   -0.17357E+00  5496   0.729E+00    0.158E+01
DAV:   6    -0.316748953713E+02   -0.56774E+01   -0.17198E+02  6144   0.882E+01    0.224E+01
DAV:   7    -0.241964230087E+02    0.74785E+01   -0.25623E+01  5832   0.286E+01    0.905E+00
DAV:   8    -0.241717517089E+02    0.24671E-01   -0.22667E+01  5960   0.220E+01    0.679E+00
DAV:   9    -0.235577367374E+02    0.61401E+00   -0.70941E+00  6128   0.163E+01    0.124E+00
DAV:  10    -0.235677876692E+02   -0.10051E-01   -0.21667E-01  6168   0.263E+00    0.841E-01
DAV:  11    -0.235564084251E+02    0.11379E-01   -0.13476E-01  6184   0.203E+00    0.337E-01
DAV:  12    -0.235562577332E+02    0.15069E-03   -0.69279E-03  6768   0.546E-01    0.503E-02
DAV:  13    -0.235562537567E+02    0.39765E-05   -0.83682E-04  6168   0.187E-01    0.470E-02
DAV:  14    -0.235562251011E+02    0.28656E-04   -0.57358E-04  5872   0.127E-01    0.197E-02
DAV:  15    -0.235562215965E+02    0.35046E-05   -0.71482E-05  6160   0.514E-02    0.408E-03
DAV:  16    -0.235562213704E+02    0.22615E-06   -0.22871E-06  5896   0.103E-02    0.300E-03
DAV:  17    -0.235562212972E+02    0.73217E-07   -0.34061E-07  4504   0.332E-03
   1 F= -.23556221E+02 E0= -.23555462E+02  d E =-.151942E-02
