<?xml version="1.0" encoding="ISO-8859-1"?>
<modeling>
 <generator>
  <i name="program" type="string">vasp </i>
  <i name="version" type="string">6.0.8  </i>
  <i name="subversion" type="string">29Jun18 (build Jun 13 2019 12:54:44) complex                          parallel </i>
  <i name="platform" type="string">IFC18_CrayMPICH </i>
  <i name="date" type="string">2021 12 05 </i>
  <i name="time" type="string">14:21:50 </i>
 </generator>
 <incar>
  <i type="int" name="KPAR">     4</i>
  <i type="int" name="NPAR">     4</i>
  <i type="int" name="ISTART">     0</i>
  <i type="string" name="PREC"> ACC</i>
  <i type="string" name="ALGO"> Normal</i>
  <i type="logical" name="ADDGRID"> T  </i>
  <i type="int" name="ISPIN">     1</i>
  <i type="int" name="NELMIN">     5</i>
  <i type="int" name="IBRION">    -1</i>
  <i name="EDIFF">      0.00000010</i>
  <i type="int" name="NSW">     0</i>
  <i type="int" name="ISIF">     3</i>
  <i name="ENCUT">    700.00000000</i>
  <i type="logical" name="LREAL"> F  </i>
  <i type="int" name="ISMEAR">     0</i>
  <i name="SIGMA">      0.01000000</i>
  <i type="logical" name="LWAVE"> F  </i>
  <i type="logical" name="LCHARG"> F  </i>
  <i type="logical" name="LVTOT"> F  </i>
  <i type="string" name="ALGO"> Normal</i>
  <i type="string" name="GGA"> PS</i>
  <i name="EDIFF">      0.00000010</i>
  <i type="int" name="ISPIN">     1</i>
 </incar>
 <structure name="primitive_cell" >
  <crystal>
   <varray name="basis" >
    <v>       0.00000000       3.22670057       3.22670057 </v>
    <v>       3.22670057       0.00000000       3.22670057 </v>
    <v>       3.22670057       3.22670057       0.00000000 </v>
   </varray>
   <i name="volume">     67.19020891 </i>
   <varray name="rec_basis" >
    <v>      -0.15495705       0.15495705       0.15495705 </v>
    <v>       0.15495705      -0.15495705       0.15495705 </v>
    <v>       0.15495705       0.15495705      -0.15495705 </v>
   </varray>
  </crystal>
  <varray name="positions" >
   <v>       0.25000000       0.25000000       0.25000000 </v>
   <v>       0.75000000       0.75000000       0.75000000 </v>
   <v>       0.00000000       0.00000000       0.00000000 </v>
  </varray>
 </structure>
 <varray name="primitive_index" >
  <v type="int" >        1 </v>
  <v type="int" >        2 </v>
  <v type="int" >        3 </v>
 </varray>
 <kpoints>
  <generation param="Gamma">
   <v type="int" name="divisions">      13       13       13 </v>
   <v name="usershift">      0.00000000       0.00000000       0.00000000 </v>
   <v name="genvec1">      0.07692308      -0.00000000       0.00000000 </v>
   <v name="genvec2">     -0.00000000       0.07692308      -0.00000000 </v>
   <v name="genvec3">      0.00000000       0.00000000       0.07692308 </v>
   <v name="shift">      0.00000000       0.00000000       0.00000000 </v>
  </generation>
  <varray name="kpointlist" >
   <v>       0.00000000       0.00000000       0.00000000 </v>
   <v>       0.07692308       0.00000000       0.00000000 </v>
   <v>       0.15384615      -0.00000000       0.00000000 </v>
   <v>       0.23076923       0.00000000      -0.00000000 </v>
   <v>       0.30769231      -0.00000000       0.00000000 </v>
   <v>       0.38461538       0.00000000      -0.00000000 </v>
   <v>       0.46153846      -0.00000000       0.00000000 </v>
   <v>       0.07692308       0.07692308       0.00000000 </v>
   <v>       0.15384615       0.07692308       0.00000000 </v>
   <v>       0.23076923       0.07692308      -0.00000000 </v>
   <v>       0.30769231       0.07692308      -0.00000000 </v>
   <v>       0.38461538       0.07692308       0.00000000 </v>
   <v>       0.46153846       0.07692308      -0.00000000 </v>
   <v>      -0.46153846       0.07692308      -0.00000000 </v>
   <v>      -0.38461538       0.07692308       0.00000000 </v>
   <v>      -0.30769231       0.07692308       0.00000000 </v>
   <v>      -0.23076923       0.07692308       0.00000000 </v>
   <v>      -0.15384615       0.07692308       0.00000000 </v>
   <v>      -0.07692308       0.07692308      -0.00000000 </v>
   <v>       0.15384615       0.15384615       0.00000000 </v>
   <v>       0.23076923       0.15384615       0.00000000 </v>
   <v>       0.30769231       0.15384615       0.00000000 </v>
   <v>       0.38461538       0.15384615      -0.00000000 </v>
   <v>       0.46153846       0.15384615       0.00000000 </v>
   <v>      -0.46153846       0.15384615      -0.00000000 </v>
   <v>      -0.38461538       0.15384615      -0.00000000 </v>
   <v>      -0.30769231       0.15384615      -0.00000000 </v>
   <v>      -0.23076923       0.15384615       0.00000000 </v>
   <v>      -0.15384615       0.15384615      -0.00000000 </v>
   <v>       0.23076923       0.23076923       0.00000000 </v>
   <v>       0.30769231       0.23076923       0.00000000 </v>
   <v>       0.38461538       0.23076923       0.00000000 </v>
   <v>       0.46153846       0.23076923      -0.00000000 </v>
   <v>      -0.46153846       0.23076923      -0.00000000 </v>
   <v>      -0.38461538       0.23076923      -0.00000000 </v>
   <v>      -0.30769231       0.23076923      -0.00000000 </v>
   <v>      -0.23076923       0.23076923       0.00000000 </v>
   <v>       0.30769231       0.30769231       0.00000000 </v>
   <v>       0.38461538       0.30769231       0.00000000 </v>
   <v>       0.46153846       0.30769231       0.00000000 </v>
   <v>      -0.46153846       0.30769231      -0.00000000 </v>
   <v>      -0.38461538       0.30769231      -0.00000000 </v>
   <v>      -0.30769231       0.30769231      -0.00000000 </v>
   <v>       0.38461538       0.38461538       0.00000000 </v>
   <v>       0.46153846       0.38461538       0.00000000 </v>
   <v>      -0.46153846       0.38461538       0.00000000 </v>
   <v>      -0.38461538       0.38461538       0.00000000 </v>
   <v>       0.46153846       0.46153846       0.00000000 </v>
   <v>      -0.46153846       0.46153846      -0.00000000 </v>
   <v>       0.23076923       0.15384615       0.07692308 </v>
   <v>       0.30769231       0.15384615       0.07692308 </v>
   <v>       0.38461538       0.15384615       0.07692308 </v>
   <v>       0.46153846       0.15384615       0.07692308 </v>
   <v>      -0.46153846       0.15384615       0.07692308 </v>
   <v>       0.30769231       0.23076923       0.07692308 </v>
   <v>       0.38461538       0.23076923       0.07692308 </v>
   <v>       0.46153846       0.23076923       0.07692308 </v>
   <v>      -0.46153846       0.23076923       0.07692308 </v>
   <v>      -0.38461538       0.23076923       0.07692308 </v>
   <v>      -0.30769231       0.23076923       0.07692308 </v>
   <v>      -0.23076923       0.23076923       0.07692308 </v>
   <v>      -0.15384615       0.23076923       0.07692308 </v>
   <v>       0.38461538       0.30769231       0.07692308 </v>
   <v>       0.46153846       0.30769231       0.07692308 </v>
   <v>      -0.46153846       0.30769231       0.07692308 </v>
   <v>      -0.38461538       0.30769231       0.07692308 </v>
   <v>      -0.30769231       0.30769231       0.07692308 </v>
   <v>      -0.23076923       0.30769231       0.07692308 </v>
   <v>       0.46153846       0.38461538       0.07692308 </v>
   <v>      -0.46153846       0.38461538       0.07692308 </v>
   <v>      -0.38461538       0.38461538       0.07692308 </v>
   <v>      -0.30769231       0.38461538       0.07692308 </v>
   <v>      -0.46153846       0.46153846       0.07692308 </v>
   <v>      -0.38461538       0.46153846       0.07692308 </v>
   <v>       0.46153846       0.30769231       0.15384615 </v>
   <v>      -0.46153846       0.30769231       0.15384615 </v>
   <v>      -0.38461538       0.30769231       0.15384615 </v>
   <v>      -0.46153846       0.38461538       0.15384615 </v>
   <v>      -0.38461538       0.38461538       0.15384615 </v>
   <v>      -0.30769231       0.38461538       0.15384615 </v>
   <v>      -0.23076923       0.38461538       0.15384615 </v>
   <v>      -0.38461538       0.46153846       0.15384615 </v>
   <v>      -0.30769231       0.46153846       0.15384615 </v>
   <v>      -0.30769231       0.46153846       0.23076923 </v>
  </varray>
  <varray name="weights" >
   <v>       0.00045517 </v>
   <v>       0.00364133 </v>
   <v>       0.00364133 </v>
   <v>       0.00364133 </v>
   <v>       0.00364133 </v>
   <v>       0.00364133 </v>
   <v>       0.00364133 </v>
   <v>       0.00273100 </v>
   <v>       0.01092399 </v>
   <v>       0.01092399 </v>
   <v>       0.01092399 </v>
   <v>       0.01092399 </v>
   <v>       0.01092399 </v>
   <v>       0.01092399 </v>
   <v>       0.01092399 </v>
   <v>       0.01092399 </v>
   <v>       0.01092399 </v>
   <v>       0.01092399 </v>
   <v>       0.00546199 </v>
   <v>       0.00273100 </v>
   <v>       0.01092399 </v>
   <v>       0.01092399 </v>
   <v>       0.01092399 </v>
   <v>       0.01092399 </v>
   <v>       0.01092399 </v>
   <v>       0.01092399 </v>
   <v>       0.01092399 </v>
   <v>       0.01092399 </v>
   <v>       0.00546199 </v>
   <v>       0.00273100 </v>
   <v>       0.01092399 </v>
   <v>       0.01092399 </v>
   <v>       0.01092399 </v>
   <v>       0.01092399 </v>
   <v>       0.01092399 </v>
   <v>       0.01092399 </v>
   <v>       0.00546199 </v>
   <v>       0.00273100 </v>
   <v>       0.01092399 </v>
   <v>       0.01092399 </v>
   <v>       0.01092399 </v>
   <v>       0.01092399 </v>
   <v>       0.00546199 </v>
   <v>       0.00273100 </v>
   <v>       0.01092399 </v>
   <v>       0.01092399 </v>
   <v>       0.00546199 </v>
   <v>       0.00273100 </v>
   <v>       0.00546199 </v>
   <v>       0.01092399 </v>
   <v>       0.02184797 </v>
   <v>       0.02184797 </v>
   <v>       0.02184797 </v>
   <v>       0.02184797 </v>
   <v>       0.01092399 </v>
   <v>       0.02184797 </v>
   <v>       0.02184797 </v>
   <v>       0.02184797 </v>
   <v>       0.02184797 </v>
   <v>       0.02184797 </v>
   <v>       0.02184797 </v>
   <v>       0.01092399 </v>
   <v>       0.01092399 </v>
   <v>       0.02184797 </v>
   <v>       0.02184797 </v>
   <v>       0.02184797 </v>
   <v>       0.02184797 </v>
   <v>       0.01092399 </v>
   <v>       0.01092399 </v>
   <v>       0.02184797 </v>
   <v>       0.02184797 </v>
   <v>       0.01092399 </v>
   <v>       0.01092399 </v>
   <v>       0.01092399 </v>
   <v>       0.01092399 </v>
   <v>       0.02184797 </v>
   <v>       0.02184797 </v>
   <v>       0.01092399 </v>
   <v>       0.02184797 </v>
   <v>       0.02184797 </v>
   <v>       0.01092399 </v>
   <v>       0.01092399 </v>
   <v>       0.01092399 </v>
   <v>       0.01092399 </v>
  </varray>
 </kpoints>
 <parameters>
  <separator name="general" >
   <i type="string" name="SYSTEM">unknown system</i>
   <i type="logical" name="LCOMPAT"> F  </i>
  </separator>
  <separator name="electronic" >
   <i type="string" name="PREC">acc</i>
   <i name="ENMAX">    700.00000000</i>
   <i name="ENAUG">    526.41000000</i>
   <i name="EDIFF">      0.00000010</i>
   <i type="int" name="IALGO">    38</i>
   <i type="int" name="IWAVPR">    10</i>
   <i type="int" name="NBANDS">    24</i>
   <i type="int" name="NBANDSLOW">    -1</i>
   <i type="int" name="NBANDSHIGH">    -1</i>
   <i name="NELECT">     39.00000000</i>
   <i type="int" name="TURBO">     0</i>
   <i type="int" name="IRESTART">     0</i>
   <i type="int" name="NREBOOT">     0</i>
   <i type="int" name="NMIN">     0</i>
   <i name="EREF">      0.00000000</i>
   <separator name="electronic smearing" >
    <i type="int" name="ISMEAR">     0</i>
    <i name="SIGMA">      0.01000000</i>
    <i name="KSPACING">      0.50000000</i>
    <i type="logical" name="KGAMMA"> T  </i>
    <i type="logical" name="KBLOWUP"> T  </i>
   </separator>
   <separator name="electronic projectors" >
    <i type="logical" name="LREAL"> F  </i>
    <v name="ROPT">      0.00000000      0.00000000      0.00000000</v>
    <i type="int" name="LMAXPAW">  -100</i>
    <i type="int" name="LMAXMIX">     2</i>
    <i type="logical" name="NLSPLINE"> F  </i>
   </separator>
   <separator name="electronic startup" >
    <i type="int" name="ISTART">     0</i>
    <i type="int" name="ICHARG">     2</i>
    <i type="int" name="INIWAV">     1</i>
   </separator>
   <separator name="electronic spin" >
    <i type="int" name="ISPIN">     1</i>
    <i type="logical" name="LNONCOLLINEAR"> F  </i>
    <v name="MAGMOM">      1.00000000      1.00000000      1.00000000</v>
    <i name="NUPDOWN">     -1.00000000</i>
    <i type="logical" name="LSORBIT"> F  </i>
    <v name="SAXIS">      0.00000000      0.00000000      1.00000000</v>
    <i type="logical" name="LSPIRAL"> F  </i>
    <v name="QSPIRAL">      0.00000000      0.00000000      0.00000000</v>
    <i type="logical" name="LZEROZ"> F  </i>
   </separator>
   <separator name="electronic exchange-correlation" >
    <i type="logical" name="LASPH"> F  </i>
    <i type="logical" name="LMETAGGA"> F  </i>
   </separator>
   <separator name="electronic convergence" >
    <i type="int" name="NELM">    60</i>
    <i type="int" name="NELMDL">    -5</i>
    <i type="int" name="NELMIN">     5</i>
    <i name="ENINI">    700.00000000</i>
    <separator name="electronic convergence detail" >
     <i type="logical" name="LDIAG"> T  </i>
     <i type="logical" name="LSUBROT"> F  </i>
     <i name="WEIMIN">      0.00000000</i>
     <i name="EBREAK">      0.00000000</i>
     <i name="DEPER">      0.30000000</i>
     <i type="int" name="NRMM">     4</i>
     <i name="TIME">      0.40000000</i>
    </separator>
   </separator>
   <separator name="electronic mixer" >
    <i name="AMIX">      0.40000000</i>
    <i name="BMIX">      1.00000000</i>
    <i name="AMIN">      0.10000000</i>
    <i name="AMIX_MAG">      1.60000000</i>
    <i name="BMIX_MAG">      1.00000000</i>
    <separator name="electronic mixer details" >
     <i type="int" name="IMIX">     4</i>
     <i type="logical" name="MIXFIRST"> F  </i>
     <i type="int" name="MAXMIX">   -45</i>
     <i name="WC">    100.00000000</i>
     <i type="int" name="INIMIX">     1</i>
     <i type="int" name="MIXPRE">     1</i>
     <i type="int" name="MREMOVE">     5</i>
    </separator>
   </separator>
   <separator name="electronic dipolcorrection" >
    <i type="logical" name="LDIPOL"> F  </i>
    <i type="logical" name="LMONO"> F  </i>
    <i type="int" name="IDIPOL">     0</i>
    <i name="EPSILON">      1.00000000</i>
    <v name="DIPOL">   -100.00000000   -100.00000000   -100.00000000</v>
    <i name="EFIELD">      0.00000000</i>
   </separator>
  </separator>
  <separator name="grids" >
   <i type="int" name="NGX">    40</i>
   <i type="int" name="NGY">    40</i>
   <i type="int" name="NGZ">    40</i>
   <i type="int" name="NGXF">    80</i>
   <i type="int" name="NGYF">    80</i>
   <i type="int" name="NGZF">    80</i>
   <i type="logical" name="ADDGRID"> T  </i>
  </separator>
  <separator name="ionic" >
   <i type="int" name="NSW">     0</i>
   <i type="int" name="IBRION">    -1</i>
   <i type="int" name="MDALGO">     0</i>
   <i type="int" name="ISIF">     3</i>
   <i name="PSTRESS">      0.00000000</i>
   <i name="EDIFFG">      0.00000100</i>
   <i type="int" name="NFREE">     0</i>
   <i name="POTIM">      0.50000000</i>
   <i name="SMASS">     -3.00000000</i>
   <i name="SCALEE">      1.00000000</i>
  </separator>
  <separator name="ionic md" >
   <i name="TEBEG">      0.00010000</i>
   <i name="TEEND">      0.00010000</i>
   <i type="int" name="NBLOCK">     1</i>
   <i type="int" name="KBLOCK">     1</i>
   <i type="int" name="NPACO">   256</i>
   <i name="APACO">     16.00000000</i>
  </separator>
  <separator name="symmetry" >
   <i type="int" name="ISYM">     2</i>
   <i name="SYMPREC">      0.00001000</i>
  </separator>
  <separator name="dos" >
   <i type="int" name="LORBIT">     0</i>
   <v name="RWIGS">     -1.00000000     -1.00000000     -1.00000000</v>
   <i type="int" name="NEDOS">   301</i>
   <i name="EMIN">     10.00000000</i>
   <i name="EMAX">    -10.00000000</i>
   <i name="EFERMI">      0.00000000</i>
  </separator>
  <separator name="writing" >
   <i type="int" name="NWRITE">     2</i>
   <i type="logical" name="LWAVE"> F  </i>
   <i type="logical" name="LDOWNSAMPLE"> F  </i>
   <i type="logical" name="LCHARG"> F  </i>
   <i type="logical" name="LPARD"> F  </i>
   <i type="logical" name="LVTOT"> F  </i>
   <i type="logical" name="LVHAR"> F  </i>
   <i type="logical" name="LELF"> F  </i>
   <i type="logical" name="LOPTICS"> F  </i>
   <v name="STM">      0.00000000      0.00000000      0.00000000      0.00000000      0.00000000      0.00000000      0.00000000</v>
  </separator>
  <separator name="performance" >
   <i type="int" name="NPAR">     4</i>
   <i type="int" name="NSIM">     4</i>
   <i type="int" name="NBLK">    -1</i>
   <i type="logical" name="LPLANE"> T  </i>
   <i type="logical" name="LSCALAPACK"> T  </i>
   <i type="logical" name="LSCAAWARE"> F  </i>
   <i type="logical" name="LSCALU"> F  </i>
   <i type="logical" name="LASYNC"> F  </i>
   <i type="logical" name="LORBITALREAL"> F  </i>
  </separator>
  <separator name="miscellaneous" >
   <i type="int" name="IDIOT">     3</i>
   <i type="int" name="PHON_NSTRUCT">    -1</i>
   <i type="logical" name="LMUSIC"> F  </i>
   <v name="POMASS">    238.02900000    208.98000000    195.08000000</v>
   <v name="DARWINR">      0.00000000      0.00000000      0.00000000</v>
   <v name="DARWINV">      1.00000000      1.00000000      1.00000000</v>
   <i type="logical" name="LCORR"> T  </i>
  </separator>
  <i type="logical" name="GGA_COMPAT"> T  </i>
  <i type="logical" name="LBERRY"> F  </i>
  <i type="int" name="ICORELEVEL">     0</i>
  <i type="logical" name="LDAU"> F  </i>
  <i type="int" name="I_CONSTRAINED_M">     0</i>
  <separator name="electronic exchange-correlation" >
   <i type="string" name="GGA">PS</i>
   <i type="int" name="VOSKOWN">     0</i>
   <i type="logical" name="LHFCALC"> F  </i>
   <i type="string" name="PRECFOCK"></i>
   <i type="logical" name="LSYMGRAD"> F  </i>
   <i type="logical" name="LHFONE"> F  </i>
   <i type="logical" name="LRHFCALC"> F  </i>
   <i type="logical" name="LTHOMAS"> F  </i>
   <i type="logical" name="LMODELHF"> F  </i>
   <i type="logical" name="LFOCKACE"> F  </i>
   <i name="ENCUT4O">     -1.00000000</i>
   <i type="int" name="EXXOEP">     0</i>
   <i type="int" name="FOURORBIT">     0</i>
   <i name="AEXX">      0.00000000</i>
   <i name="HFALPHA">      0.00000000</i>
   <i name="MCALPHA">      0.00000000</i>
   <i name="ALDAX">      1.00000000</i>
   <i name="AGGAX">      1.00000000</i>
   <i name="ALDAC">      1.00000000</i>
   <i name="AGGAC">      1.00000000</i>
   <i type="int" name="NKREDX">     1</i>
   <i type="int" name="NKREDY">     1</i>
   <i type="int" name="NKREDZ">     1</i>
   <i type="logical" name="SHIFTRED"> F  </i>
   <i type="logical" name="ODDONLY"> F  </i>
   <i type="logical" name="EVENONLY"> F  </i>
   <i type="int" name="LMAXFOCK">     0</i>
   <i type="int" name="NMAXFOCKAE">     0</i>
   <i type="logical" name="LFOCKAEDFT"> F  </i>
   <i name="HFSCREEN">      0.00000000</i>
   <i name="HFSCREENC">      0.00000000</i>
   <i type="int" name="NBANDSGWLOW">     0</i>
  </separator>
  <separator name="vdW DFT" >
   <i type="logical" name="LUSE_VDW"> F  </i>
   <i name="Zab_VDW">     -0.84910000</i>
   <i name="PARAM1">      0.12340000</i>
   <i name="PARAM2">      1.00000000</i>
   <i name="PARAM3">      0.00000000</i>
  </separator>
  <separator name="model GW" >
   <i type="int" name="MODEL_GW">     0</i>
   <i name="MODEL_EPS0">     13.43804178</i>
   <i name="MODEL_ALPHA">      1.00000000</i>
  </separator>
  <separator name="linear response parameters" >
   <i type="logical" name="LEPSILON"> F  </i>
   <i type="logical" name="LRPA"> F  </i>
   <i type="logical" name="LNABLA"> F  </i>
   <i type="logical" name="LVEL"> F  </i>
   <i type="int" name="KINTER">     0</i>
   <i name="CSHIFT">      0.10000000</i>
   <i name="OMEGAMAX">     -1.00000000</i>
   <i name="DEG_THRESHOLD">      0.00200000</i>
   <i name="RTIME">     -0.10000000</i>
   <i name="WPLASMAI">      0.00000000</i>
   <v name="DFIELD">      0.00000000      0.00000000      0.00000000</v>
   <v name="WPLASMA">      0.00000000      0.00000000      0.00000000      0.00000000      0.00000000      0.00000000      0.00000000      0.00000000      0.00000000</v>
  </separator>
  <separator name="orbital magnetization" >
   <i type="logical" name="NUCIND"> F  </i>
   <v name="MAGPOS">      0.00000000      0.00000000      0.00000000</v>
   <i type="logical" name="LNICSALL"> T  </i>
   <i type="logical" name="ORBITALMAG"> F  </i>
   <i type="logical" name="LMAGBLOCH"> F  </i>
   <i type="logical" name="LCHIMAG"> F  </i>
   <i type="logical" name="LGAUGE"> T  </i>
   <i type="int" name="MAGATOM">     0</i>
   <v name="MAGDIPOL">      0.00000000      0.00000000      0.00000000</v>
   <v name="AVECCONST">      0.00000000      0.00000000      0.00000000</v>
  </separator>
  <separator name="response functions" >
   <i type="logical" name="LFINITE_TEMPERATURE"> F  </i>
   <i type="logical" name="LADDER"> F  </i>
   <i type="logical" name="LRPAFORCE"> F  </i>
   <i type="logical" name="LFXC"> F  </i>
   <i type="logical" name="LHARTREE"> T  </i>
   <i type="int" name="IBSE">     0</i>
   <v type="int" name="KPOINT">    -1     0     0     0</v>
   <i type="logical" name="LTCTC"> F  </i>
   <i type="logical" name="LTCTE"> F  </i>
   <i type="logical" name="LTETE"> F  </i>
   <i type="logical" name="LTRIPLET"> F  </i>
   <i type="logical" name="LFXCEPS"> F  </i>
   <i type="logical" name="LFXHEG"> F  </i>
   <i type="int" name="NATURALO">     2</i>
   <i type="logical" name="L2ORDER"> F  </i>
   <i type="logical" name="LDMP1"> F  </i>
   <i type="logical" name="LMP2LT"> F  </i>
   <i type="logical" name="LSMP2LT"> F  </i>
   <i type="logical" name="LUSEW"> F  </i>
   <i name="ENCUTGW">     -2.00000000</i>
   <i name="ENCUTGWSOFT">     -2.00000000</i>
   <i name="ENCUTLF">     -1.00000000</i>
   <i type="int" name="LMAXMP2">    -1</i>
   <i name="SCISSOR">      0.00000000</i>
   <i type="int" name="NOMEGA">     0</i>
   <i type="int" name="NOMEGAR">     0</i>
   <i type="int" name="NBANDSGW">    -1</i>
   <i type="int" name="NBANDSO">    -1</i>
   <i type="int" name="NBANDSV">    -1</i>
   <i type="int" name="NELM">     1</i>
   <i type="int" name="NELMHF">     1</i>
   <i type="int" name="DIM">     3</i>
   <i type="int" name="IESPILON">     4</i>
   <i type="int" name="ANTIRES">     0</i>
   <i name="OMEGAMAX">    -30.00000000</i>
   <i name="OMEGAMIN">    -30.00000000</i>
   <i name="OMEGATL">   -200.00000000</i>
   <i type="int" name="OMEGAGRID">   145</i>
   <i name="CSHIFT">     -0.10000000</i>
   <i type="logical" name="LSELFENERGY"> F  </i>
   <i type="logical" name="LSPECTRAL"> F  </i>
   <i type="logical" name="LSPECTRALGW"> F  </i>
   <i type="logical" name="LSINGLES"> F  </i>
   <i type="logical" name="LFERMIGW"> F  </i>
   <i type="logical" name="ODDONLYGW"> F  </i>
   <i type="logical" name="EVENONLYGW"> F  </i>
   <i type="int" name="NKREDLFX">     1</i>
   <i type="int" name="NKREDLFY">     1</i>
   <i type="int" name="NKREDLFZ">     1</i>
   <i type="int" name="MAXMEM">  2800</i>
   <i type="int" name="TELESCOPE">     0</i>
   <i type="int" name="NTAUPAR">     1</i>
   <i type="int" name="NOMEGAPAR">    -1</i>
   <i name="LAMBDA">      1.00000000</i>
  </separator>
  <separator name="External order field" >
   <i name="OFIELD_KAPPA">      0.00000000</i>
   <v name="OFIELD_K">      0.00000000      0.00000000      0.00000000</v>
   <i name="OFIELD_Q6_NEAR">      0.00000000</i>
   <i name="OFIELD_Q6_FAR">      0.00000000</i>
   <i name="OFIELD_A">      0.00000000</i>
  </separator>
 </parameters>
 <atominfo>
  <atoms>       3 </atoms>
  <types>       3 </types>
  <array name="atoms" >
   <dimension dim="1">ion</dimension>
   <field type="string">element</field>
   <field type="int">atomtype</field>
   <set>
    <rc><c>U </c><c>   1</c></rc>
    <rc><c>Bi</c><c>   2</c></rc>
    <rc><c>Pt</c><c>   3</c></rc>
   </set>
  </array>
  <array name="atomtypes" >
   <dimension dim="1">type</dimension>
   <field type="int">atomspertype</field>
   <field type="string">element</field>
   <field>mass</field>
   <field>valence</field>
   <field type="string">pseudopotential</field>
   <set>
    <rc><c>   1</c><c>U </c><c>    238.02900000</c><c>     14.00000000</c><c>  PAW_PBE U 06Sep2000                   </c></rc>
    <rc><c>   1</c><c>Bi</c><c>    208.98000000</c><c>     15.00000000</c><c>  PAW_PBE Bi_d 06Sep2000                </c></rc>
    <rc><c>   1</c><c>Pt</c><c>    195.08000000</c><c>     10.00000000</c><c>  PAW_PBE Pt 04Feb2005                  </c></rc>
   </set>
  </array>
 </atominfo>
 <structure name="initialpos" >
  <crystal>
   <varray name="basis" >
    <v>       0.00000000       3.22670057       3.22670057 </v>
    <v>       3.22670057       0.00000000       3.22670057 </v>
    <v>       3.22670057       3.22670057       0.00000000 </v>
   </varray>
   <i name="volume">     67.19020891 </i>
   <varray name="rec_basis" >
    <v>      -0.15495705       0.15495705       0.15495705 </v>
    <v>       0.15495705      -0.15495705       0.15495705 </v>
    <v>       0.15495705       0.15495705      -0.15495705 </v>
   </varray>
  </crystal>
  <varray name="positions" >
   <v>       0.25000000       0.25000000       0.25000000 </v>
   <v>       0.75000000       0.75000000       0.75000000 </v>
   <v>       0.00000000       0.00000000       0.00000000 </v>
  </varray>
 </structure>
 <calculation>
  <scstep>
   <time name="dav">    1.42    1.42</time>
   <time name="total">    1.56    1.63</time>
   <energy>
    <i name="alphaZ">    234.03387081 </i>
    <i name="ewald">  -3694.58197187 </i>
    <i name="hartreedc">   -742.08638029 </i>
    <i name="XCdc">     91.40452409 </i>
    <i name="pawpsdc">   3513.29252893 </i>
    <i name="pawaedc">  -3436.88002192 </i>
    <i name="eentropy">     -0.00012287 </i>
    <i name="bandstr">    372.47790014 </i>
    <i name="atom">   4095.35208632 </i>
    <i name="e_fr_energy">    433.01241334 </i>
    <i name="e_wo_entrp">    433.01253621 </i>
    <i name="e_0_energy">    433.01247478 </i>
   </energy>
  </scstep>
  <scstep>
   <time name="dav">    1.46    1.49</time>
   <time name="total">    1.47    1.49</time>
   <energy>
    <i name="e_fr_energy">     31.64415292 </i>
    <i name="e_wo_entrp">     31.64455032 </i>
    <i name="e_0_energy">     31.64435162 </i>
   </energy>
  </scstep>
  <scstep>
   <time name="dav">    1.65    1.68</time>
   <time name="total">    1.65    1.68</time>
   <energy>
    <i name="e_fr_energy">    -20.46923900 </i>
    <i name="e_wo_entrp">    -20.46851458 </i>
    <i name="e_0_energy">    -20.46887679 </i>
   </energy>
  </scstep>
  <scstep>
   <time name="dav">    2.27    2.30</time>
   <time name="total">    2.27    2.30</time>
   <energy>
    <i name="e_fr_energy">    -25.82379634 </i>
    <i name="e_wo_entrp">    -25.82294357 </i>
    <i name="e_0_energy">    -25.82336995 </i>
   </energy>
  </scstep>
  <scstep>
   <time name="dav">    1.74    1.77</time>
   <time name="total">    2.08    2.11</time>
   <energy>
    <i name="e_fr_energy">    -25.99747731 </i>
    <i name="e_wo_entrp">    -25.99666526 </i>
    <i name="e_0_energy">    -25.99707129 </i>
   </energy>
  </scstep>
  <scstep>
   <time name="dav">    1.92    1.92</time>
   <time name="total">    2.35    2.38</time>
   <energy>
    <i name="e_fr_energy">    -31.67489537 </i>
    <i name="e_wo_entrp">    -31.67475989 </i>
    <i name="e_0_energy">    -31.67482763 </i>
   </energy>
  </scstep>
  <scstep>
   <time name="dav">    1.85    1.85</time>
   <time name="total">    2.26    2.29</time>
   <energy>
    <i name="e_fr_energy">    -24.19642301 </i>
    <i name="e_wo_entrp">    -24.19573396 </i>
    <i name="e_0_energy">    -24.19607848 </i>
   </energy>
  </scstep>
  <scstep>
   <time name="dav">    1.88    1.88</time>
   <time name="total">    2.31    2.35</time>
   <energy>
    <i name="e_fr_energy">    -24.17175171 </i>
    <i name="e_wo_entrp">    -24.17053365 </i>
    <i name="e_0_energy">    -24.17114268 </i>
   </energy>
  </scstep>
  <scstep>
   <time name="dav">    1.90    1.94</time>
   <time name="total">    2.32    2.38</time>
   <energy>
    <i name="e_fr_energy">    -23.55773674 </i>
    <i name="e_wo_entrp">    -23.55626643 </i>
    <i name="e_0_energy">    -23.55700158 </i>
   </energy>
  </scstep>
  <scstep>
   <time name="dav">    1.95    1.95</time>
   <time name="total">    2.40    2.46</time>
   <energy>
    <i name="e_fr_energy">    -23.56778767 </i>
    <i name="e_wo_entrp">    -23.56629104 </i>
    <i name="e_0_energy">    -23.56703936 </i>
   </energy>
  </scstep>
  <scstep>
   <time name="dav">    1.92    1.92</time>
   <time name="total">    2.37    2.42</time>
   <energy>
    <i name="e_fr_energy">    -23.55640843 </i>
    <i name="e_wo_entrp">    -23.55489841 </i>
    <i name="e_0_energy">    -23.55565342 </i>
   </energy>
  </scstep>
  <scstep>
   <time name="dav">    2.07    2.07</time>
   <time name="total">    2.49    2.52</time>
   <energy>
    <i name="e_fr_energy">    -23.55625773 </i>
    <i name="e_wo_entrp">    -23.55474287 </i>
    <i name="e_0_energy">    -23.55550030 </i>
   </energy>
  </scstep>
  <scstep>
   <time name="dav">    1.94    1.94</time>
   <time name="total">    2.36    2.38</time>
   <energy>
    <i name="e_fr_energy">    -23.55625376 </i>
    <i name="e_wo_entrp">    -23.55474086 </i>
    <i name="e_0_energy">    -23.55549731 </i>
   </energy>
  </scstep>
  <scstep>
   <time name="dav">    1.85    1.85</time>
   <time name="total">    2.30    2.33</time>
   <energy>
    <i name="e_fr_energy">    -23.55622510 </i>
    <i name="e_wo_entrp">    -23.55470411 </i>
    <i name="e_0_energy">    -23.55546461 </i>
   </energy>
  </scstep>
  <scstep>
   <time name="dav">    1.93    1.93</time>
   <time name="total">    2.38    2.43</time>
   <energy>
    <i name="e_fr_energy">    -23.55622160 </i>
    <i name="e_wo_entrp">    -23.55470272 </i>
    <i name="e_0_energy">    -23.55546216 </i>
   </energy>
  </scstep>
  <scstep>
   <time name="dav">    1.93    1.93</time>
   <time name="total">    2.37    2.41</time>
   <energy>
    <i name="e_fr_energy">    -23.55622137 </i>
    <i name="e_wo_entrp">    -23.55470214 </i>
    <i name="e_0_energy">    -23.55546175 </i>
   </energy>
  </scstep>
  <scstep>
   <time name="dav">    1.55    1.55</time>
   <time name="total">    1.68    1.72</time>
   <energy>
    <i name="alphaZ">    234.03387081 </i>
    <i name="ewald">  -3694.58197187 </i>
    <i name="hartreedc">   -725.96251038 </i>
    <i name="XCdc">     90.92707337 </i>
    <i name="pawpsdc">   4438.29150792 </i>
    <i name="pawaedc">  -4372.69905030 </i>
    <i name="eentropy">     -0.00151942 </i>
    <i name="bandstr">    -88.91570775 </i>
    <i name="atom">   4095.35208632 </i>
    <i name="e_fr_energy">    -23.55622130 </i>
    <i name="e_wo_entrp">    -23.55470188 </i>
    <i name="e_0_energy">    -23.55546159 </i>
   </energy>
  </scstep>
  <structure>
   <crystal>
    <varray name="basis" >
     <v>       0.00000000       3.22670057       3.22670057 </v>
     <v>       3.22670057       0.00000000       3.22670057 </v>
     <v>       3.22670057       3.22670057       0.00000000 </v>
    </varray>
    <i name="volume">     67.19020891 </i>
    <varray name="rec_basis" >
     <v>      -0.15495705       0.15495705       0.15495705 </v>
     <v>       0.15495705      -0.15495705       0.15495705 </v>
     <v>       0.15495705       0.15495705      -0.15495705 </v>
    </varray>
   </crystal>
   <varray name="positions" >
    <v>       0.25000000       0.25000000       0.25000000 </v>
    <v>       0.75000000       0.75000000       0.75000000 </v>
    <v>       0.00000000       0.00000000       0.00000000 </v>
   </varray>
  </structure>
  <varray name="forces" >
   <v>       0.00000000       0.00000000       0.00000000 </v>
   <v>      -0.00000000       0.00000000       0.00000000 </v>
   <v>       0.00000000      -0.00000000      -0.00000000 </v>
  </varray>
  <varray name="stress" >
   <v>     125.54250560       0.00000000      -0.00000000 </v>
   <v>       0.00000000     125.54250560       0.00000000 </v>
   <v>      -0.00000000       0.00000000     125.54250560 </v>
  </varray>
  <energy>
   <i name="e_fr_energy">    -23.55622130 </i>
   <i name="e_wo_entrp">    -23.55546159 </i>
   <i name="e_0_energy">     -0.00151942 </i>
  </energy>
  <time name="totalsc">   40.28   41.66</time>
  <eigenvalues>
   <array>
    <dimension dim="1">band</dimension>
    <dimension dim="2">kpoint</dimension>
    <dimension dim="3">spin</dimension>
    <field>eigene</field>
    <field>occ</field>
    <set>
     <set comment="spin 1">
      <set comment="kpoint 1">
       <r>  -32.7653    1.0000 </r>
       <r>  -11.7949    1.0000 </r>
       <r>  -11.7949    1.0000 </r>
       <r>  -11.7605    1.0000 </r>
       <r>  -11.7605    1.0000 </r>
       <r>  -11.7605    1.0000 </r>
       <r>   -8.1505    1.0000 </r>
       <r>   -8.1505    1.0000 </r>
       <r>   -8.1505    1.0000 </r>
       <r>   -1.7590    1.0000 </r>
       <r>    6.2848    1.0000 </r>
       <r>    6.2848    1.0000 </r>
       <r>    6.2848    1.0000 </r>
       <r>    6.4446    1.0000 </r>
       <r>    6.4446    1.0000 </r>
       <r>    9.9137    1.0000 </r>
       <r>    9.9569    1.0000 </r>
       <r>    9.9569    1.0000 </r>
       <r>    9.9569    1.0000 </r>
       <r>   11.1614    1.0000 </r>
       <r>   11.1614    1.0000 </r>
       <r>   11.1614    1.0000 </r>
       <r>   11.5806    0.0000 </r>
       <r>   11.5806    0.0000 </r>
      </set>
      <set comment="kpoint 2">
       <r>  -32.7648    1.0000 </r>
       <r>  -11.7975    1.0000 </r>
       <r>  -11.7975    1.0000 </r>
       <r>  -11.7610    1.0000 </r>
       <r>  -11.7602    1.0000 </r>
       <r>  -11.7602    1.0000 </r>
       <r>   -8.1728    1.0000 </r>
       <r>   -8.1447    1.0000 </r>
       <r>   -8.1447    1.0000 </r>
       <r>   -1.6726    1.0000 </r>
       <r>    6.1046    1.0000 </r>
       <r>    6.1046    1.0000 </r>
       <r>    6.1574    1.0000 </r>
       <r>    6.6141    1.0000 </r>
       <r>    6.6141    1.0000 </r>
       <r>    9.2522    1.0000 </r>
       <r>    9.8915    1.0000 </r>
       <r>    9.8915    1.0000 </r>
       <r>   10.3677    1.0000 </r>
       <r>   11.1713    1.0000 </r>
       <r>   11.1713    1.0000 </r>
       <r>   11.2191    1.0000 </r>
       <r>   11.6496    0.0000 </r>
       <r>   11.6501    0.0000 </r>
      </set>
      <set comment="kpoint 3">
       <r>  -32.7636    1.0000 </r>
       <r>  -11.8046    1.0000 </r>
       <r>  -11.8046    1.0000 </r>
       <r>  -11.7624    1.0000 </r>
       <r>  -11.7593    1.0000 </r>
       <r>  -11.7593    1.0000 </r>
       <r>   -8.2315    1.0000 </r>
       <r>   -8.1287    1.0000 </r>
       <r>   -8.1287    1.0000 </r>
       <r>   -1.4331    1.0000 </r>
       <r>    5.8272    1.0000 </r>
       <r>    5.8954    1.0000 </r>
       <r>    5.8954    1.0000 </r>
       <r>    6.7782    1.0000 </r>
       <r>    6.7782    1.0000 </r>
       <r>    8.5404    1.0000 </r>
       <r>    9.7563    1.0000 </r>
       <r>    9.7563    1.0000 </r>
       <r>   10.4067    1.0000 </r>
       <r>   11.1949    1.0000 </r>
       <r>   11.1949    1.0000 </r>
       <r>   11.4823    0.0000 </r>
       <r>   11.7863    0.0000 </r>
       <r>   11.7995    0.0000 </r>
      </set>
      <set comment="kpoint 4">
       <r>  -32.7618    1.0000 </r>
       <r>  -11.8145    1.0000 </r>
       <r>  -11.8145    1.0000 </r>
       <r>  -11.7650    1.0000 </r>
       <r>  -11.7581    1.0000 </r>
       <r>  -11.7581    1.0000 </r>
       <r>   -8.3071    1.0000 </r>
       <r>   -8.1063    1.0000 </r>
       <r>   -8.1063    1.0000 </r>
       <r>   -1.0939    1.0000 </r>
       <r>    5.4078    1.0000 </r>
       <r>    5.7418    1.0000 </r>
       <r>    5.7418    1.0000 </r>
       <r>    6.8294    1.0000 </r>
       <r>    6.8294    1.0000 </r>
       <r>    7.9108    1.0000 </r>
       <r>    9.6516    1.0000 </r>
       <r>    9.6516    1.0000 </r>
       <r>   10.3822    1.0000 </r>
       <r>   11.2296    1.0000 </r>
       <r>   11.2296    1.0000 </r>
       <r>   11.5922    0.0000 </r>
       <r>   11.6519    0.0000 </r>
       <r>   11.9021    0.0000 </r>
      </set>
      <set comment="kpoint 5">
       <r>  -32.7599    1.0000 </r>
       <r>  -11.8250    1.0000 </r>
       <r>  -11.8250    1.0000 </r>
       <r>  -11.7682    1.0000 </r>
       <r>  -11.7567    1.0000 </r>
       <r>  -11.7567    1.0000 </r>
       <r>   -8.3793    1.0000 </r>
       <r>   -8.0827    1.0000 </r>
       <r>   -8.0827    1.0000 </r>
       <r>   -0.7309    1.0000 </r>
       <r>    5.0106    1.0000 </r>
       <r>    5.6582    1.0000 </r>
       <r>    5.6582    1.0000 </r>
       <r>    6.7590    1.0000 </r>
       <r>    6.7590    1.0000 </r>
       <r>    7.4213    1.0000 </r>
       <r>    9.6207    1.0000 </r>
       <r>    9.6207    1.0000 </r>
       <r>   10.4158    1.0000 </r>
       <r>   11.2773    0.7979 </r>
       <r>   11.2773    0.7979 </r>
       <r>   11.5984    0.0000 </r>
       <r>   11.7415    0.0000 </r>
       <r>   11.8843    0.0000 </r>
      </set>
      <set comment="kpoint 6">
       <r>  -32.7584    1.0000 </r>
       <r>  -11.8336    1.0000 </r>
       <r>  -11.8336    1.0000 </r>
       <r>  -11.7713    1.0000 </r>
       <r>  -11.7556    1.0000 </r>
       <r>  -11.7556    1.0000 </r>
       <r>   -8.4334    1.0000 </r>
       <r>   -8.0633    1.0000 </r>
       <r>   -8.0633    1.0000 </r>
       <r>   -0.4276    1.0000 </r>
       <r>    4.7153    1.0000 </r>
       <r>    5.6380    1.0000 </r>
       <r>    5.6380    1.0000 </r>
       <r>    6.6242    1.0000 </r>
       <r>    6.6242    1.0000 </r>
       <r>    7.0921    1.0000 </r>
       <r>    9.6395    1.0000 </r>
       <r>    9.6395    1.0000 </r>
       <r>   10.4982    1.0000 </r>
       <r>   11.3369    0.0000 </r>
       <r>   11.3369    0.0000 </r>
       <r>   11.6036    0.0000 </r>
       <r>   11.7968    0.0000 </r>
       <r>   11.8054    0.0000 </r>
      </set>
      <set comment="kpoint 7">
       <r>  -32.7575    1.0000 </r>
       <r>  -11.8384    1.0000 </r>
       <r>  -11.8384    1.0000 </r>
       <r>  -11.7733    1.0000 </r>
       <r>  -11.7550    1.0000 </r>
       <r>  -11.7550    1.0000 </r>
       <r>   -8.4619    1.0000 </r>
       <r>   -8.0524    1.0000 </r>
       <r>   -8.0524    1.0000 </r>
       <r>   -0.2557    1.0000 </r>
       <r>    4.5622    1.0000 </r>
       <r>    5.6496    1.0000 </r>
       <r>    5.6496    1.0000 </r>
       <r>    6.5172    1.0000 </r>
       <r>    6.5172    1.0000 </r>
       <r>    6.9272    1.0000 </r>
       <r>    9.6629    1.0000 </r>
       <r>    9.6629    1.0000 </r>
       <r>   10.5737    1.0000 </r>
       <r>   11.3905    0.0000 </r>
       <r>   11.3905    0.0000 </r>
       <r>   11.6065    0.0000 </r>
       <r>   11.7174    0.0000 </r>
       <r>   11.7174    0.0000 </r>
      </set>
      <set comment="kpoint 8">
       <r>  -32.7647    1.0000 </r>
       <r>  -11.8019    1.0000 </r>
       <r>  -11.7943    1.0000 </r>
       <r>  -11.7612    1.0000 </r>
       <r>  -11.7600    1.0000 </r>
       <r>  -11.7600    1.0000 </r>
       <r>   -8.1620    1.0000 </r>
       <r>   -8.1521    1.0000 </r>
       <r>   -8.1521    1.0000 </r>
       <r>   -1.6458    1.0000 </r>
       <r>    5.8215    1.0000 </r>
       <r>    6.2972    1.0000 </r>
       <r>    6.2972    1.0000 </r>
       <r>    6.4588    1.0000 </r>
       <r>    6.6750    1.0000 </r>
       <r>    9.2443    1.0000 </r>
       <r>    9.7838    1.0000 </r>
       <r>    9.7838    1.0000 </r>
       <r>   10.5087    1.0000 </r>
       <r>   11.1295    1.0000 </r>
       <r>   11.2098    1.0000 </r>
       <r>   11.2098    1.0000 </r>
       <r>   11.5934    0.0000 </r>
       <r>   11.6671    0.0000 </r>
      </set>
      <set comment="kpoint 9">
       <r>  -32.7637    1.0000 </r>
       <r>  -11.8097    1.0000 </r>
       <r>  -11.7964    1.0000 </r>
       <r>  -11.7623    1.0000 </r>
       <r>  -11.7595    1.0000 </r>
       <r>  -11.7593    1.0000 </r>
       <r>   -8.2069    1.0000 </r>
       <r>   -8.1478    1.0000 </r>
       <r>   -8.1343    1.0000 </r>
       <r>   -1.4633    1.0000 </r>
       <r>    5.5185    1.0000 </r>
       <r>    6.1550    1.0000 </r>
       <r>    6.1581    1.0000 </r>
       <r>    6.6019    1.0000 </r>
       <r>    6.8022    1.0000 </r>
       <r>    8.7539    1.0000 </r>
       <r>    9.6373    1.0000 </r>
       <r>    9.6439    1.0000 </r>
       <r>   10.5694    1.0000 </r>
       <r>   11.1625    1.0000 </r>
       <r>   11.2329    1.0000 </r>
       <r>   11.3915    0.0000 </r>
       <r>   11.6004    0.0000 </r>
       <r>   11.7771    0.0000 </r>
      </set>
      <set comment="kpoint 10">
       <r>  -32.7621    1.0000 </r>
       <r>  -11.8191    1.0000 </r>
       <r>  -11.8033    1.0000 </r>
       <r>  -11.7643    1.0000 </r>
       <r>  -11.7586    1.0000 </r>
       <r>  -11.7580    1.0000 </r>
       <r>   -8.2775    1.0000 </r>
       <r>   -8.1329    1.0000 </r>
       <r>   -8.1097    1.0000 </r>
       <r>   -1.1682    1.0000 </r>
       <r>    5.2360    1.0000 </r>
       <r>    5.8862    1.0000 </r>
       <r>    5.9955    1.0000 </r>
       <r>    6.6921    1.0000 </r>
       <r>    6.9033    1.0000 </r>
       <r>    8.1618    1.0000 </r>
       <r>    9.5061    1.0000 </r>
       <r>    9.5434    1.0000 </r>
       <r>   10.5388    1.0000 </r>
       <r>   11.2016    1.0000 </r>
       <r>   11.2503    1.0000 </r>
       <r>   11.5946    0.0000 </r>
       <r>   11.6043    0.0000 </r>
       <r>   11.8735    0.0000 </r>
      </set>
      <set comment="kpoint 11">
       <r>  -32.7603    1.0000 </r>
       <r>  -11.8279    1.0000 </r>
       <r>  -11.8132    1.0000 </r>
       <r>  -11.7670    1.0000 </r>
       <r>  -11.7576    1.0000 </r>
       <r>  -11.7566    1.0000 </r>
       <r>   -8.3507    1.0000 </r>
       <r>   -8.1108    1.0000 </r>
       <r>   -8.0869    1.0000 </r>
       <r>   -0.8292    1.0000 </r>
       <r>    4.9793    1.0000 </r>
       <r>    5.6638    1.0000 </r>
       <r>    5.8831    1.0000 </r>
       <r>    6.6598    1.0000 </r>
       <r>    6.8990    1.0000 </r>
       <r>    7.6353    1.0000 </r>
       <r>    9.4390    1.0000 </r>
       <r>    9.5344    1.0000 </r>
       <r>   10.5244    1.0000 </r>
       <r>   11.2608    0.9992 </r>
       <r>   11.2784    0.7513 </r>
       <r>   11.6077    0.0000 </r>
       <r>   11.6914    0.0000 </r>
       <r>   11.8789    0.0000 </r>
      </set>
      <set comment="kpoint 12">
       <r>  -32.7586    1.0000 </r>
       <r>  -11.8342    1.0000 </r>
       <r>  -11.8239    1.0000 </r>
       <r>  -11.7699    1.0000 </r>
       <r>  -11.7565    1.0000 </r>
       <r>  -11.7554    1.0000 </r>
       <r>   -8.4102    1.0000 </r>
       <r>   -8.0868    1.0000 </r>
       <r>   -8.0708    1.0000 </r>
       <r>   -0.5255    1.0000 </r>
       <r>    4.7716    1.0000 </r>
       <r>    5.5650    1.0000 </r>
       <r>    5.8068    1.0000 </r>
       <r>    6.5642    1.0000 </r>
       <r>    6.7976    1.0000 </r>
       <r>    7.2387    1.0000 </r>
       <r>    9.4427    1.0000 </r>
       <r>    9.5752    1.0000 </r>
       <r>   10.5594    1.0000 </r>
       <r>   11.3239    0.0000 </r>
       <r>   11.3270    0.0000 </r>
       <r>   11.6088    0.0000 </r>
       <r>   11.7308    0.0000 </r>
       <r>   11.8371    0.0000 </r>
      </set>
      <set comment="kpoint 13">
       <r>  -32.7575    1.0000 </r>
       <r>  -11.8366    1.0000 </r>
       <r>  -11.8327    1.0000 </r>
       <r>  -11.7722    1.0000 </r>
       <r>  -11.7557    1.0000 </r>
       <r>  -11.7547    1.0000 </r>
       <r>   -8.4464    1.0000 </r>
       <r>   -8.0662    1.0000 </r>
       <r>   -8.0651    1.0000 </r>
       <r>   -0.3257    1.0000 </r>
       <r>    4.6467    1.0000 </r>
       <r>    5.5806    1.0000 </r>
       <r>    5.7269    1.0000 </r>
       <r>    6.5114    1.0000 </r>
       <r>    6.6560    1.0000 </r>
       <r>    7.0022    1.0000 </r>
       <r>    9.4723    1.0000 </r>
       <r>    9.6126    1.0000 </r>
       <r>   10.6212    1.0000 </r>
       <r>   11.3820    0.0000 </r>
       <r>   11.3825    0.0000 </r>
       <r>   11.6033    0.0000 </r>
       <r>   11.7074    0.0000 </r>
       <r>   11.7814    0.0000 </r>
      </set>
      <set comment="kpoint 14">
       <r>  -32.7572    1.0000 </r>
       <r>  -11.8379    1.0000 </r>
       <r>  -11.8346    1.0000 </r>
       <r>  -11.7728    1.0000 </r>
       <r>  -11.7554    1.0000 </r>
       <r>  -11.7547    1.0000 </r>
       <r>   -8.4554    1.0000 </r>
       <r>   -8.0706    1.0000 </r>
       <r>   -8.0536    1.0000 </r>
       <r>   -0.2713    1.0000 </r>
       <r>    4.6151    1.0000 </r>
       <r>    5.6217    1.0000 </r>
       <r>    5.6666    1.0000 </r>
       <r>    6.5446    1.0000 </r>
       <r>    6.5682    1.0000 </r>
       <r>    6.9439    1.0000 </r>
       <r>    9.4793    1.0000 </r>
       <r>    9.6210    1.0000 </r>
       <r>   10.6477    1.0000 </r>
       <r>   11.3889    0.0000 </r>
       <r>   11.4195    0.0000 </r>
       <r>   11.5919    0.0000 </r>
       <r>   11.7144    0.0000 </r>
       <r>   11.7262    0.0000 </r>
      </set>
      <set comment="kpoint 15">
       <r>  -32.7578    1.0000 </r>
       <r>  -11.8383    1.0000 </r>
       <r>  -11.8287    1.0000 </r>
       <r>  -11.7715    1.0000 </r>
       <r>  -11.7556    1.0000 </r>
       <r>  -11.7554    1.0000 </r>
       <r>   -8.4365    1.0000 </r>
       <r>   -8.0860    1.0000 </r>
       <r>   -8.0519    1.0000 </r>
       <r>   -0.3730    1.0000 </r>
       <r>    4.6815    1.0000 </r>
       <r>    5.5271    1.0000 </r>
       <r>    5.7718    1.0000 </r>
       <r>    6.5217    1.0000 </r>
       <r>    6.7088    1.0000 </r>
       <r>    7.0659    1.0000 </r>
       <r>    9.4370    1.0000 </r>
       <r>    9.6085    1.0000 </r>
       <r>   10.6093    1.0000 </r>
       <r>   11.3456    0.0000 </r>
       <r>   11.3860    0.0000 </r>
       <r>   11.5988    0.0000 </r>
       <r>   11.7487    0.0000 </r>
       <r>   11.7682    0.0000 </r>
      </set>
      <set comment="kpoint 16">
       <r>  -32.7591    1.0000 </r>
       <r>  -11.8339    1.0000 </r>
       <r>  -11.8201    1.0000 </r>
       <r>  -11.7688    1.0000 </r>
       <r>  -11.7565    1.0000 </r>
       <r>  -11.7563    1.0000 </r>
       <r>   -8.3918    1.0000 </r>
       <r>   -8.1077    1.0000 </r>
       <r>   -8.0614    1.0000 </r>
       <r>   -0.6120    1.0000 </r>
       <r>    4.8600    1.0000 </r>
       <r>    5.4882    1.0000 </r>
       <r>    5.8761    1.0000 </r>
       <r>    6.5856    1.0000 </r>
       <r>    6.8626    1.0000 </r>
       <r>    7.3561    1.0000 </r>
       <r>    9.3560    1.0000 </r>
       <r>    9.6078    1.0000 </r>
       <r>   10.5518    1.0000 </r>
       <r>   11.2967    0.0284 </r>
       <r>   11.3170    0.0000 </r>
       <r>   11.6041    0.0000 </r>
       <r>   11.7451    0.0000 </r>
       <r>   11.8189    0.0000 </r>
      </set>
      <set comment="kpoint 17">
       <r>  -32.7609    1.0000 </r>
       <r>  -11.8256    1.0000 </r>
       <r>  -11.8105    1.0000 </r>
       <r>  -11.7658    1.0000 </r>
       <r>  -11.7578    1.0000 </r>
       <r>  -11.7575    1.0000 </r>
       <r>   -8.3272    1.0000 </r>
       <r>   -8.1306    1.0000 </r>
       <r>   -8.0801    1.0000 </r>
       <r>   -0.9366    1.0000 </r>
       <r>    5.1460    1.0000 </r>
       <r>    5.5295    1.0000 </r>
       <r>    6.0068    1.0000 </r>
       <r>    6.6526    1.0000 </r>
       <r>    6.9551    1.0000 </r>
       <r>    7.7971    1.0000 </r>
       <r>    9.2911    1.0000 </r>
       <r>    9.6580    1.0000 </r>
       <r>   10.5264    1.0000 </r>
       <r>   11.2485    1.0000 </r>
       <r>   11.2607    0.9993 </r>
       <r>   11.6019    0.0000 </r>
       <r>   11.6776    0.0000 </r>
       <r>   11.8730    0.0000 </r>
      </set>
      <set comment="kpoint 18">
       <r>  -32.7627    1.0000 </r>
       <r>  -11.8152    1.0000 </r>
       <r>  -11.8024    1.0000 </r>
       <r>  -11.7634    1.0000 </r>
       <r>  -11.7590    1.0000 </r>
       <r>  -11.7587    1.0000 </r>
       <r>   -8.2553    1.0000 </r>
       <r>   -8.1485    1.0000 </r>
       <r>   -8.1039    1.0000 </r>
       <r>   -1.2713    1.0000 </r>
       <r>    5.4941    1.0000 </r>
       <r>    5.6561    1.0000 </r>
       <r>    6.1819    1.0000 </r>
       <r>    6.6303    1.0000 </r>
       <r>    6.9365    1.0000 </r>
       <r>    8.3474    1.0000 </r>
       <r>    9.3308    1.0000 </r>
       <r>    9.7679    1.0000 </r>
       <r>   10.5411    1.0000 </r>
       <r>   11.1909    1.0000 </r>
       <r>   11.2358    1.0000 </r>
       <r>   11.5612    0.0000 </r>
       <r>   11.5966    0.0000 </r>
       <r>   11.8402    0.0000 </r>
      </set>
      <set comment="kpoint 19">
       <r>  -32.7641    1.0000 </r>
       <r>  -11.8051    1.0000 </r>
       <r>  -11.7976    1.0000 </r>
       <r>  -11.7617    1.0000 </r>
       <r>  -11.7598    1.0000 </r>
       <r>  -11.7596    1.0000 </r>
       <r>   -8.1972    1.0000 </r>
       <r>   -8.1542    1.0000 </r>
       <r>   -8.1273    1.0000 </r>
       <r>   -1.5373    1.0000 </r>
       <r>    5.8408    1.0000 </r>
       <r>    5.8575    1.0000 </r>
       <r>    6.3083    1.0000 </r>
       <r>    6.5473    1.0000 </r>
       <r>    6.8084    1.0000 </r>
       <r>    8.8871    1.0000 </r>
       <r>    9.5673    1.0000 </r>
       <r>    9.8783    1.0000 </r>
       <r>   10.5242    1.0000 </r>
       <r>   11.1579    1.0000 </r>
       <r>   11.2054    1.0000 </r>
       <r>   11.3609    0.0000 </r>
       <r>   11.5896    0.0000 </r>
       <r>   11.7285    0.0000 </r>
      </set>
      <set comment="kpoint 20">
       <r>  -32.7630    1.0000 </r>
       <r>  -11.8164    1.0000 </r>
       <r>  -11.7926    1.0000 </r>
       <r>  -11.7634    1.0000 </r>
       <r>  -11.7587    1.0000 </r>
       <r>  -11.7587    1.0000 </r>
       <r>   -8.1950    1.0000 </r>
       <r>   -8.1568    1.0000 </r>
       <r>   -8.1568    1.0000 </r>
       <r>   -1.3560    1.0000 </r>
       <r>    5.1904    1.0000 </r>
       <r>    6.3154    1.0000 </r>
       <r>    6.3154    1.0000 </r>
       <r>    6.4986    1.0000 </r>
       <r>    6.7376    1.0000 </r>
       <r>    8.7214    1.0000 </r>
       <r>    9.4936    1.0000 </r>
       <r>    9.4936    1.0000 </r>
       <r>   10.5757    1.0000 </r>
       <r>   11.2613    0.9990 </r>
       <r>   11.2613    0.9990 </r>
       <r>   11.3400    0.0000 </r>
       <r>   11.6321    0.0000 </r>
       <r>   11.8358    0.0000 </r>
      </set>
      <set comment="kpoint 21">
       <r>  -32.7617    1.0000 </r>
       <r>  -11.8229    1.0000 </r>
       <r>  -11.7944    1.0000 </r>
       <r>  -11.7651    1.0000 </r>
       <r>  -11.7579    1.0000 </r>
       <r>  -11.7576    1.0000 </r>
       <r>   -8.2472    1.0000 </r>
       <r>   -8.1537    1.0000 </r>
       <r>   -8.1390    1.0000 </r>
       <r>   -1.1420    1.0000 </r>
       <r>    4.9373    1.0000 </r>
       <r>    6.1565    1.0000 </r>
       <r>    6.2217    1.0000 </r>
       <r>    6.5782    1.0000 </r>
       <r>    6.7992    1.0000 </r>
       <r>    8.4017    1.0000 </r>
       <r>    9.3239    1.0000 </r>
       <r>    9.4107    1.0000 </r>
       <r>   10.6079    1.0000 </r>
       <r>   11.2306    1.0000 </r>
       <r>   11.2769    0.8136 </r>
       <r>   11.5109    0.0000 </r>
       <r>   11.6474    0.0000 </r>
       <r>   11.9034    0.0000 </r>
      </set>
      <set comment="kpoint 22">
       <r>  -32.7601    1.0000 </r>
       <r>  -11.8279    1.0000 </r>
       <r>  -11.8012    1.0000 </r>
       <r>  -11.7669    1.0000 </r>
       <r>  -11.7574    1.0000 </r>
       <r>  -11.7561    1.0000 </r>
       <r>   -8.3156    1.0000 </r>
       <r>   -8.1392    1.0000 </r>
       <r>   -8.1169    1.0000 </r>
       <r>   -0.8789    1.0000 </r>
       <r>    4.7908    1.0000 </r>
       <r>    5.8846    1.0000 </r>
       <r>    6.1038    1.0000 </r>
       <r>    6.5902    1.0000 </r>
       <r>    6.8761    1.0000 </r>
       <r>    7.9635    1.0000 </r>
       <r>    9.1641    1.0000 </r>
       <r>    9.4177    1.0000 </r>
       <r>   10.6564    1.0000 </r>
       <r>   11.2513    1.0000 </r>
       <r>   11.2960    0.0353 </r>
       <r>   11.6111    0.0000 </r>
       <r>   11.6490    0.0000 </r>
       <r>   11.9103    0.0000 </r>
      </set>
      <set comment="kpoint 23">
       <r>  -32.7585    1.0000 </r>
       <r>  -11.8303    1.0000 </r>
       <r>  -11.8113    1.0000 </r>
       <r>  -11.7689    1.0000 </r>
       <r>  -11.7570    1.0000 </r>
       <r>  -11.7548    1.0000 </r>
       <r>   -8.3750    1.0000 </r>
       <r>   -8.1169    1.0000 </r>
       <r>   -8.1041    1.0000 </r>
       <r>   -0.6324    1.0000 </r>
       <r>    4.7572    1.0000 </r>
       <r>    5.6725    1.0000 </r>
       <r>    5.9843    1.0000 </r>
       <r>    6.5489    1.0000 </r>
       <r>    6.8722    1.0000 </r>
       <r>    7.5333    1.0000 </r>
       <r>    9.0964    1.0000 </r>
       <r>    9.4728    1.0000 </r>
       <r>   10.6794    1.0000 </r>
       <r>   11.3118    0.0000 </r>
       <r>   11.3304    0.0000 </r>
       <r>   11.6427    0.0000 </r>
       <r>   11.6523    0.0000 </r>
       <r>   11.8783    0.0000 </r>
      </set>
      <set comment="kpoint 24">
       <r>  -32.7573    1.0000 </r>
       <r>  -11.8296    1.0000 </r>
       <r>  -11.8223    1.0000 </r>
       <r>  -11.7704    1.0000 </r>
       <r>  -11.7569    1.0000 </r>
       <r>  -11.7540    1.0000 </r>
       <r>   -8.4142    1.0000 </r>
       <r>   -8.1036    1.0000 </r>
       <r>   -8.0919    1.0000 </r>
       <r>   -0.4543    1.0000 </r>
       <r>    4.7972    1.0000 </r>
       <r>    5.5805    1.0000 </r>
       <r>    5.8293    1.0000 </r>
       <r>    6.5547    1.0000 </r>
       <r>    6.7900    1.0000 </r>
       <r>    7.2127    1.0000 </r>
       <r>    9.0881    1.0000 </r>
       <r>    9.5150    1.0000 </r>
       <r>   10.7164    1.0000 </r>
       <r>   11.3630    0.0000 </r>
       <r>   11.3838    0.0000 </r>
       <r>   11.6254    0.0000 </r>
       <r>   11.6732    0.0000 </r>
       <r>   11.8503    0.0000 </r>
      </set>
      <set comment="kpoint 25">
       <r>  -32.7568    1.0000 </r>
       <r>  -11.8315    1.0000 </r>
       <r>  -11.8261    1.0000 </r>
       <r>  -11.7709    1.0000 </r>
       <r>  -11.7568    1.0000 </r>
       <r>  -11.7540    1.0000 </r>
       <r>   -8.4285    1.0000 </r>
       <r>   -8.1148    1.0000 </r>
       <r>   -8.0696    1.0000 </r>
       <r>   -0.3704    1.0000 </r>
       <r>    4.8278    1.0000 </r>
       <r>    5.6214    1.0000 </r>
       <r>    5.6497    1.0000 </r>
       <r>    6.6471    1.0000 </r>
       <r>    6.6697    1.0000 </r>
       <r>    7.0810    1.0000 </r>
       <r>    9.0788    1.0000 </r>
       <r>    9.5194    1.0000 </r>
       <r>   10.7544    1.0000 </r>
       <r>   11.3671    0.0000 </r>
       <r>   11.4448    0.0000 </r>
       <r>   11.5898    0.0000 </r>
       <r>   11.7092    0.0000 </r>
       <r>   11.7908    0.0000 </r>
      </set>
      <set comment="kpoint 26">
       <r>  -32.7571    1.0000 </r>
       <r>  -11.8372    1.0000 </r>
       <r>  -11.8207    1.0000 </r>
       <r>  -11.7699    1.0000 </r>
       <r>  -11.7569    1.0000 </r>
       <r>  -11.7546    1.0000 </r>
       <r>   -8.4176    1.0000 </r>
       <r>   -8.1341    1.0000 </r>
       <r>   -8.0552    1.0000 </r>
       <r>   -0.3908    1.0000 </r>
       <r>    4.8117    1.0000 </r>
       <r>    5.4939    1.0000 </r>
       <r>    5.7617    1.0000 </r>
       <r>    6.5730    1.0000 </r>
       <r>    6.7960    1.0000 </r>
       <r>    7.1664    1.0000 </r>
       <r>    9.0188    1.0000 </r>
       <r>    9.5030    1.0000 </r>
       <r>   10.7550    1.0000 </r>
       <r>   11.3324    0.0000 </r>
       <r>   11.4583    0.0000 </r>
       <r>   11.5717    0.0000 </r>
       <r>   11.7471    0.0000 </r>
       <r>   11.7598    0.0000 </r>
      </set>
      <set comment="kpoint 27">
       <r>  -32.7581    1.0000 </r>
       <r>  -11.8380    1.0000 </r>
       <r>  -11.8143    1.0000 </r>
       <r>  -11.7680    1.0000 </r>
       <r>  -11.7571    1.0000 </r>
       <r>  -11.7557    1.0000 </r>
       <r>   -8.3846    1.0000 </r>
       <r>   -8.1554    1.0000 </r>
       <r>   -8.0519    1.0000 </r>
       <r>   -0.5204    1.0000 </r>
       <r>    4.8153    1.0000 </r>
       <r>    5.4014    1.0000 </r>
       <r>    5.9479    1.0000 </r>
       <r>    6.5326    1.0000 </r>
       <r>    6.9465    1.0000 </r>
       <r>    7.4333    1.0000 </r>
       <r>    8.9005    1.0000 </r>
       <r>    9.5057    1.0000 </r>
       <r>   10.7225    1.0000 </r>
       <r>   11.2974    0.0223 </r>
       <r>   11.3927    0.0000 </r>
       <r>   11.5997    0.0000 </r>
       <r>   11.7341    0.0000 </r>
       <r>   11.7800    0.0000 </r>
      </set>
      <set comment="kpoint 28">
       <r>  -32.7596    1.0000 </r>
       <r>  -11.8339    1.0000 </r>
       <r>  -11.8081    1.0000 </r>
       <r>  -11.7660    1.0000 </r>
       <r>  -11.7575    1.0000 </r>
       <r>  -11.7570    1.0000 </r>
       <r>   -8.3366    1.0000 </r>
       <r>   -8.1707    1.0000 </r>
       <r>   -8.0605    1.0000 </r>
       <r>   -0.7458    1.0000 </r>
       <r>    4.9248    1.0000 </r>
       <r>    5.3948    1.0000 </r>
       <r>    6.1438    1.0000 </r>
       <r>    6.5232    1.0000 </r>
       <r>    7.0389    1.0000 </r>
       <r>    7.8157    1.0000 </r>
       <r>    8.7873    1.0000 </r>
       <r>    9.5644    1.0000 </r>
       <r>   10.6852    1.0000 </r>
       <r>   11.2760    0.8475 </r>
       <r>   11.3129    0.0000 </r>
       <r>   11.6125    0.0000 </r>
       <r>   11.6942    0.0000 </r>
       <r>   11.8275    0.0000 </r>
      </set>
      <set comment="kpoint 29">
       <r>  -32.7613    1.0000 </r>
       <r>  -11.8257    1.0000 </r>
       <r>  -11.8037    1.0000 </r>
       <r>  -11.7645    1.0000 </r>
       <r>  -11.7581    1.0000 </r>
       <r>  -11.7580    1.0000 </r>
       <r>   -8.2885    1.0000 </r>
       <r>   -8.1697    1.0000 </r>
       <r>   -8.0793    1.0000 </r>
       <r>   -1.0197    1.0000 </r>
       <r>    5.1646    1.0000 </r>
       <r>    5.4819    1.0000 </r>
       <r>    6.2989    1.0000 </r>
       <r>    6.5050    1.0000 </r>
       <r>    7.0344    1.0000 </r>
       <r>    8.1672    1.0000 </r>
       <r>    8.8769    1.0000 </r>
       <r>    9.6751    1.0000 </r>
       <r>   10.6430    1.0000 </r>
       <r>   11.2386    1.0000 </r>
       <r>   11.2607    0.9993 </r>
       <r>   11.6091    0.0000 </r>
       <r>   11.6368    0.0000 </r>
       <r>   11.8593    0.0000 </r>
      </set>
      <set comment="kpoint 30">
       <r>  -32.7608    1.0000 </r>
       <r>  -11.8250    1.0000 </r>
       <r>  -11.7902    1.0000 </r>
       <r>  -11.7668    1.0000 </r>
       <r>  -11.7567    1.0000 </r>
       <r>  -11.7567    1.0000 </r>
       <r>   -8.2449    1.0000 </r>
       <r>   -8.1639    1.0000 </r>
       <r>   -8.1639    1.0000 </r>
       <r>   -1.0321    1.0000 </r>
       <r>    4.7384    1.0000 </r>
       <r>    6.2975    1.0000 </r>
       <r>    6.2975    1.0000 </r>
       <r>    6.5563    1.0000 </r>
       <r>    6.6176    1.0000 </r>
       <r>    8.3717    1.0000 </r>
       <r>    9.3376    1.0000 </r>
       <r>    9.3376    1.0000 </r>
       <r>   10.5474    1.0000 </r>
       <r>   11.2951    0.0466 </r>
       <r>   11.2951    0.0466 </r>
       <r>   11.4692    0.0000 </r>
       <r>   11.6969    0.0000 </r>
       <r>   11.9743    0.0000 </r>
      </set>
      <set comment="kpoint 31">
       <r>  -32.7595    1.0000 </r>
       <r>  -11.8248    1.0000 </r>
       <r>  -11.7919    1.0000 </r>
       <r>  -11.7685    1.0000 </r>
       <r>  -11.7558    1.0000 </r>
       <r>  -11.7553    1.0000 </r>
       <r>   -8.2920    1.0000 </r>
       <r>   -8.1614    1.0000 </r>
       <r>   -8.1551    1.0000 </r>
       <r>   -0.8788    1.0000 </r>
       <r>    4.6850    1.0000 </r>
       <r>    6.1002    1.0000 </r>
       <r>    6.2278    1.0000 </r>
       <r>    6.5839    1.0000 </r>
       <r>    6.6668    1.0000 </r>
       <r>    8.1496    1.0000 </r>
       <r>    9.1930    1.0000 </r>
       <r>    9.3552    1.0000 </r>
       <r>   10.6525    1.0000 </r>
       <r>   11.2784    0.7504 </r>
       <r>   11.3125    0.0000 </r>
       <r>   11.5237    0.0000 </r>
       <r>   11.7192    0.0000 </r>
       <r>   11.9805    0.0000 </r>
      </set>
      <set comment="kpoint 32">
       <r>  -32.7581    1.0000 </r>
       <r>  -11.8223    1.0000 </r>
       <r>  -11.7989    1.0000 </r>
       <r>  -11.7698    1.0000 </r>
       <r>  -11.7557    1.0000 </r>
       <r>  -11.7539    1.0000 </r>
       <r>   -8.3439    1.0000 </r>
       <r>   -8.1469    1.0000 </r>
       <r>   -8.1467    1.0000 </r>
       <r>   -0.7265    1.0000 </r>
       <r>    4.7822    1.0000 </r>
       <r>    5.8419    1.0000 </r>
       <r>    6.1042    1.0000 </r>
       <r>    6.5885    1.0000 </r>
       <r>    6.7610    1.0000 </r>
       <r>    7.8305    1.0000 </r>
       <r>    8.9688    1.0000 </r>
       <r>    9.4179    1.0000 </r>
       <r>   10.7678    1.0000 </r>
       <r>   11.2904    0.1548 </r>
       <r>   11.3402    0.0000 </r>
       <r>   11.5719    0.0000 </r>
       <r>   11.7141    0.0000 </r>
       <r>   11.9335    0.0000 </r>
      </set>
      <set comment="kpoint 33">
       <r>  -32.7569    1.0000 </r>
       <r>  -11.8185    1.0000 </r>
       <r>  -11.8093    1.0000 </r>
       <r>  -11.7702    1.0000 </r>
       <r>  -11.7564    1.0000 </r>
       <r>  -11.7530    1.0000 </r>
       <r>   -8.3790    1.0000 </r>
       <r>   -8.1522    1.0000 </r>
       <r>   -8.1233    1.0000 </r>
       <r>   -0.6040    1.0000 </r>
       <r>    4.9794    1.0000 </r>
       <r>    5.6695    1.0000 </r>
       <r>    5.9278    1.0000 </r>
       <r>    6.6270    1.0000 </r>
       <r>    6.7873    1.0000 </r>
       <r>    7.5025    1.0000 </r>
       <r>    8.8039    1.0000 </r>
       <r>    9.4549    1.0000 </r>
       <r>   10.8167    1.0000 </r>
       <r>   11.3294    0.0000 </r>
       <r>   11.3846    0.0000 </r>
       <r>   11.6200    0.0000 </r>
       <r>   11.6881    0.0000 </r>
       <r>   11.8783    0.0000 </r>
      </set>
      <set comment="kpoint 34">
       <r>  -32.7563    1.0000 </r>
       <r>  -11.8206    1.0000 </r>
       <r>  -11.8143    1.0000 </r>
       <r>  -11.7694    1.0000 </r>
       <r>  -11.7577    1.0000 </r>
       <r>  -11.7530    1.0000 </r>
       <r>   -8.3911    1.0000 </r>
       <r>   -8.1705    1.0000 </r>
       <r>   -8.0966    1.0000 </r>
       <r>   -0.5200    1.0000 </r>
       <r>    5.1491    1.0000 </r>
       <r>    5.6080    1.0000 </r>
       <r>    5.7238    1.0000 </r>
       <r>    6.7243    1.0000 </r>
       <r>    6.7263    1.0000 </r>
       <r>    7.3131    1.0000 </r>
       <r>    8.6912    1.0000 </r>
       <r>    9.4403    1.0000 </r>
       <r>   10.8518    1.0000 </r>
       <r>   11.3301    0.0000 </r>
       <r>   11.4424    0.0000 </r>
       <r>   11.6396    0.0000 </r>
       <r>   11.6913    0.0000 </r>
       <r>   11.8340    0.0000 </r>
      </set>
      <set comment="kpoint 35">
       <r>  -32.7563    1.0000 </r>
       <r>  -11.8304    1.0000 </r>
       <r>  -11.8109    1.0000 </r>
       <r>  -11.7675    1.0000 </r>
       <r>  -11.7589    1.0000 </r>
       <r>  -11.7536    1.0000 </r>
       <r>   -8.3818    1.0000 </r>
       <r>   -8.1949    1.0000 </r>
       <r>   -8.0724    1.0000 </r>
       <r>   -0.4784    1.0000 </r>
       <r>    5.1293    1.0000 </r>
       <r>    5.5372    1.0000 </r>
       <r>    5.6731    1.0000 </r>
       <r>    6.6363    1.0000 </r>
       <r>    6.8579    1.0000 </r>
       <r>    7.3636    1.0000 </r>
       <r>    8.5851    1.0000 </r>
       <r>    9.4026    1.0000 </r>
       <r>   10.8727    1.0000 </r>
       <r>   11.2942    0.0594 </r>
       <r>   11.4983    0.0000 </r>
       <r>   11.5761    0.0000 </r>
       <r>   11.7377    0.0000 </r>
       <r>   11.8052    0.0000 </r>
      </set>
      <set comment="kpoint 36">
       <r>  -32.7570    1.0000 </r>
       <r>  -11.8366    1.0000 </r>
       <r>  -11.8087    1.0000 </r>
       <r>  -11.7658    1.0000 </r>
       <r>  -11.7593    1.0000 </r>
       <r>  -11.7546    1.0000 </r>
       <r>   -8.3602    1.0000 </r>
       <r>   -8.2126    1.0000 </r>
       <r>   -8.0563    1.0000 </r>
       <r>   -0.4933    1.0000 </r>
       <r>    4.9696    1.0000 </r>
       <r>    5.4053    1.0000 </r>
       <r>    5.8307    1.0000 </r>
       <r>    6.5783    1.0000 </r>
       <r>    6.9831    1.0000 </r>
       <r>    7.5992    1.0000 </r>
       <r>    8.4639    1.0000 </r>
       <r>    9.3935    1.0000 </r>
       <r>   10.8526    1.0000 </r>
       <r>   11.2687    0.9800 </r>
       <r>   11.4756    0.0000 </r>
       <r>   11.5739    0.0000 </r>
       <r>   11.7295    0.0000 </r>
       <r>   11.7833    0.0000 </r>
      </set>
      <set comment="kpoint 37">
       <r>  -32.7582    1.0000 </r>
       <r>  -11.8379    1.0000 </r>
       <r>  -11.8077    1.0000 </r>
       <r>  -11.7657    1.0000 </r>
       <r>  -11.7584    1.0000 </r>
       <r>  -11.7559    1.0000 </r>
       <r>   -8.3433    1.0000 </r>
       <r>   -8.2054    1.0000 </r>
       <r>   -8.0520    1.0000 </r>
       <r>   -0.5837    1.0000 </r>
       <r>    4.8650    1.0000 </r>
       <r>    5.3534    1.0000 </r>
       <r>    6.0205    1.0000 </r>
       <r>    6.5375    1.0000 </r>
       <r>    7.0517    1.0000 </r>
       <r>    7.8241    1.0000 </r>
       <r>    8.4502    1.0000 </r>
       <r>    9.4516    1.0000 </r>
       <r>   10.7874    1.0000 </r>
       <r>   11.2712    0.9558 </r>
       <r>   11.3958    0.0000 </r>
       <r>   11.6052    0.0000 </r>
       <r>   11.7117    0.0000 </r>
       <r>   11.7912    0.0000 </r>
      </set>
      <set comment="kpoint 38">
       <r>  -32.7585    1.0000 </r>
       <r>  -11.8190    1.0000 </r>
       <r>  -11.7876    1.0000 </r>
       <r>  -11.7704    1.0000 </r>
       <r>  -11.7541    1.0000 </r>
       <r>  -11.7541    1.0000 </r>
       <r>   -8.3041    1.0000 </r>
       <r>   -8.1721    1.0000 </r>
       <r>   -8.1721    1.0000 </r>
       <r>   -0.8456    1.0000 </r>
       <r>    4.7316    1.0000 </r>
       <r>    6.2250    1.0000 </r>
       <r>    6.2250    1.0000 </r>
       <r>    6.4149    1.0000 </r>
       <r>    6.6195    1.0000 </r>
       <r>    8.0541    1.0000 </r>
       <r>    9.3844    1.0000 </r>
       <r>    9.3844    1.0000 </r>
       <r>   10.6356    1.0000 </r>
       <r>   11.3284    0.0000 </r>
       <r>   11.3284    0.0000 </r>
       <r>   11.4608    0.0000 </r>
       <r>   11.7852    0.0000 </r>
       <r>   12.0754    0.0000 </r>
      </set>
      <set comment="kpoint 39">
       <r>  -32.7574    1.0000 </r>
       <r>  -11.8120    1.0000 </r>
       <r>  -11.7895    1.0000 </r>
       <r>  -11.7718    1.0000 </r>
       <r>  -11.7534    1.0000 </r>
       <r>  -11.7528    1.0000 </r>
       <r>   -8.3388    1.0000 </r>
       <r>   -8.1738    1.0000 </r>
       <r>   -8.1692    1.0000 </r>
       <r>   -0.7972    1.0000 </r>
       <r>    4.9300    1.0000 </r>
       <r>    6.0059    1.0000 </r>
       <r>    6.1469    1.0000 </r>
       <r>    6.4978    1.0000 </r>
       <r>    6.6435    1.0000 </r>
       <r>    7.8305    1.0000 </r>
       <r>    9.2686    1.0000 </r>
       <r>    9.4590    1.0000 </r>
       <r>   10.7925    1.0000 </r>
       <r>   11.3080    0.0002 </r>
       <r>   11.3512    0.0000 </r>
       <r>   11.4881    0.0000 </r>
       <r>   11.8102    0.0000 </r>
       <r>   12.0151    0.0000 </r>
      </set>
      <set comment="kpoint 40">
       <r>  -32.7564    1.0000 </r>
       <r>  -11.8056    1.0000 </r>
       <r>  -11.7968    1.0000 </r>
       <r>  -11.7720    1.0000 </r>
       <r>  -11.7540    1.0000 </r>
       <r>  -11.7519    1.0000 </r>
       <r>   -8.3635    1.0000 </r>
       <r>   -8.1847    1.0000 </r>
       <r>   -8.1534    1.0000 </r>
       <r>   -0.7412    1.0000 </r>
       <r>    5.2197    1.0000 </r>
       <r>    5.7994    1.0000 </r>
       <r>    6.0071    1.0000 </r>
       <r>    6.6271    1.0000 </r>
       <r>    6.6845    1.0000 </r>
       <r>    7.5608    1.0000 </r>
       <r>    8.9552    1.0000 </r>
       <r>    9.4934    1.0000 </r>
       <r>   10.9180    1.0000 </r>
       <r>   11.3004    0.0077 </r>
       <r>   11.3859    0.0000 </r>
       <r>   11.5561    0.0000 </r>
       <r>   11.7908    0.0000 </r>
       <r>   11.9153    0.0000 </r>
      </set>
      <set comment="kpoint 41">
       <r>  -32.7558    1.0000 </r>
       <r>  -11.8076    1.0000 </r>
       <r>  -11.8017    1.0000 </r>
       <r>  -11.7705    1.0000 </r>
       <r>  -11.7560    1.0000 </r>
       <r>  -11.7518    1.0000 </r>
       <r>   -8.3653    1.0000 </r>
       <r>   -8.2111    1.0000 </r>
       <r>   -8.1282    1.0000 </r>
       <r>   -0.6760    1.0000 </r>
       <r>    5.4560    1.0000 </r>
       <r>    5.7120    1.0000 </r>
       <r>    5.8258    1.0000 </r>
       <r>    6.6825    1.0000 </r>
       <r>    6.7656    1.0000 </r>
       <r>    7.3701    1.0000 </r>
       <r>    8.6266    1.0000 </r>
       <r>    9.4537    1.0000 </r>
       <r>   10.9522    1.0000 </r>
       <r>   11.2974    0.0225 </r>
       <r>   11.4309    0.0000 </r>
       <r>   11.6563    0.0000 </r>
       <r>   11.7296    0.0000 </r>
       <r>   11.8323    0.0000 </r>
      </set>
      <set comment="kpoint 42">
       <r>  -32.7557    1.0000 </r>
       <r>  -11.8195    1.0000 </r>
       <r>  -11.8013    1.0000 </r>
       <r>  -11.7672    1.0000 </r>
       <r>  -11.7590    1.0000 </r>
       <r>  -11.7524    1.0000 </r>
       <r>   -8.3460    1.0000 </r>
       <r>   -8.2459    1.0000 </r>
       <r>   -8.0994    1.0000 </r>
       <r>   -0.6012    1.0000 </r>
       <r>    5.5225    1.0000 </r>
       <r>    5.6416    1.0000 </r>
       <r>    5.6418    1.0000 </r>
       <r>    6.6455    1.0000 </r>
       <r>    6.8684    1.0000 </r>
       <r>    7.4340    1.0000 </r>
       <r>    8.3653    1.0000 </r>
       <r>    9.3814    1.0000 </r>
       <r>   10.9630    1.0000 </r>
       <r>   11.2638    0.9970 </r>
       <r>   11.4781    0.0000 </r>
       <r>   11.6480    0.0000 </r>
       <r>   11.7304    0.0000 </r>
       <r>   11.8087    0.0000 </r>
      </set>
      <set comment="kpoint 43">
       <r>  -32.7562    1.0000 </r>
       <r>  -11.8300    1.0000 </r>
       <r>  -11.8040    1.0000 </r>
       <r>  -11.7639    1.0000 </r>
       <r>  -11.7617    1.0000 </r>
       <r>  -11.7534    1.0000 </r>
       <r>   -8.3345    1.0000 </r>
       <r>   -8.2566    1.0000 </r>
       <r>   -8.0735    1.0000 </r>
       <r>   -0.5303    1.0000 </r>
       <r>    5.2770    1.0000 </r>
       <r>    5.4919    1.0000 </r>
       <r>    5.6919    1.0000 </r>
       <r>    6.6143    1.0000 </r>
       <r>    6.9535    1.0000 </r>
       <r>    7.6309    1.0000 </r>
       <r>    8.2440    1.0000 </r>
       <r>    9.3465    1.0000 </r>
       <r>   10.9387    1.0000 </r>
       <r>   11.2432    1.0000 </r>
       <r>   11.5156    0.0000 </r>
       <r>   11.5751    0.0000 </r>
       <r>   11.7327    0.0000 </r>
       <r>   11.8118    0.0000 </r>
      </set>
      <set comment="kpoint 44">
       <r>  -32.7566    1.0000 </r>
       <r>  -11.8018    1.0000 </r>
       <r>  -11.7855    1.0000 </r>
       <r>  -11.7735    1.0000 </r>
       <r>  -11.7517    1.0000 </r>
       <r>  -11.7517    1.0000 </r>
       <r>   -8.3597    1.0000 </r>
       <r>   -8.1794    1.0000 </r>
       <r>   -8.1794    1.0000 </r>
       <r>   -0.8377    1.0000 </r>
       <r>    5.2040    1.0000 </r>
       <r>    6.1318    1.0000 </r>
       <r>    6.1318    1.0000 </r>
       <r>    6.2345    1.0000 </r>
       <r>    6.6735    1.0000 </r>
       <r>    7.6218    1.0000 </r>
       <r>    9.5578    1.0000 </r>
       <r>    9.5578    1.0000 </r>
       <r>   10.8425    1.0000 </r>
       <r>   11.3673    0.0000 </r>
       <r>   11.3673    0.0000 </r>
       <r>   11.4156    0.0000 </r>
       <r>   11.8847    0.0000 </r>
       <r>   12.0740    0.0000 </r>
      </set>
      <set comment="kpoint 45">
       <r>  -32.7559    1.0000 </r>
       <r>  -11.7942    1.0000 </r>
       <r>  -11.7877    1.0000 </r>
       <r>  -11.7741    1.0000 </r>
       <r>  -11.7515    1.0000 </r>
       <r>  -11.7509    1.0000 </r>
       <r>   -8.3775    1.0000 </r>
       <r>   -8.1874    1.0000 </r>
       <r>   -8.1751    1.0000 </r>
       <r>   -0.8413    1.0000 </r>
       <r>    5.5308    1.0000 </r>
       <r>    5.9509    1.0000 </r>
       <r>    6.0593    1.0000 </r>
       <r>    6.3665    1.0000 </r>
       <r>    6.7025    1.0000 </r>
       <r>    7.3422    1.0000 </r>
       <r>    9.4282    1.0000 </r>
       <r>    9.6118    1.0000 </r>
       <r>   10.9985    1.0000 </r>
       <r>   11.3187    0.0000 </r>
       <r>   11.3911    0.0000 </r>
       <r>   11.4851    0.0000 </r>
       <r>   11.9063    0.0000 </r>
       <r>   11.9175    0.0000 </r>
      </set>
      <set comment="kpoint 46">
       <r>  -32.7555    1.0000 </r>
       <r>  -11.7955    1.0000 </r>
       <r>  -11.7912    1.0000 </r>
       <r>  -11.7731    1.0000 </r>
       <r>  -11.7531    1.0000 </r>
       <r>  -11.7508    1.0000 </r>
       <r>   -8.3742    1.0000 </r>
       <r>   -8.2105    1.0000 </r>
       <r>   -8.1573    1.0000 </r>
       <r>   -0.8018    1.0000 </r>
       <r>    5.6315    1.0000 </r>
       <r>    5.9342    1.0000 </r>
       <r>    5.9892    1.0000 </r>
       <r>    6.5311    1.0000 </r>
       <r>    6.7579    1.0000 </r>
       <r>    7.1186    1.0000 </r>
       <r>    9.0208    1.0000 </r>
       <r>    9.5623    1.0000 </r>
       <r>   11.0543    1.0000 </r>
       <r>   11.2858    0.3553 </r>
       <r>   11.4205    0.0000 </r>
       <r>   11.6166    0.0000 </r>
       <r>   11.7990    0.0000 </r>
       <r>   11.8666    0.0000 </r>
      </set>
      <set comment="kpoint 47">
       <r>  -32.7554    1.0000 </r>
       <r>  -11.8070    1.0000 </r>
       <r>  -11.7940    1.0000 </r>
       <r>  -11.7702    1.0000 </r>
       <r>  -11.7561    1.0000 </r>
       <r>  -11.7513    1.0000 </r>
       <r>   -8.3514    1.0000 </r>
       <r>   -8.2430    1.0000 </r>
       <r>   -8.1301    1.0000 </r>
       <r>   -0.7182    1.0000 </r>
       <r>    5.5807    1.0000 </r>
       <r>    5.7839    1.0000 </r>
       <r>    5.9442    1.0000 </r>
       <r>    6.6068    1.0000 </r>
       <r>    6.8255    1.0000 </r>
       <r>    7.2131    1.0000 </r>
       <r>    8.5839    1.0000 </r>
       <r>    9.4543    1.0000 </r>
       <r>   11.0235    1.0000 </r>
       <r>   11.2663    0.9915 </r>
       <r>   11.4503    0.0000 </r>
       <r>   11.7214    0.0000 </r>
       <r>   11.7474    0.0000 </r>
       <r>   11.7622    0.0000 </r>
      </set>
      <set comment="kpoint 48">
       <r>  -32.7556    1.0000 </r>
       <r>  -11.7870    1.0000 </r>
       <r>  -11.7842    1.0000 </r>
       <r>  -11.7752    1.0000 </r>
       <r>  -11.7503    1.0000 </r>
       <r>  -11.7503    1.0000 </r>
       <r>   -8.3944    1.0000 </r>
       <r>   -8.1838    1.0000 </r>
       <r>   -8.1838    1.0000 </r>
       <r>   -0.8887    1.0000 </r>
       <r>    5.8522    1.0000 </r>
       <r>    6.0696    1.0000 </r>
       <r>    6.0696    1.0000 </r>
       <r>    6.1834    1.0000 </r>
       <r>    6.7047    1.0000 </r>
       <r>    7.0508    1.0000 </r>
       <r>    9.7059    1.0000 </r>
       <r>    9.7059    1.0000 </r>
       <r>   11.0848    1.0000 </r>
       <r>   11.4001    0.0000 </r>
       <r>   11.4001    0.0000 </r>
       <r>   11.4033    0.0000 </r>
       <r>   11.8123    0.0000 </r>
       <r>   11.9600    0.0000 </r>
      </set>
      <set comment="kpoint 49">
       <r>  -32.7554    1.0000 </r>
       <r>  -11.7871    1.0000 </r>
       <r>  -11.7858    1.0000 </r>
       <r>  -11.7749    1.0000 </r>
       <r>  -11.7508    1.0000 </r>
       <r>  -11.7502    1.0000 </r>
       <r>   -8.3929    1.0000 </r>
       <r>   -8.1923    1.0000 </r>
       <r>   -8.1774    1.0000 </r>
       <r>   -0.8757    1.0000 </r>
       <r>    5.7979    1.0000 </r>
       <r>    6.0242    1.0000 </r>
       <r>    6.1719    1.0000 </r>
       <r>    6.3223    1.0000 </r>
       <r>    6.7253    1.0000 </r>
       <r>    6.9023    1.0000 </r>
       <r>    9.5074    1.0000 </r>
       <r>    9.6824    1.0000 </r>
       <r>   11.1245    1.0000 </r>
       <r>   11.3171    0.0000 </r>
       <r>   11.4105    0.0000 </r>
       <r>   11.5353    0.0000 </r>
       <r>   11.7468    0.0000 </r>
       <r>   11.9622    0.0000 </r>
      </set>
      <set comment="kpoint 50">
       <r>  -32.7626    1.0000 </r>
       <r>  -11.8182    1.0000 </r>
       <r>  -11.7975    1.0000 </r>
       <r>  -11.7637    1.0000 </r>
       <r>  -11.7587    1.0000 </r>
       <r>  -11.7585    1.0000 </r>
       <r>   -8.2395    1.0000 </r>
       <r>   -8.1602    1.0000 </r>
       <r>   -8.1155    1.0000 </r>
       <r>   -1.2604    1.0000 </r>
       <r>    5.2178    1.0000 </r>
       <r>    5.9179    1.0000 </r>
       <r>    6.3203    1.0000 </r>
       <r>    6.5363    1.0000 </r>
       <r>    6.8994    1.0000 </r>
       <r>    8.4826    1.0000 </r>
       <r>    9.2349    1.0000 </r>
       <r>    9.6513    1.0000 </r>
       <r>   10.6212    1.0000 </r>
       <r>   11.1876    1.0000 </r>
       <r>   11.2568    0.9999 </r>
       <r>   11.5183    0.0000 </r>
       <r>   11.6148    0.0000 </r>
       <r>   11.8523    0.0000 </r>
      </set>
      <set comment="kpoint 51">
       <r>  -32.7610    1.0000 </r>
       <r>  -11.8266    1.0000 </r>
       <r>  -11.8028    1.0000 </r>
       <r>  -11.7654    1.0000 </r>
       <r>  -11.7579    1.0000 </r>
       <r>  -11.7573    1.0000 </r>
       <r>   -8.2982    1.0000 </r>
       <r>   -8.1572    1.0000 </r>
       <r>   -8.0916    1.0000 </r>
       <r>   -0.9806    1.0000 </r>
       <r>    4.9797    1.0000 </r>
       <r>    5.6970    1.0000 </r>
       <r>    6.2010    1.0000 </r>
       <r>    6.5666    1.0000 </r>
       <r>    6.9679    1.0000 </r>
       <r>    8.0695    1.0000 </r>
       <r>    9.0418    1.0000 </r>
       <r>    9.5807    1.0000 </r>
       <r>   10.6408    1.0000 </r>
       <r>   11.2324    1.0000 </r>
       <r>   11.2767    0.8222 </r>
       <r>   11.6213    0.0000 </r>
       <r>   11.6274    0.0000 </r>
       <r>   11.8824    0.0000 </r>
      </set>
      <set comment="kpoint 52">
       <r>  -32.7592    1.0000 </r>
       <r>  -11.8328    1.0000 </r>
       <r>  -11.8109    1.0000 </r>
       <r>  -11.7676    1.0000 </r>
       <r>  -11.7573    1.0000 </r>
       <r>  -11.7560    1.0000 </r>
       <r>   -8.3602    1.0000 </r>
       <r>   -8.1408    1.0000 </r>
       <r>   -8.0732    1.0000 </r>
       <r>   -0.6948    1.0000 </r>
       <r>    4.8268    1.0000 </r>
       <r>    5.5480    1.0000 </r>
       <r>    6.0394    1.0000 </r>
       <r>    6.5521    1.0000 </r>
       <r>    6.9447    1.0000 </r>
       <r>    7.6161    1.0000 </r>
       <r>    9.0532    1.0000 </r>
       <r>    9.5356    1.0000 </r>
       <r>   10.6526    1.0000 </r>
       <r>   11.2859    0.3499 </r>
[...]
       <r>   10.9939    1.0000 </r>
       <r>   11.2966    0.0294 </r>
       <r>   11.5458    0.0000 </r>
       <r>   11.6023    0.0000 </r>
       <r>   11.7360    0.0000 </r>
       <r>   11.8326    0.0000 </r>
      </set>
      <set comment="kpoint 81">
       <r>  -32.7559    1.0000 </r>
       <r>  -11.8238    1.0000 </r>
       <r>  -11.7974    1.0000 </r>
       <r>  -11.7664    1.0000 </r>
       <r>  -11.7611    1.0000 </r>
       <r>  -11.7516    1.0000 </r>
       <r>   -8.3342    1.0000 </r>
       <r>   -8.2466    1.0000 </r>
       <r>   -8.1065    1.0000 </r>
       <r>   -0.6038    1.0000 </r>
       <r>    5.3420    1.0000 </r>
       <r>    5.5539    1.0000 </r>
       <r>    5.9285    1.0000 </r>
       <r>    6.6289    1.0000 </r>
       <r>    6.9062    1.0000 </r>
       <r>    7.5997    1.0000 </r>
       <r>    7.9921    1.0000 </r>
       <r>    9.5757    1.0000 </r>
       <r>   10.9705    1.0000 </r>
       <r>   11.2784    0.7535 </r>
       <r>   11.5318    0.0000 </r>
       <r>   11.5927    0.0000 </r>
       <r>   11.7017    0.0000 </r>
       <r>   11.8338    0.0000 </r>
      </set>
      <set comment="kpoint 82">
       <r>  -32.7554    1.0000 </r>
       <r>  -11.8080    1.0000 </r>
       <r>  -11.7867    1.0000 </r>
       <r>  -11.7715    1.0000 </r>
       <r>  -11.7569    1.0000 </r>
       <r>  -11.7500    1.0000 </r>
       <r>   -8.3545    1.0000 </r>
       <r>   -8.2211    1.0000 </r>
       <r>   -8.1568    1.0000 </r>
       <r>   -0.7514    1.0000 </r>
       <r>    5.4596    1.0000 </r>
       <r>    5.9923    1.0000 </r>
       <r>    6.0645    1.0000 </r>
       <r>    6.5457    1.0000 </r>
       <r>    6.8645    1.0000 </r>
       <r>    7.1666    1.0000 </r>
       <r>    8.3353    1.0000 </r>
       <r>    9.7548    1.0000 </r>
       <r>   11.0554    1.0000 </r>
       <r>   11.2962    0.0331 </r>
       <r>   11.4690    0.0000 </r>
       <r>   11.6793    0.0000 </r>
       <r>   11.7539    0.0000 </r>
       <r>   11.8045    0.0000 </r>
      </set>
      <set comment="kpoint 83">
       <r>  -32.7553    1.0000 </r>
       <r>  -11.8146    1.0000 </r>
       <r>  -11.7868    1.0000 </r>
       <r>  -11.7690    1.0000 </r>
       <r>  -11.7600    1.0000 </r>
       <r>  -11.7499    1.0000 </r>
       <r>   -8.3345    1.0000 </r>
       <r>   -8.2445    1.0000 </r>
       <r>   -8.1462    1.0000 </r>
       <r>   -0.7088    1.0000 </r>
       <r>    5.3989    1.0000 </r>
       <r>    6.0191    1.0000 </r>
       <r>    6.0490    1.0000 </r>
       <r>    6.5774    1.0000 </r>
       <r>    6.9234    1.0000 </r>
       <r>    7.2359    1.0000 </r>
       <r>    7.9657    1.0000 </r>
       <r>    9.7403    1.0000 </r>
       <r>   11.0385    1.0000 </r>
       <r>   11.3074    0.0003 </r>
       <r>   11.5104    0.0000 </r>
       <r>   11.6790    0.0000 </r>
       <r>   11.7473    0.0000 </r>
       <r>   11.7746    0.0000 </r>
      </set>
      <set comment="kpoint 84">
       <r>  -32.7553    1.0000 </r>
       <r>  -11.8183    1.0000 </r>
       <r>  -11.7869    1.0000 </r>
       <r>  -11.7672    1.0000 </r>
       <r>  -11.7624    1.0000 </r>
       <r>  -11.7499    1.0000 </r>
       <r>   -8.3228    1.0000 </r>
       <r>   -8.2528    1.0000 </r>
       <r>   -8.1438    1.0000 </r>
       <r>   -0.6853    1.0000 </r>
       <r>    5.3582    1.0000 </r>
       <r>    5.9932    1.0000 </r>
       <r>    6.0489    1.0000 </r>
       <r>    6.5867    1.0000 </r>
       <r>    6.9669    1.0000 </r>
       <r>    7.4100    1.0000 </r>
       <r>    7.6652    1.0000 </r>
       <r>    9.7609    1.0000 </r>
       <r>   11.0274    1.0000 </r>
       <r>   11.3203    0.0000 </r>
       <r>   11.5562    0.0000 </r>
       <r>   11.6189    0.0000 </r>
       <r>   11.7357    0.0000 </r>
       <r>   11.8090    0.0000 </r>
      </set>
     </set>
    </set>
   </array>
  </eigenvalues>
  <separator name="orbital magnetization" >
   <v name="MAGDIPOLOUT">      0.00000000      0.00000000      0.00000000</v>
  </separator>
  <dos>
   <i name="efermi">     11.28321306 </i>
   <total>
    <array>
     <dimension dim="1">gridpoints</dimension>
     <dimension dim="2">spin</dimension>
     <field>energy</field>
     <field>total</field>
     <field>integrated</field>
     <set>
      <set comment="spin 1">
       <r>   -35.0073     0.0000     0.0000 </r>
       <r>   -34.8429     0.0000     0.0000 </r>
       <r>   -34.6785     0.0000     0.0000 </r>
       <r>   -34.5141     0.0000     0.0000 </r>
       <r>   -34.3497     0.0000     0.0000 </r>
       <r>   -34.1852     0.0000     0.0000 </r>
       <r>   -34.0208     0.0000     0.0000 </r>
       <r>   -33.8564     0.0000     0.0000 </r>
       <r>   -33.6920     0.0000     0.0000 </r>
       <r>   -33.5276     0.0000     0.0000 </r>
       <r>   -33.3632     0.0000     0.0000 </r>
       <r>   -33.1987     0.0000     0.0000 </r>
       <r>   -33.0343     0.0000     0.0000 </r>
       <r>   -32.8699     0.0000     0.0000 </r>
       <r>   -32.7055    12.1643     2.0000 </r>
       <r>   -32.5411     0.0000     2.0000 </r>
       <r>   -32.3767     0.0000     2.0000 </r>
       <r>   -32.2123     0.0000     2.0000 </r>
       <r>   -32.0478     0.0000     2.0000 </r>
       <r>   -31.8834     0.0000     2.0000 </r>
       <r>   -31.7190     0.0000     2.0000 </r>
       <r>   -31.5546     0.0000     2.0000 </r>
       <r>   -31.3902     0.0000     2.0000 </r>
       <r>   -31.2258     0.0000     2.0000 </r>
       <r>   -31.0613     0.0000     2.0000 </r>
       <r>   -30.8969     0.0000     2.0000 </r>
       <r>   -30.7325     0.0000     2.0000 </r>
       <r>   -30.5681     0.0000     2.0000 </r>
       <r>   -30.4037     0.0000     2.0000 </r>
       <r>   -30.2393     0.0000     2.0000 </r>
       <r>   -30.0748     0.0000     2.0000 </r>
       <r>   -29.9104     0.0000     2.0000 </r>
       <r>   -29.7460     0.0000     2.0000 </r>
       <r>   -29.5816     0.0000     2.0000 </r>
       <r>   -29.4172     0.0000     2.0000 </r>
       <r>   -29.2528     0.0000     2.0000 </r>
       <r>   -29.0884     0.0000     2.0000 </r>
       <r>   -28.9239     0.0000     2.0000 </r>
       <r>   -28.7595     0.0000     2.0000 </r>
       <r>   -28.5951     0.0000     2.0000 </r>
       <r>   -28.4307     0.0000     2.0000 </r>
       <r>   -28.2663     0.0000     2.0000 </r>
       <r>   -28.1019     0.0000     2.0000 </r>
       <r>   -27.9374     0.0000     2.0000 </r>
       <r>   -27.7730     0.0000     2.0000 </r>
       <r>   -27.6086     0.0000     2.0000 </r>
       <r>   -27.4442     0.0000     2.0000 </r>
       <r>   -27.2798     0.0000     2.0000 </r>
       <r>   -27.1154     0.0000     2.0000 </r>
       <r>   -26.9509     0.0000     2.0000 </r>
       <r>   -26.7865     0.0000     2.0000 </r>
       <r>   -26.6221     0.0000     2.0000 </r>
       <r>   -26.4577     0.0000     2.0000 </r>
       <r>   -26.2933     0.0000     2.0000 </r>
       <r>   -26.1289     0.0000     2.0000 </r>
       <r>   -25.9644     0.0000     2.0000 </r>
       <r>   -25.8000     0.0000     2.0000 </r>
       <r>   -25.6356     0.0000     2.0000 </r>
       <r>   -25.4712     0.0000     2.0000 </r>
       <r>   -25.3068     0.0000     2.0000 </r>
       <r>   -25.1424     0.0000     2.0000 </r>
       <r>   -24.9780     0.0000     2.0000 </r>
       <r>   -24.8135     0.0000     2.0000 </r>
       <r>   -24.6491     0.0000     2.0000 </r>
       <r>   -24.4847     0.0000     2.0000 </r>
       <r>   -24.3203     0.0000     2.0000 </r>
       <r>   -24.1559     0.0000     2.0000 </r>
       <r>   -23.9915     0.0000     2.0000 </r>
       <r>   -23.8270     0.0000     2.0000 </r>
       <r>   -23.6626     0.0000     2.0000 </r>
       <r>   -23.4982     0.0000     2.0000 </r>
       <r>   -23.3338     0.0000     2.0000 </r>
       <r>   -23.1694     0.0000     2.0000 </r>
       <r>   -23.0050     0.0000     2.0000 </r>
       <r>   -22.8405     0.0000     2.0000 </r>
       <r>   -22.6761     0.0000     2.0000 </r>
       <r>   -22.5117     0.0000     2.0000 </r>
       <r>   -22.3473     0.0000     2.0000 </r>
       <r>   -22.1829     0.0000     2.0000 </r>
       <r>   -22.0185     0.0000     2.0000 </r>
       <r>   -21.8541     0.0000     2.0000 </r>
       <r>   -21.6896     0.0000     2.0000 </r>
       <r>   -21.5252     0.0000     2.0000 </r>
       <r>   -21.3608     0.0000     2.0000 </r>
       <r>   -21.1964     0.0000     2.0000 </r>
       <r>   -21.0320     0.0000     2.0000 </r>
       <r>   -20.8676     0.0000     2.0000 </r>
       <r>   -20.7031     0.0000     2.0000 </r>
       <r>   -20.5387     0.0000     2.0000 </r>
       <r>   -20.3743     0.0000     2.0000 </r>
       <r>   -20.2099     0.0000     2.0000 </r>
       <r>   -20.0455     0.0000     2.0000 </r>
       <r>   -19.8811     0.0000     2.0000 </r>
       <r>   -19.7166     0.0000     2.0000 </r>
       <r>   -19.5522     0.0000     2.0000 </r>
       <r>   -19.3878     0.0000     2.0000 </r>
       <r>   -19.2234     0.0000     2.0000 </r>
       <r>   -19.0590     0.0000     2.0000 </r>
       <r>   -18.8946     0.0000     2.0000 </r>
       <r>   -18.7301     0.0000     2.0000 </r>
       <r>   -18.5657     0.0000     2.0000 </r>
       <r>   -18.4013     0.0000     2.0000 </r>
       <r>   -18.2369     0.0000     2.0000 </r>
       <r>   -18.0725     0.0000     2.0000 </r>
       <r>   -17.9081     0.0000     2.0000 </r>
       <r>   -17.7437     0.0000     2.0000 </r>
       <r>   -17.5792     0.0000     2.0000 </r>
       <r>   -17.4148     0.0000     2.0000 </r>
       <r>   -17.2504     0.0000     2.0000 </r>
       <r>   -17.0860     0.0000     2.0000 </r>
       <r>   -16.9216     0.0000     2.0000 </r>
       <r>   -16.7572     0.0000     2.0000 </r>
       <r>   -16.5927     0.0000     2.0000 </r>
       <r>   -16.4283     0.0000     2.0000 </r>
       <r>   -16.2639     0.0000     2.0000 </r>
       <r>   -16.0995     0.0000     2.0000 </r>
       <r>   -15.9351     0.0000     2.0000 </r>
       <r>   -15.7707     0.0000     2.0000 </r>
       <r>   -15.6062     0.0000     2.0000 </r>
       <r>   -15.4418     0.0000     2.0000 </r>
       <r>   -15.2774     0.0000     2.0000 </r>
       <r>   -15.1130     0.0000     2.0000 </r>
       <r>   -14.9486     0.0000     2.0000 </r>
       <r>   -14.7842     0.0000     2.0000 </r>
       <r>   -14.6198     0.0000     2.0000 </r>
       <r>   -14.4553     0.0000     2.0000 </r>
       <r>   -14.2909     0.0000     2.0000 </r>
       <r>   -14.1265     0.0000     2.0000 </r>
       <r>   -13.9621     0.0000     2.0000 </r>
       <r>   -13.7977     0.0000     2.0000 </r>
       <r>   -13.6333     0.0000     2.0000 </r>
       <r>   -13.4688     0.0000     2.0000 </r>
       <r>   -13.3044     0.0000     2.0000 </r>
       <r>   -13.1400     0.0000     2.0000 </r>
       <r>   -12.9756     0.0000     2.0000 </r>
       <r>   -12.8112     0.0000     2.0000 </r>
       <r>   -12.6468     0.0000     2.0000 </r>
       <r>   -12.4823     0.0000     2.0000 </r>
       <r>   -12.3179     0.0000     2.0000 </r>
       <r>   -12.1535     0.0000     2.0000 </r>
       <r>   -11.9891     0.0000     2.0000 </r>
       <r>   -11.8247     6.9273     3.1390 </r>
       <r>   -11.6603     0.0000    12.0000 </r>
       <r>   -11.4958     0.0000    12.0000 </r>
       <r>   -11.3314     0.0000    12.0000 </r>
       <r>   -11.1670     0.0000    12.0000 </r>
       <r>   -11.0026     0.0000    12.0000 </r>
       <r>   -10.8382     0.0000    12.0000 </r>
       <r>   -10.6738     0.0000    12.0000 </r>
       <r>   -10.5094     0.0000    12.0000 </r>
       <r>   -10.3449     0.0000    12.0000 </r>
       <r>   -10.1805     0.0000    12.0000 </r>
       <r>   -10.0161     0.0000    12.0000 </r>
       <r>    -9.8517     0.0000    12.0000 </r>
       <r>    -9.6873     0.0000    12.0000 </r>
       <r>    -9.5229     0.0000    12.0000 </r>
       <r>    -9.3584     0.0000    12.0000 </r>
       <r>    -9.1940     0.0000    12.0000 </r>
       <r>    -9.0296     0.0000    12.0000 </r>
       <r>    -8.8652     0.0000    12.0000 </r>
       <r>    -8.7008     0.0000    12.0000 </r>
       <r>    -8.5364     0.0000    12.0000 </r>
       <r>    -8.3719     3.8214    12.6574 </r>
       <r>    -8.2075     4.0840    14.4976 </r>
       <r>    -8.0431    10.0544    17.9890 </r>
       <r>    -7.8787     0.0000    18.0000 </r>
       <r>    -7.7143     0.0000    18.0000 </r>
       <r>    -7.5499     0.0000    18.0000 </r>
       <r>    -7.3855     0.0000    18.0000 </r>
       <r>    -7.2210     0.0000    18.0000 </r>
       <r>    -7.0566     0.0000    18.0000 </r>
       <r>    -6.8922     0.0000    18.0000 </r>
       <r>    -6.7278     0.0000    18.0000 </r>
       <r>    -6.5634     0.0000    18.0000 </r>
       <r>    -6.3990     0.0000    18.0000 </r>
       <r>    -6.2345     0.0000    18.0000 </r>
       <r>    -6.0701     0.0000    18.0000 </r>
       <r>    -5.9057     0.0000    18.0000 </r>
       <r>    -5.7413     0.0000    18.0000 </r>
       <r>    -5.5769     0.0000    18.0000 </r>
       <r>    -5.4125     0.0000    18.0000 </r>
       <r>    -5.2480     0.0000    18.0000 </r>
       <r>    -5.0836     0.0000    18.0000 </r>
       <r>    -4.9192     0.0000    18.0000 </r>
       <r>    -4.7548     0.0000    18.0000 </r>
       <r>    -4.5904     0.0000    18.0000 </r>
       <r>    -4.4260     0.0000    18.0000 </r>
       <r>    -4.2615     0.0000    18.0000 </r>
       <r>    -4.0971     0.0000    18.0000 </r>
       <r>    -3.9327     0.0000    18.0000 </r>
       <r>    -3.7683     0.0000    18.0000 </r>
       <r>    -3.6039     0.0000    18.0000 </r>
       <r>    -3.4395     0.0000    18.0000 </r>
       <r>    -3.2751     0.0000    18.0000 </r>
       <r>    -3.1106     0.0000    18.0000 </r>
       <r>    -2.9462     0.0000    18.0000 </r>
       <r>    -2.7818     0.0000    18.0000 </r>
       <r>    -2.6174     0.0000    18.0000 </r>
       <r>    -2.4530     0.0000    18.0000 </r>
       <r>    -2.2886     0.0000    18.0000 </r>
       <r>    -2.1241     0.0000    18.0000 </r>
       <r>    -1.9597     0.0000    18.0000 </r>
       <r>    -1.7953     0.0000    18.0000 </r>
       <r>    -1.6309     0.0769    18.0136 </r>
       <r>    -1.4665     0.1100    18.0317 </r>
       <r>    -1.3021     0.0332    18.0592 </r>
       <r>    -1.1376     0.2303    18.1407 </r>
       <r>    -0.9732     0.3268    18.2076 </r>
       <r>    -0.8088     0.8708    18.4008 </r>
       <r>    -0.6444     1.8003    19.0033 </r>
       <r>    -0.4800     1.5965    19.6690 </r>
       <r>    -0.3156     0.7872    19.9692 </r>
       <r>    -0.1512     0.0000    20.0000 </r>
       <r>     0.0133     0.0000    20.0000 </r>
       <r>     0.1777     0.0000    20.0000 </r>
       <r>     0.3421     0.0000    20.0000 </r>
       <r>     0.5065     0.0000    20.0000 </r>
       <r>     0.6709     0.0000    20.0000 </r>
       <r>     0.8353     0.0000    20.0000 </r>
       <r>     0.9998     0.0000    20.0000 </r>
       <r>     1.1642     0.0000    20.0000 </r>
       <r>     1.3286     0.0000    20.0000 </r>
       <r>     1.4930     0.0000    20.0000 </r>
       <r>     1.6574     0.0000    20.0000 </r>
       <r>     1.8218     0.0000    20.0000 </r>
       <r>     1.9863     0.0000    20.0000 </r>
       <r>     2.1507     0.0000    20.0000 </r>
       <r>     2.3151     0.0000    20.0000 </r>
       <r>     2.4795     0.0000    20.0000 </r>
       <r>     2.6439     0.0000    20.0000 </r>
       <r>     2.8083     0.0000    20.0000 </r>
       <r>     2.9728     0.0000    20.0000 </r>
       <r>     3.1372     0.0000    20.0000 </r>
       <r>     3.3016     0.0000    20.0000 </r>
       <r>     3.4660     0.0000    20.0000 </r>
       <r>     3.6304     0.0000    20.0000 </r>
       <r>     3.7948     0.0000    20.0000 </r>
       <r>     3.9592     0.0000    20.0000 </r>
       <r>     4.1237     0.0000    20.0000 </r>
       <r>     4.2881     0.0000    20.0000 </r>
       <r>     4.4525     0.0000    20.0000 </r>
       <r>     4.6169     0.1242    20.0204 </r>
       <r>     4.7813     1.4954    20.3405 </r>
       <r>     4.9457     0.6063    20.7697 </r>
       <r>     5.1102     0.5320    21.0925 </r>
       <r>     5.2746     1.1530    21.3639 </r>
       <r>     5.4390     1.5164    21.7350 </r>
       <r>     5.6034     3.0694    22.7841 </r>
       <r>     5.7678     2.7223    23.6556 </r>
       <r>     5.9322     2.6191    24.5235 </r>
       <r>     6.0967     2.4731    25.4316 </r>
       <r>     6.2611     1.0631    25.9099 </r>
       <r>     6.4255     0.2968    26.0706 </r>
       <r>     6.5899     5.6227    27.0847 </r>
       <r>     6.7543     2.0450    28.4191 </r>
       <r>     6.9187     3.9896    29.6400 </r>
       <r>     7.0831     1.1755    30.1896 </r>
       <r>     7.2476     0.7397    30.3929 </r>
       <r>     7.4120     1.7072    30.8251 </r>
       <r>     7.5764     0.9864    31.1945 </r>
       <r>     7.7408     0.7722    31.5252 </r>
       <r>     7.9052     0.4230    31.6535 </r>
       <r>     8.0696     0.3014    31.8811 </r>
       <r>     8.2341     0.3293    32.0441 </r>
       <r>     8.3985     1.2777    32.3748 </r>
       <r>     8.5629     0.4431    32.5380 </r>
       <r>     8.7273     0.5625    32.7288 </r>
       <r>     8.8917     0.3946    33.0999 </r>
       <r>     9.0561     0.9631    33.3245 </r>
       <r>     9.2206     0.6616    33.5808 </r>
       <r>     9.3850     0.8078    33.7924 </r>
       <r>     9.5494     4.9374    35.1158 </r>
       <r>     9.7138     1.6580    35.8366 </r>
       <r>     9.8782     0.0357    35.9776 </r>
       <r>    10.0426     0.0000    36.0009 </r>
       <r>    10.2071     0.0000    36.0009 </r>
       <r>    10.3715     0.0340    36.0065 </r>
       <r>    10.5359     0.4667    36.1068 </r>
       <r>    10.7003     1.9555    36.5901 </r>
       <r>    10.8647     1.6896    37.1963 </r>
       <r>    11.0291     2.0009    37.8647 </r>
       <r>    11.1935     0.6545    38.0967 </r>
       <r>    11.3580    10.0981    40.4878 </r>
       <r>    11.5224     4.1224    42.0633 </r>
       <r>    11.6868     8.6551    44.5455 </r>
       <r>    11.8512     7.7202    47.1719 </r>
       <r>    12.0156     0.6017    47.9788 </r>
       <r>    12.1800     0.0000    48.0000 </r>
       <r>    12.3445     0.0000    48.0000 </r>
       <r>    12.5089     0.0000    48.0000 </r>
       <r>    12.6733     0.0000    48.0000 </r>
       <r>    12.8377     0.0000    48.0000 </r>
       <r>    13.0021     0.0000    48.0000 </r>
       <r>    13.1665     0.0000    48.0000 </r>
       <r>    13.3310     0.0000    48.0000 </r>
       <r>    13.4954     0.0000    48.0000 </r>
       <r>    13.6598     0.0000    48.0000 </r>
       <r>    13.8242     0.0000    48.0000 </r>
       <r>    13.9886     0.0000    48.0000 </r>
       <r>    14.1530     0.0000    48.0000 </r>
       <r>    14.3174     0.0000    48.0000 </r>
      </set>
     </set>
    </array>
   </total>
  </dos>
 </calculation>
 <structure name="finalpos" >
  <crystal>
   <varray name="basis" >
    <v>       0.00000000       3.22670057       3.22670057 </v>
    <v>       3.22670057       0.00000000       3.22670057 </v>
    <v>       3.22670057       3.22670057       0.00000000 </v>
   </varray>
   <i name="volume">     67.19020891 </i>
   <varray name="rec_basis" >
    <v>      -0.15495705       0.15495705       0.15495705 </v>
    <v>       0.15495705      -0.15495705       0.15495705 </v>
    <v>       0.15495705       0.15495705      -0.15495705 </v>
   </varray>
  </crystal>
  <varray name="positions" >
   <v>       0.25000000       0.25000000       0.25000000 </v>
   <v>       0.75000000       0.75000000       0.75000000 </v>
   <v>       0.00000000       0.00000000       0.00000000 </v>
  </varray>
 </structure>
</modeling>
