   3   3   0   0
  0.2440011E+02  0.4695437E-09  0.4695437E-09  0.4695437E-09  0.5000000E-15
  1.000000000000000E-004
  CAR
 unknown system
     11.34954347    -26.90426775  301      7.32357488      1.00000000
    -26.904  0.0000E+00  0.0000E+00
    -26.777  0.0000E+00  0.0000E+00
    -26.649  0.0000E+00  0.0000E+00
    -26.522  0.0000E+00  0.0000E+00
    -26.394  0.0000E+00  0.0000E+00
    -26.267  0.0000E+00  0.0000E+00
    -26.139  0.0000E+00  0.0000E+00
    -26.012  0.0000E+00  0.0000E+00
    -25.884  0.0000E+00  0.0000E+00
    -25.757  0.0000E+00  0.0000E+00
    -25.629  0.0000E+00  0.0000E+00
    -25.502  0.0000E+00  0.0000E+00
    -25.374  0.0000E+00  0.0000E+00
    -25.247  0.0000E+00  0.0000E+00
    -25.119  0.4705E+02  0.6000E+01
    -24.992  0.0000E+00  0.6000E+01
    -24.864  0.0000E+00  0.6000E+01
    -24.737  0.0000E+00  0.6000E+01
    -24.609  0.0000E+00  0.6000E+01
    -24.482  0.0000E+00  0.6000E+01
    -24.354  0.0000E+00  0.6000E+01
    -24.227  0.0000E+00  0.6000E+01
    -24.099  0.0000E+00  0.6000E+01
    -23.971  0.0000E+00  0.6000E+01
    -23.844  0.0000E+00  0.6000E+01
    -23.716  0.0000E+00  0.6000E+01
    -23.589  0.0000E+00  0.6000E+01
    -23.461  0.0000E+00  0.6000E+01
    -23.334  0.0000E+00  0.6000E+01
    -23.206  0.0000E+00  0.6000E+01
    -23.079  0.0000E+00  0.6000E+01
    -22.951  0.0000E+00  0.6000E+01
    -22.824  0.0000E+00  0.6000E+01
    -22.696  0.0000E+00  0.6000E+01
    -22.569  0.0000E+00  0.6000E+01
    -22.441  0.0000E+00  0.6000E+01
    -22.314  0.0000E+00  0.6000E+01
    -22.186  0.0000E+00  0.6000E+01
    -22.059  0.0000E+00  0.6000E+01
    -21.931  0.0000E+00  0.6000E+01
    -21.804  0.0000E+00  0.6000E+01
    -21.676  0.0000E+00  0.6000E+01
    -21.549  0.0000E+00  0.6000E+01
    -21.421  0.0000E+00  0.6000E+01
    -21.294  0.0000E+00  0.6000E+01
    -21.166  0.0000E+00  0.6000E+01
    -21.039  0.0000E+00  0.6000E+01
    -20.911  0.0000E+00  0.6000E+01
    -20.784  0.0000E+00  0.6000E+01
    -20.656  0.0000E+00  0.6000E+01
    -20.529  0.0000E+00  0.6000E+01
    -20.401  0.0000E+00  0.6000E+01
    -20.274  0.0000E+00  0.6000E+01
    -20.146  0.0000E+00  0.6000E+01
    -20.019  0.0000E+00  0.6000E+01
    -19.891  0.0000E+00  0.6000E+01
    -19.764  0.0000E+00  0.6000E+01
    -19.636  0.0000E+00  0.6000E+01
    -19.509  0.0000E+00  0.6000E+01
    -19.381  0.0000E+00  0.6000E+01
    -19.254  0.0000E+00  0.6000E+01
    -19.126  0.0000E+00  0.6000E+01
    -18.998  0.0000E+00  0.6000E+01
    -18.871  0.0000E+00  0.6000E+01
    -18.743  0.0000E+00  0.6000E+01
    -18.616  0.0000E+00  0.6000E+01
    -18.488  0.0000E+00  0.6000E+01
    -18.361  0.0000E+00  0.6000E+01
    -18.233  0.0000E+00  0.6000E+01
    -18.106  0.0000E+00  0.6000E+01
    -17.978  0.0000E+00  0.6000E+01
    -17.851  0.0000E+00  0.6000E+01
    -17.723  0.0000E+00  0.6000E+01
    -17.596  0.0000E+00  0.6000E+01
    -17.468  0.0000E+00  0.6000E+01
    -17.341  0.0000E+00  0.6000E+01
    -17.213  0.0000E+00  0.6000E+01
    -17.086  0.0000E+00  0.6000E+01
    -16.958  0.0000E+00  0.6000E+01
    -16.831  0.0000E+00  0.6000E+01
    -16.703  0.0000E+00  0.6000E+01
    -16.576  0.0000E+00  0.6000E+01
    -16.448  0.0000E+00  0.6000E+01
    -16.321  0.0000E+00  0.6000E+01
    -16.193  0.0000E+00  0.6000E+01
    -16.066  0.0000E+00  0.6000E+01
    -15.938  0.0000E+00  0.6000E+01
    -15.811  0.0000E+00  0.6000E+01
    -15.683  0.0000E+00  0.6000E+01
    -15.556  0.0000E+00  0.6000E+01
    -15.428  0.0000E+00  0.6000E+01
    -15.301  0.0000E+00  0.6000E+01
    -15.173  0.0000E+00  0.6000E+01
    -15.046  0.0000E+00  0.6000E+01
    -14.918  0.0000E+00  0.6000E+01
    -14.791  0.0000E+00  0.6000E+01
    -14.663  0.0000E+00  0.6000E+01
    -14.536  0.0000E+00  0.6000E+01
    -14.408  0.0000E+00  0.6000E+01
    -14.281  0.0000E+00  0.6000E+01
    -14.153  0.0000E+00  0.6000E+01
    -14.025  0.0000E+00  0.6000E+01
    -13.898  0.0000E+00  0.6000E+01
    -13.770  0.0000E+00  0.6000E+01
    -13.643  0.0000E+00  0.6000E+01
    -13.515  0.0000E+00  0.6000E+01
    -13.388  0.0000E+00  0.6000E+01
    -13.260  0.0000E+00  0.6000E+01
    -13.133  0.0000E+00  0.6000E+01
    -13.005  0.0000E+00  0.6000E+01
    -12.878  0.0000E+00  0.6000E+01
    -12.750  0.0000E+00  0.6000E+01
    -12.623  0.0000E+00  0.6000E+01
    -12.495  0.0000E+00  0.6000E+01
    -12.368  0.0000E+00  0.6000E+01
    -12.240  0.0000E+00  0.6000E+01
    -12.113  0.0000E+00  0.6000E+01
    -11.985  0.0000E+00  0.6000E+01
    -11.858  0.0000E+00  0.6000E+01
    -11.730  0.0000E+00  0.6000E+01
    -11.603  0.0000E+00  0.6000E+01
    -11.475  0.0000E+00  0.6000E+01
    -11.348  0.0000E+00  0.6000E+01
    -11.220  0.0000E+00  0.6000E+01
    -11.093  0.0000E+00  0.6000E+01
    -10.965  0.0000E+00  0.6000E+01
    -10.838  0.0000E+00  0.6000E+01
    -10.710  0.0000E+00  0.6000E+01
    -10.583  0.0000E+00  0.6000E+01
    -10.455  0.0000E+00  0.6000E+01
    -10.328  0.0000E+00  0.6000E+01
    -10.200  0.0000E+00  0.6000E+01
    -10.073  0.0000E+00  0.6000E+01
     -9.945  0.0000E+00  0.6000E+01
     -9.818  0.0000E+00  0.6000E+01
     -9.690  0.0000E+00  0.6000E+01
     -9.563  0.0000E+00  0.6000E+01
     -9.435  0.0000E+00  0.6000E+01
     -9.308  0.0000E+00  0.6000E+01
     -9.180  0.0000E+00  0.6000E+01
     -9.052  0.0000E+00  0.6000E+01
     -8.925  0.0000E+00  0.6000E+01
     -8.797  0.0000E+00  0.6000E+01
     -8.670  0.0000E+00  0.6000E+01
     -8.542  0.0000E+00  0.6000E+01
     -8.415  0.0000E+00  0.6000E+01
     -8.287  0.0000E+00  0.6000E+01
     -8.160  0.0000E+00  0.6000E+01
     -8.032  0.0000E+00  0.6000E+01
     -7.905  0.0000E+00  0.6000E+01
     -7.777  0.0000E+00  0.6000E+01
     -7.650  0.0000E+00  0.6000E+01
     -7.522  0.0000E+00  0.6000E+01
     -7.395  0.0000E+00  0.6000E+01
     -7.267  0.0000E+00  0.6000E+01
     -7.140  0.0000E+00  0.6000E+01
     -7.012  0.0000E+00  0.6000E+01
     -6.885  0.0000E+00  0.6000E+01
     -6.757  0.0000E+00  0.6000E+01
     -6.630  0.0000E+00  0.6000E+01
     -6.502  0.0000E+00  0.6000E+01
     -6.375  0.0000E+00  0.6000E+01
     -6.247  0.0000E+00  0.6000E+01
     -6.120  0.0000E+00  0.6000E+01
     -5.992  0.0000E+00  0.6000E+01
     -5.865  0.0000E+00  0.6000E+01
     -5.737  0.0000E+00  0.6000E+01
     -5.610  0.0000E+00  0.6000E+01
     -5.482  0.0000E+00  0.6000E+01
     -5.355  0.0000E+00  0.6000E+01
     -5.227  0.0000E+00  0.6000E+01
     -5.100  0.0000E+00  0.6000E+01
     -4.972  0.0000E+00  0.6000E+01
     -4.845  0.0000E+00  0.6000E+01
     -4.717  0.0000E+00  0.6000E+01
     -4.590  0.0000E+00  0.6000E+01
     -4.462  0.5581E-02  0.6001E+01
     -4.335  0.1143E+00  0.6015E+01
     -4.207  0.2312E+00  0.6054E+01
     -4.079  0.3571E+00  0.6105E+01
     -3.952  0.2731E+00  0.6160E+01
     -3.824  0.3857E+00  0.6258E+01
     -3.697  0.4684E+00  0.6361E+01
     -3.569  0.5561E+00  0.6489E+01
     -3.442  0.8440E+00  0.6662E+01
     -3.314  0.9131E+00  0.6908E+01
     -3.187  0.3023E+01  0.7473E+01
     -3.059  0.1799E+01  0.8000E+01
     -2.932  0.0000E+00  0.8000E+01
     -2.804  0.0000E+00  0.8000E+01
     -2.677  0.0000E+00  0.8000E+01
     -2.549  0.0000E+00  0.8000E+01
     -2.422  0.0000E+00  0.8000E+01
     -2.294  0.0000E+00  0.8000E+01
     -2.167  0.0000E+00  0.8000E+01
     -2.039  0.0000E+00  0.8000E+01
     -1.912  0.0000E+00  0.8000E+01
     -1.784  0.0000E+00  0.8000E+01
     -1.657  0.0000E+00  0.8000E+01
     -1.529  0.0000E+00  0.8000E+01
     -1.402  0.0000E+00  0.8000E+01
     -1.274  0.0000E+00  0.8000E+01
     -1.147  0.0000E+00  0.8000E+01
     -1.019  0.0000E+00  0.8000E+01
     -0.892  0.0000E+00  0.8000E+01
     -0.764  0.0000E+00  0.8000E+01
     -0.637  0.0000E+00  0.8000E+01
     -0.509  0.0000E+00  0.8000E+01
     -0.382  0.0000E+00  0.8000E+01
     -0.254  0.0000E+00  0.8000E+01
     -0.127  0.0000E+00  0.8000E+01
      0.001  0.0000E+00  0.8000E+01
      0.128  0.0000E+00  0.8000E+01
      0.256  0.0000E+00  0.8000E+01
      0.383  0.0000E+00  0.8000E+01
      0.511  0.2286E+00  0.8029E+01
      0.638  0.8587E+00  0.8160E+01
      0.766  0.3027E+01  0.8575E+01
      0.894  0.3390E+01  0.9244E+01
      1.021  0.2122E+01  0.9612E+01
      1.149  0.4913E+00  0.9767E+01
      1.276  0.4165E+00  0.9866E+01
      1.404  0.2038E+00  0.9894E+01
      1.531  0.6250E-01  0.9932E+01
      1.659  0.1164E+00  0.9961E+01
      1.786  0.5661E+00  0.1004E+02
      1.914  0.3619E+01  0.1058E+02
      2.041  0.4471E+01  0.1171E+02
      2.169  0.4613E+01  0.1261E+02
      2.296  0.3160E+01  0.1328E+02
      2.424  0.2163E+01  0.1369E+02
      2.551  0.1839E+01  0.1408E+02
      2.679  0.1408E+01  0.1439E+02
      2.806  0.1200E+01  0.1478E+02
      2.934  0.3121E+01  0.1550E+02
      3.061  0.5147E+01  0.1660E+02
      3.189  0.6988E+01  0.1817E+02
      3.316  0.5558E+01  0.1903E+02
      3.444  0.1853E+01  0.1953E+02
      3.571  0.5634E+00  0.1966E+02
      3.699  0.4003E+00  0.1981E+02
      3.826  0.6607E+00  0.2000E+02
      3.954  0.1465E+01  0.2019E+02
      4.081  0.1183E+01  0.2045E+02
      4.209  0.5375E+00  0.2059E+02
      4.336  0.1827E+01  0.2086E+02
      4.464  0.1050E+01  0.2106E+02
      4.591  0.1622E+01  0.2133E+02
      4.719  0.1497E+01  0.2157E+02
      4.846  0.3771E+01  0.2216E+02
      4.974  0.1948E+01  0.2259E+02
      5.101  0.2270E+01  0.2300E+02
      5.229  0.1709E+01  0.2337E+02
      5.356  0.1041E+01  0.2363E+02
      5.484  0.7946E+00  0.2377E+02
      5.611  0.3714E+00  0.2385E+02
      5.739  0.1785E+00  0.2393E+02
      5.866  0.8567E-01  0.2397E+02
      5.994  0.2018E+00  0.2400E+02
      6.122  0.0000E+00  0.2400E+02
      6.249  0.5420E-01  0.2401E+02
      6.377  0.3420E-01  0.2401E+02
      6.504  0.6291E-01  0.2402E+02
      6.632  0.1677E+00  0.2405E+02
      6.759  0.5711E-01  0.2407E+02
      6.887  0.6299E+00  0.2415E+02
      7.014  0.8714E+00  0.2435E+02
      7.142  0.5090E+00  0.2452E+02
      7.269  0.1325E+01  0.2486E+02
      7.397  0.2586E+01  0.2530E+02
      7.524  0.2262E+01  0.2568E+02
      7.652  0.1698E+01  0.2618E+02
      7.779  0.1585E+01  0.2651E+02
      7.907  0.2074E+01  0.2694E+02
      8.034  0.3884E+01  0.2764E+02
      8.162  0.3551E+01  0.2843E+02
      8.289  0.1782E+01  0.2895E+02
      8.417  0.3833E+01  0.2978E+02
      8.544  0.1770E+01  0.3013E+02
      8.672  0.2095E+01  0.3047E+02
      8.799  0.1594E+01  0.3081E+02
      8.927  0.3127E+01  0.3142E+02
      9.054  0.1212E+01  0.3171E+02
      9.182  0.8570E+00  0.3187E+02
      9.309  0.6120E+00  0.3197E+02
      9.437  0.0000E+00  0.3199E+02
      9.564  0.1563E-11  0.3199E+02
      9.692  0.0000E+00  0.3200E+02
      9.819  0.0000E+00  0.3200E+02
      9.947  0.0000E+00  0.3200E+02
     10.074  0.0000E+00  0.3200E+02
     10.202  0.0000E+00  0.3200E+02
     10.329  0.0000E+00  0.3200E+02
     10.457  0.0000E+00  0.3200E+02
     10.584  0.0000E+00  0.3200E+02
     10.712  0.0000E+00  0.3200E+02
     10.839  0.0000E+00  0.3200E+02
     10.967  0.0000E+00  0.3200E+02
     11.095  0.0000E+00  0.3200E+02
     11.222  0.0000E+00  0.3200E+02
     11.350  0.0000E+00  0.3200E+02
