    3    3    1    1
  0.2440011E+02  0.4695437E-09  0.4695437E-09  0.4695437E-09  0.5000000E-15
  1.000000000000000E-004
  CAR
 unknown system
     25     84     16

  0.0000000E+00  0.0000000E+00  0.0000000E+00  0.4551661E-03
    1      -25.156243   1.000000
    2      -25.156243   1.000000
    3      -25.156243   1.000000
    4       -4.467532   1.000000
    5        2.057758   1.000000
    6        2.057758   1.000000
    7        2.057758   1.000000
    8        2.849063   1.000000
    9        2.849063   1.000000
   10        5.683604   1.000000
   11        6.003532   1.000000
   12        6.003532   1.000000
   13        6.003532   1.000000
   14        8.102832   0.000000
   15        8.102832   0.000000
   16        8.102832   0.000000

  0.7692308E-01 -0.2002451E-18 -0.8388259E-18  0.3641329E-02
    1      -25.156762   1.000000
    2      -25.156241   1.000000
    3      -25.156241   1.000000
    4       -4.414286   1.000000
    5        1.970666   1.000000
    6        2.041785   1.000000
    7        2.041785   1.000000
    8        2.876046   1.000000
    9        2.876046   1.000000
   10        5.233095   1.000000
   11        5.937206   1.000000
   12        5.937206   1.000000
   13        6.237476   1.000000
   14        7.954980   0.000000
   15        7.954980   0.000000
   16        8.395677   0.000000

  0.1538462E+00  0.6767043E-17 -0.8845185E-17  0.3641329E-02
    1      -25.158208   1.000000
    2      -25.156247   1.000000
    3      -25.156247   1.000000
    4       -4.260204   1.000000
    5        1.734194   1.000000
    6        2.006756   1.000000
    7        2.006756   1.000000
    8        2.938853   1.000000
    9        2.938853   1.000000
   10        4.548535   1.000000
   11        5.770761   1.000000
   12        5.770761   1.000000
   13        6.485213   1.000000
   14        7.877968   0.000000
   15        7.877968   0.000000
   16        9.042567   0.000000

  0.2307692E+00  0.4345137E-17 -0.7462350E-17  0.3641329E-02
    1      -25.160232   1.000000
    2      -25.156242   1.000000
    3      -25.156242   1.000000
    4       -4.023624   1.000000
    5        1.399621   1.000000
    6        1.975020   1.000000
    7        1.975020   1.000000
    8        3.001634   1.000000
    9        3.001634   1.000000
   10        3.904595   1.000000
   11        5.573931   1.000000
   12        5.573931   1.000000
   13        6.711952   1.000000
   14        7.920353   0.000000
   15        7.920353   0.000000
   16        9.610734   0.000000

  0.3076923E+00  0.1353409E-16 -0.1769037E-16  0.3641329E-02
    1      -25.162375   1.000000
    2      -25.156247   1.000000
    3      -25.156247   1.000000
    4       -3.739696   1.000000
    5        1.021753   1.000000
    6        1.959164   1.000000
    7        1.959164   1.000000
    8        3.037457   1.000000
    9        3.037457   1.000000
   10        3.400069   1.000000
   11        5.406398   1.000000
   12        5.406398   1.000000
   13        6.922736   1.000000
   14        8.047556   0.000000
   15        8.047556   0.000000
   16        9.296508   0.000000

  0.3846154E+00  0.4036331E-17 -0.9231686E-17  0.3641329E-02
    1      -25.164136   1.000000
    2      -25.156244   1.000000
    3      -25.156244   1.000000
    4       -3.467586   1.000000
    5        0.672680   1.000000
    6        1.958564   1.000000
    7        1.958564   1.000000
    8        3.042378   1.000000
    9        3.042378   1.000000
   10        3.069851   1.000000
   11        5.296410   1.000000
   12        5.296410   1.000000
   13        7.123700   1.000000
   14        8.211976   0.000000
   15        8.211976   0.000000
   16        8.675056   0.000000

  0.4615385E+00  0.1349919E-16 -0.1973362E-16  0.3641329E-02
    1      -25.165132   1.000000
    2      -25.156245   1.000000
    3      -25.156245   1.000000
    4       -3.292629   1.000000
    5        0.453405   1.000000
    6        1.963301   1.000000
    7        1.963301   1.000000
    8        2.910628   1.000000
    9        3.034586   1.000000
   10        3.034586   1.000000
   11        5.245168   1.000000
   12        5.245168   1.000000
   13        7.293611   0.999989
   14        8.252962   0.000000
   15        8.337171   0.000000
   16        8.337171   0.000000

  0.7692308E-01  0.7692308E-01 -0.5240950E-19  0.2730997E-02
    1      -25.156764   1.000000
    2      -25.156338   1.000000
    3      -25.156338   1.000000
    4       -4.396842   1.000000
    5        1.861813   1.000000
    6        2.084410   1.000000
    7        2.084410   1.000000
    8        2.876899   1.000000
    9        2.881791   1.000000
   10        5.224349   1.000000
   11        5.819940   1.000000
   12        5.819940   1.000000
   13        6.370639   1.000000
   14        7.796605   0.000000
   15        8.300999   0.000000
   16        8.351640   0.000000

  0.1538462E+00  0.7692308E-01 -0.3145607E-17  0.1092399E-01
    1      -25.157828   1.000000
    2      -25.156415   1.000000
    3      -25.156326   1.000000
    4       -4.277326   1.000000
    5        1.655284   1.000000
    6        2.067498   1.000000
    7        2.094520   1.000000
    8        2.918268   1.000000
    9        2.925486   1.000000
   10        4.739396   1.000000
   11        5.637365   1.000000
   12        5.661553   1.000000
   13        6.617231   1.000000
   14        7.677492   0.000000
   15        8.101248   0.000000
   16        8.744143   0.000000

  0.2307692E+00  0.7692308E-01  0.5958443E-18  0.1092399E-01
    1      -25.159622   1.000000
    2      -25.156465   1.000000
    3      -25.156311   1.000000
    4       -4.069763   1.000000
    5        1.391972   1.000000
    6        2.002669   1.000000
    7        2.082639   1.000000
    8        2.974038   1.000000
    9        2.990747   1.000000
   10        4.115880   1.000000
   11        5.452523   1.000000
   12        5.480301   1.000000
   13        6.888851   1.000000
   14        7.704398   0.000000
   15        8.020645   0.000000
   16        9.214900   0.000000

  0.3076923E+00  0.7692308E-01 -0.9632176E-17  0.1092399E-01
    1      -25.161680   1.000000
    2      -25.156481   1.000000
    3      -25.156357   1.000000
    4       -3.803318   1.000000
    5        1.083315   1.000000
    6        1.946355   1.000000
    7        2.064211   1.000000
    8        3.020472   1.000000
    9        3.036005   1.000000
   10        3.566361   1.000000
   11        5.307941   1.000000
   12        5.310446   1.000000
   13        7.058166   1.000000
   14        7.918184   0.000000
   15        8.052747   0.000000
   16        9.344049   0.000000

  0.3846154E+00  0.7692308E-01 -0.1505128E-16  0.1092399E-01
    1      -25.163517   1.000000
    2      -25.156446   1.000000
    3      -25.156435   1.000000
    4       -3.527983   1.000000
    5        0.770550   1.000000
    6        1.922565   1.000000
    7        2.043576   1.000000
    8        3.030468   1.000000
    9        3.049432   1.000000
   10        3.182337   1.000000
   11        5.180099   1.000000
   12        5.220796   1.000000
   13        7.182381   1.000000
   14        8.172231   0.000000
   15        8.193365   0.000000
   16        8.827711   0.000000

  0.4615385E+00  0.7692308E-01 -0.1611874E-16  0.1092399E-01
    1      -25.164734   1.000000
    2      -25.156547   1.000000
    3      -25.156376   1.000000
    4       -3.318908   1.000000
    5        0.533570   1.000000
    6        1.931349   1.000000
    7        2.015310   1.000000
    8        2.925167   1.000000
    9        3.048134   1.000000
   10        3.065035   1.000000
   11        5.098318   1.000000
   12        5.187140   1.000000
   13        7.321863   0.595648
   14        8.282111   0.000000
   15        8.311486   0.000000
   16        8.465868   0.000000

 -0.4615385E+00  0.7692308E-01 -0.1384155E-16  0.1092399E-01
    1      -25.165056   1.000000
    2      -25.156655   1.000000
    3      -25.156291   1.000000
    4       -3.258261   1.000000
    5        0.465555   1.000000
    6        1.963086   1.000000
    7        1.975528   1.000000
    8        2.873987   1.000000
    9        3.053663   1.000000
   10        3.054436   1.000000
   11        5.056329   1.000000
   12        5.200095   1.000000
   13        7.399173   0.000000
   14        8.127042   0.000000
   15        8.359538   0.000000
   16        8.526651   0.000000

 -0.3846154E+00  0.7692308E-01  0.1284656E-16  0.1092399E-01
    1      -25.164396   1.000000
    2      -25.156728   1.000000
    3      -25.156201   1.000000
    4       -3.375398   1.000000
    5        0.600778   1.000000
    6        1.932011   1.000000
    7        2.006383   1.000000
    8        2.955316   1.000000
    9        3.066265   1.000000
   10        3.079602   1.000000
   11        5.043111   1.000000
   12        5.263820   1.000000
   13        7.303449   0.997788
   14        8.261772   0.000000
   15        8.302698   0.000000
   16        8.541879   0.000000

 -0.3076923E+00  0.7692308E-01  0.1187078E-16  0.1092399E-01
    1      -25.162935   1.000000
    2      -25.156752   1.000000
    3      -25.156141   1.000000
    4       -3.616101   1.000000
    5        0.880306   1.000000
    6        1.901109   1.000000
    7        2.052254   1.000000
    8        3.014993   1.000000
    9        3.066939   1.000000
   10        3.295055   1.000000
   11        5.062261   1.000000
   12        5.388634   1.000000
   13        7.178408   1.000000
   14        8.078422   0.000000
   15        8.177436   0.000000
   16        9.023216   0.000000

 -0.2307692E+00  0.7692308E-01  0.1552054E-16  0.1092399E-01
    1      -25.160977   1.000000
    2      -25.156711   1.000000
    3      -25.156098   1.000000
    4       -3.895637   1.000000
    5        1.213188   1.000000
    6        1.897144   1.000000
    7        2.094124   1.000000
    8        2.999062   1.000000
    9        3.039222   1.000000
   10        3.736565   1.000000
   11        5.134640   1.000000
   12        5.571604   1.000000
   13        7.045429   1.000000
   14        7.889252   0.000000
   15        8.024569   0.000000
   16        9.231856   0.000000

 -0.1538462E+00  0.7692308E-01  0.6669751E-18  0.1092399E-01
    1      -25.158998   1.000000
    2      -25.156614   1.000000
    3      -25.156111   1.000000
    4       -4.146950   1.000000
    5        1.533509   1.000000
    6        1.925534   1.000000
    7        2.120603   1.000000
    8        2.950262   1.000000
    9        2.984337   1.000000
   10        4.312914   1.000000
   11        5.291195   1.000000
   12        5.776037   1.000000
   13        6.829096   1.000000
   14        7.758951   0.000000
   15        7.996949   0.000000
   16        8.832320   0.000000

 -0.7692308E-01  0.7692308E-01 -0.4004902E-18  0.5461994E-02
    1      -25.157473   1.000000
    2      -25.156441   1.000000
    3      -25.156158   1.000000
    4       -4.327719   1.000000
    5        1.801124   1.000000
    6        1.980073   1.000000
    7        2.106684   1.000000
    8        2.899783   1.000000
    9        2.920620   1.000000
   10        4.878108   1.000000
   11        5.584890   1.000000
   12        5.923864   1.000000
   13        6.514482   1.000000
   14        7.760246   0.000000
   15        8.075636   0.000000
   16        8.467378   0.000000

  0.1538462E+00  0.1538462E+00 -0.1048190E-18  0.2730997E-02
    1      -25.158199   1.000000
    2      -25.156583   1.000000
    3      -25.156583   1.000000
    4       -4.196293   1.000000
    5        1.438579   1.000000
    6        2.160797   1.000000
    7        2.160797   1.000000
    8        2.894627   1.000000
    9        2.956444   1.000000
   10        4.674143   1.000000
   11        5.447065   1.000000
   12        5.447065   1.000000
   13        6.675494   1.000000
   14        7.587076   0.000000
   15        8.156969   0.000000
   16        8.861899   0.000000

  0.2307692E+00  0.1538462E+00  0.6524061E-17  0.1092399E-01
    1      -25.159516   1.000000
    2      -25.156727   1.000000
    3      -25.156685   1.000000
    4       -4.027447   1.000000
    5        1.212571   1.000000
    6        2.158394   1.000000
    7        2.192239   1.000000
    8        2.905686   1.000000
    9        3.016887   1.000000
   10        4.269929   1.000000
   11        5.233308   1.000000
   12        5.265054   1.000000
   13        6.941529   1.000000
   14        7.531940   0.000000
   15        8.054149   0.000000
   16        9.136147   0.000000

  0.3076923E+00  0.1538462E+00 -0.1300147E-16  0.1092399E-01
    1      -25.161248   1.000000
    2      -25.156815   1.000000
    3      -25.156786   1.000000
    4       -3.795081   1.000000
    5        0.998143   1.000000
    6        2.082110   1.000000
    7        2.194126   1.000000
    8        2.952533   1.000000
    9        3.069219   1.000000
   10        3.752908   1.000000
   11        5.023307   1.000000
   12        5.132736   1.000000
   13        7.223370   1.000000
   14        7.695838   0.000000
   15        8.016220   0.000000
   16        9.251466   0.000000

  0.3846154E+00  0.1538462E+00 -0.1161863E-16  0.1092399E-01
    1      -25.162904   1.000000
    2      -25.157065   1.000000
    3      -25.156772   1.000000
    4       -3.541077   1.000000
    5        0.804127   1.000000
    6        1.991065   1.000000
    7        2.171809   1.000000
    8        2.992412   1.000000
    9        3.090901   1.000000
   10        3.312695   1.000000
   11        4.859469   1.000000
   12        5.063209   1.000000
   13        7.262049   1.000000
   14        8.092861   0.000000
   15        8.173111   0.000000
   16        8.907058   0.000000

  0.4615385E+00  0.1538462E+00  0.1191689E-17  0.1092399E-01
    1      -25.164078   1.000000
    2      -25.157368   1.000000
    3      -25.156669   1.000000
    4       -3.327088   1.000000
    5        0.650142   1.000000
    6        1.930206   1.000000
    7        2.123232   1.000000
    8        2.923802   1.000000
    9        3.094600   1.000000
   10        3.116528   1.000000
   11        4.745933   1.000000
   12        5.045436   1.000000
   13        7.323477   0.505519
   14        8.252665   0.000000
   15        8.409728   0.000000
   16        8.602014   0.000000

 -0.4615385E+00  0.1538462E+00 -0.1485223E-16  0.1092399E-01
    1      -25.164536   1.000000
    2      -25.157659   1.000000
    3      -25.156512   1.000000
    4       -3.224163   1.000000
    5        0.578493   1.000000
    6        1.926857   1.000000
    7        2.050158   1.000000
    8        2.821203   1.000000
    9        3.102448   1.000000
   10        3.114747   1.000000
   11        4.669657   1.000000
   12        5.068306   1.000000
   13        7.444416   0.000000
   14        8.095183   0.000000
   15        8.375376   0.000000
   16        8.848156   0.000000

 -0.3846154E+00  0.1538462E+00 -0.1591969E-16  0.1092399E-01
    1      -25.164179   1.000000
    2      -25.157838   1.000000
    3      -25.156329   1.000000
    4       -3.275023   1.000000
    5        0.625912   1.000000
    6        1.968259   1.000000
    7        1.987107   1.000000
    8        2.848941   1.000000
    9        3.115013   1.000000
   10        3.149865   1.000000
   11        4.609187   1.000000
   12        5.137376   1.000000
   13        7.492424   0.000000
   14        8.159031   0.000000
   15        8.337199   0.000000
   16        8.859541   0.000000

 -0.3076923E+00  0.1538462E+00  0.6142867E-17  0.1092399E-01
    1      -25.163137   1.000000
    2      -25.157842   1.000000
    3      -25.156173   1.000000
    4       -3.458016   1.000000
    5        0.782310   1.000000
    6        1.900588   1.000000
    7        2.085060   1.000000
    8        2.947869   1.000000
    9        3.115056   1.000000
   10        3.281446   1.000000
   11        4.562695   1.000000
   12        5.264971   1.000000
   13        7.477539   0.000000
   14        8.173302   0.000000
   15        8.411258   0.000000
   16        8.812842   0.000000

 -0.2307692E+00  0.1538462E+00  0.5075402E-17  0.1092399E-01
    1      -25.161683   1.000000
    2      -25.157623   1.000000
    3      -25.156076   1.000000
    4       -3.706384   1.000000
    5        1.007777   1.000000
    6        1.866129   1.000000
    7        2.169010   1.000000
    8        2.986254   1.000000
    9        3.089577   1.000000
   10        3.612704   1.000000
   11        4.579354   1.000000
   12        5.446858   1.000000
   13        7.485437   0.000000
   14        7.973629   0.000000
   15        8.184992   0.000000
   16        8.962624   0.000000

 -0.1538462E+00  0.1538462E+00  0.1353409E-16  0.5461994E-02
    1      -25.160185   1.000000
    2      -25.157177   1.000000
    3      -25.156049   1.000000
    4       -3.952360   1.000000
    5        1.268339   1.000000
    6        1.874652   1.000000
    7        2.189943   1.000000
    8        2.970867   1.000000
    9        3.041163   1.000000
   10        4.019299   1.000000
   11        4.787940   1.000000
   12        5.643380   1.000000
   13        7.294732   0.999977
   14        7.809898   0.000000
   15        8.009166   0.000000
   16        8.817058   0.000000

  0.2307692E+00  0.2307692E+00 -0.1572285E-18  0.2730997E-02
    1      -25.160263   1.000000
    2      -25.156952   1.000000
    3      -25.156952   1.000000
    4       -3.903142   1.000000
    5        1.016733   1.000000
    6        2.275381   1.000000
    7        2.275381   1.000000
    8        2.832755   1.000000
    9        3.075296   1.000000
   10        4.162407   1.000000
   11        5.077430   1.000000
   12        5.077430   1.000000
   13        6.819325   1.000000
   14        7.548485   0.000000
   15        7.973218   0.000000
   16        9.232947   0.000000

  0.3076923E+00  0.2307692E+00  0.1995619E-17  0.1092399E-01
    1      -25.161551   1.000000
    2      -25.157171   1.000000
    3      -25.157101   1.000000
    4       -3.716945   1.000000
    5        0.860835   1.000000
    6        2.268558   1.000000
    7        2.317889   1.000000
    8        2.834058   1.000000
    9        3.135439   1.000000
   10        3.818783   1.000000
   11        4.853517   1.000000
   12        4.939367   1.000000
   13        7.004820   1.000000
   14        7.629124   0.000000
   15        7.898553   0.000000
   16        9.242198   0.000000

  0.3846154E+00  0.2307692E+00 -0.5919056E-17  0.1092399E-01
    1      -25.162815   1.000000
    2      -25.157573   1.000000
    3      -25.157128   1.000000
    4       -3.503583   1.000000
    5        0.766217   1.000000
    6        2.157334   1.000000
    7        2.316510   1.000000
    8        2.905792   1.000000
    9        3.165784   1.000000
   10        3.406257   1.000000
   11        4.601844   1.000000
   12        4.871947   1.000000
   13        7.149322   1.000000
   14        7.933494   0.000000
   15        8.032831   0.000000
   16        8.968461   0.000000

  0.4615385E+00  0.2307692E+00 -0.4627905E-17  0.1092399E-01
    1      -25.163679   1.000000
    2      -25.158157   1.000000
    3      -25.157039   1.000000
    4       -3.311519   1.000000
    5        0.735625   1.000000
    6        2.019520   1.000000
    7        2.267582   1.000000
    8        2.899232   1.000000
    9        3.148270   1.000000
   10        3.171070   1.000000
   11        4.403983   1.000000
   12        4.862218   1.000000
   13        7.200492   1.000000
   14        8.108373   0.000000
   15        8.516460   0.000000
   16        8.624955   0.000000

 -0.4615385E+00  0.2307692E+00  0.1597040E-16  0.1092399E-01
    1      -25.163943   1.000000
    2      -25.158779   1.000000
    3      -25.156850   1.000000
    4       -3.194273   1.000000
    5        0.747059   1.000000
    6        1.914181   1.000000
    7        2.175204   1.000000
    8        2.747147   1.000000
    9        3.174715   1.000000
   10        3.181182   1.000000
   11        4.269448   1.000000
   12        4.891490   1.000000
   13        7.308424   0.983928
   14        8.180289   0.000000
   15        8.345942   0.000000
   16        8.960371   0.000000

 -0.3846154E+00  0.2307692E+00  0.1490293E-16  0.1092399E-01
    1      -25.163626   1.000000
    2      -25.159235   1.000000
    3      -25.156603   1.000000
    4       -3.190336   1.000000
    5        0.762541   1.000000
    6        1.909566   1.000000
    7        2.061808   1.000000
    8        2.723992   1.000000
    9        3.179194   1.000000
   10        3.255386   1.000000
   11        4.181594   1.000000
   12        4.962781   1.000000
   13        7.477679   0.000000
   14        8.035494   0.000000
   15        8.424083   0.000000
   16        8.971263   0.000000

 -0.3076923E+00  0.2307692E+00  0.2807885E-16  0.1092399E-01
    1      -25.162977   1.000000
    2      -25.159244   1.000000
    3      -25.156358   1.000000
    4       -3.301621   1.000000
    5        0.784701   1.000000
    6        1.957820   1.000000
    7        2.011742   1.000000
    8        2.824455   1.000000
    9        3.169636   1.000000
   10        3.350372   1.000000
   11        4.137979   1.000000
   12        5.088586   1.000000
   13        7.572974   0.000000
   14        8.261511   0.000000
   15        8.309253   0.000000
   16        8.891778   0.000000

 -0.2307692E+00  0.2307692E+00  0.8690274E-17  0.5461994E-02
    1      -25.162307   1.000000
    2      -25.158631   1.000000
    3      -25.156165   1.000000
    4       -3.491703   1.000000
    5        0.858834   1.000000
    6        1.887800   1.000000
    7        2.129474   1.000000
    8        2.939152   1.000000
    9        3.137707   1.000000
   10        3.486454   1.000000
   11        4.222629   1.000000
   12        5.263025   1.000000
   13        7.604074   0.000000
   14        8.133927   0.000000
   15        8.546840   0.000000
   16        8.839276   0.000000

  0.3076923E+00  0.3076923E+00 -0.2096380E-18  0.2730997E-02
    1      -25.162502   1.000000
    2      -25.157340   1.000000
    3      -25.157340   1.000000
    4       -3.584307   1.000000
    5        0.756792   1.000000
    6        2.407025   1.000000
    7        2.407025   1.000000
    8        2.716495   1.000000
    9        3.211677   1.000000
   10        3.638661   1.000000
   11        4.782377   1.000000
   12        4.782377   1.000000
   13        6.841185   1.000000
   14        7.643182   0.000000
   15        7.767301   0.000000
   16        9.198247   0.000000

  0.3846154E+00  0.3076923E+00  0.2367777E-17  0.1092399E-01
    1      -25.163492   1.000000
    2      -25.157645   1.000000
    3      -25.157442   1.000000
    4       -3.424961   1.000000
    5        0.726433   1.000000
    6        2.352249   1.000000
    7        2.444173   1.000000
    8        2.760626   1.000000
    9        3.259295   1.000000
   10        3.323640   1.000000
   11        4.569268   1.000000
   12        4.697754   1.000000
   13        6.929415   1.000000
   14        7.729650   0.000000
   15        7.828006   0.000000
   16        8.989195   0.000000

  0.4615385E+00  0.3076923E+00 -0.5638582E-17  0.1092399E-01
    1      -25.164066   1.000000
    2      -25.158290   1.000000
    3      -25.157409   1.000000
    4       -3.275124   1.000000
    5        0.780509   1.000000
    6        2.185667   1.000000
    7        2.417899   1.000000
    8        2.825283   1.000000
    9        3.071095   1.000000
   10        3.267503   1.000000
   11        4.278205   1.000000
   12        4.683463   1.000000
   13        7.017327   1.000000
   14        7.860464   0.000000
   15        8.328339   0.000000
   16        8.667868   0.000000

 -0.4615385E+00  0.3076923E+00  0.1495972E-16  0.1092399E-01
    1      -25.163998   1.000000
    2      -25.159196   1.000000
    3      -25.157238   1.000000
    4       -3.170939   1.000000
    5        0.888384   1.000000
    6        1.998149   1.000000
    7        2.327592   1.000000
    8        2.641985   1.000000
    9        3.174568   1.000000
   10        3.259787   1.000000
   11        4.033593   1.000000
   12        4.715737   1.000000
   13        7.109779   1.000000
   14        8.169425   0.000000
   15        8.299002   0.000000
   16        8.870819   0.000000

 -0.3846154E+00  0.3076923E+00  0.1389225E-16  0.1092399E-01
    1      -25.163364   1.000000
    2      -25.160094   1.000000
    3      -25.156955   1.000000
    4       -3.138184   1.000000
    5        0.948624   1.000000
    6        1.859446   1.000000
    7        2.197039   1.000000
    8        2.583299   1.000000
    9        3.245880   1.000000
   10        3.330550   1.000000
   11        3.881030   1.000000
   12        4.790723   1.000000
   13        7.278784   1.000000
   14        8.076450   0.000000
   15        8.486956   0.000000
   16        8.834444   0.000000

 -0.3076923E+00  0.3076923E+00  0.2706817E-16  0.5461994E-02
    1      -25.162813   1.000000
    2      -25.160296   1.000000
    3      -25.156641   1.000000
    4       -3.185397   1.000000
    5        0.876289   1.000000
    6        1.892474   1.000000
    7        2.063313   1.000000
    8        2.675684   1.000000
    9        3.216617   1.000000
   10        3.405079   1.000000
   11        3.890262   1.000000
   12        4.917878   1.000000
   13        7.490939   0.000000
   14        8.030400   0.000000
   15        8.447411   0.000000
   16        8.789859   0.000000

  0.3846154E+00  0.3846154E+00 -0.2620475E-18  0.2730997E-02
    1      -25.164385   1.000000
    2      -25.157655   1.000000
    3      -25.157655   1.000000
    4       -3.325161   1.000000
    5        0.740344   1.000000
    6        2.525077   1.000000
    7        2.525077   1.000000
    8        2.595079   1.000000
    9        3.081946   1.000000
   10        3.334483   1.000000
   11        4.584160   1.000000
   12        4.584160   1.000000
   13        6.816574   1.000000
   14        7.586397   0.000000
   15        7.708800   0.000000
   16        8.945279   0.000000

  0.4615385E+00  0.3846154E+00  0.6099618E-19  0.1092399E-01
    1      -25.164894   1.000000
    2      -25.157982   1.000000
    3      -25.157696   1.000000
    4       -3.229026   1.000000
    5        0.824746   1.000000
    6        2.374805   1.000000
    7        2.537961   1.000000
    8        2.692445   1.000000
    9        2.860364   1.000000
   10        3.358858   1.000000
   11        4.399204   1.000000
   12        4.549297   1.000000
   13        6.859630   1.000000
   14        7.605283   0.000000
   15        7.900108   0.000000
   16        8.747615   0.000000

 -0.4615385E+00  0.3846154E+00  0.1857459E-16  0.1092399E-01
    1      -25.164756   1.000000
    2      -25.158714   1.000000
    3      -25.157571   1.000000
    4       -3.158538   1.000000
    5        0.950735   1.000000
    6        2.183799   1.000000
    7        2.473213   1.000000
    8        2.522429   1.000000
    9        3.014684   1.000000
   10        3.341413   1.000000
   11        4.106385   1.000000
   12        4.577759   1.000000
   13        6.940678   1.000000
   14        7.833765   0.000000
   15        8.314778   0.000000
   16        8.628905   0.000000

 -0.3846154E+00  0.3846154E+00  0.8072661E-17  0.5461994E-02
    1      -25.164042   1.000000
    2      -25.159642   1.000000
    3      -25.157304   1.000000
    4       -3.126863   1.000000
    5        1.030140   1.000000
    6        1.960606   1.000000
    7        2.346878   1.000000
    8        2.481838   1.000000
    9        3.227875   1.000000
   10        3.302106   1.000000
   11        3.877542   1.000000
   12        4.657882   1.000000
   13        7.074961   1.000000
   14        8.220614   0.000000
   15        8.239075   0.000000
   16        8.674408   0.000000

  0.4615385E+00  0.4615385E+00 -0.3144570E-18  0.2730997E-02
    1      -25.165458   1.000000
    2      -25.157835   1.000000
    3      -25.157835   1.000000
    4       -3.187853   1.000000
    5        0.887026   1.000000
    6        2.501009   1.000000
    7        2.595680   1.000000
    8        2.595680   1.000000
    9        2.648404   1.000000
   10        3.408528   1.000000
   11        4.486440   1.000000
   12        4.486440   1.000000
   13        6.794148   1.000000
   14        7.479367   0.000000
   15        7.682724   0.000000
   16        8.756144   0.000000

 -0.4615385E+00  0.4615385E+00  0.2699838E-16  0.5461994E-02
    1      -25.165401   1.000000
    2      -25.158105   1.000000
    3      -25.157787   1.000000
    4       -3.163072   1.000000
    5        0.942086   1.000000
    6        2.401431   1.000000
    7        2.465010   1.000000
    8        2.572483   1.000000
    9        2.800002   1.000000
   10        3.398494   1.000000
   11        4.343393   1.000000
   12        4.498501   1.000000
   13        6.833365   1.000000
   14        7.560357   0.000000
   15        7.886108   0.000000
   16        8.665970   0.000000

  0.2307692E+00  0.1538462E+00  0.7692308E-01  0.1092399E-01
    1      -25.158888   1.000000
    2      -25.156743   1.000000
    3      -25.156274   1.000000
    4       -4.132141   1.000000
    5        1.422876   1.000000
    6        2.022709   1.000000
    7        2.169374   1.000000
    8        2.934188   1.000000
    9        2.980985   1.000000
   10        4.407624   1.000000
   11        5.187472   1.000000
   12        5.633739   1.000000
   13        6.926330   1.000000
   14        7.602133   0.000000
   15        8.075760   0.000000
   16        8.816777   0.000000

  0.3076923E+00  0.1538462E+00  0.7692308E-01  0.2184797E-01
    1      -25.160517   1.000000
    2      -25.157037   1.000000
    3      -25.156252   1.000000
    4       -3.911358   1.000000
    5        1.171725   1.000000
    6        1.965513   1.000000
    7        2.181931   1.000000
    8        2.971787   1.000000