 vasp.6.0.8 29Jun18 (build Jun 13 2019 12:54:44) complex

 executed on      IFC18_CrayMPICH date 2021.12.05  14:21:53
 running   64 mpi-ranks, with    1 threads/rank
 distrk:  each k-point on   16 cores,    4 groups
 distr:  one band on NCORES_PER_BAND=   4 cores,    4 groups


--------------------------------------------------------------------------------------------------------


 INCAR:
 POTCAR:    PAW_PBE Hf_pv 06Sep2000
 POTCAR:    PAW_PBE Sb 06Sep2000
 POTCAR:    PAW_PBE Pt 04Feb2005
 POTCAR:    PAW_PBE Hf_pv 06Sep2000
   VRHFIN =Hf: 5p6s5d
   LEXCH  = PE
   EATOM  =   860.9206 eV,   63.2759 Ry

   TITEL  = PAW_PBE Hf_pv 06Sep2000
   LULTRA =        F    use ultrasoft PP ?
   IUNSCR =        1    unscreen: 0-lin 1-nonlin 2-no
   RPACOR =    2.500    partial core radius
   POMASS =  178.490; ZVAL   =   10.000    mass and valenz
   RCORE  =    2.600    outmost cutoff radius
   RWIGS  =    3.050; RWIGS  =    1.614    wigner-seitz radius (au A)
   ENMAX  =  220.334; ENMIN  =  165.250 eV
   RCLOC  =    2.212    cutoff for local pot
   LCOR   =        T    correct aug charges
   LPAW   =        T    paw PP
   EAUG   =  380.878
   DEXC   =    0.000
   RMAX   =    2.665    core radius for proj-oper
   RAUG   =    1.300    factor for augmentation sphere
   RDEP   =    2.681    radius for radial grids
   RDEPT  =    2.139    core radius for aug-charge

   Atomic configuration
   15 entries
     n  l   j            E        occ.
     1  0  0.50    -65259.4397   2.0000
     2  0  0.50    -11157.9884   2.0000
     2  1  1.50     -9795.2114   6.0000
     3  0  0.50     -2541.4060   2.0000
     3  1  1.50     -2134.4772   6.0000
     3  2  2.50     -1653.5420  10.0000
     4  0  0.50      -510.9577   2.0000
     4  1  1.50      -377.5024   6.0000
     4  2  2.50      -205.2086  10.0000
     4  3  3.50       -15.4906  14.0000
     5  0  0.50       -65.6020   2.0000
     5  1  1.50       -34.2798   6.0000
     5  2  2.50        -1.9877   3.0000
     6  0  0.50        -4.7357   1.0000
     5  3  2.50        -1.3606   0.0000
   Description
     l       E           TYP  RCUT    TYP  RCUT
     1    -34.2797769     23  2.500
     1    -35.6403595     23  2.500
     2     -1.9876655     23  2.500
     2      0.0744675     23  2.500
     0     -4.7356889     23  2.600
     0      3.2364748     23  2.600
  local pseudopotential read in
  partial core-charges read in
  partial kinetic energy density read in
  atomic valenz-charges read in
  non local Contribution for L=           1  read in
    real space projection operators read in
  non local Contribution for L=           1  read in
    real space projection operators read in
  non local Contribution for L=           2  read in
    real space projection operators read in
  non local Contribution for L=           2  read in
    real space projection operators read in
  non local Contribution for L=           0  read in
    real space projection operators read in
  non local Contribution for L=           0  read in
    real space projection operators read in
    PAW grid and wavefunctions read in

   number of l-projection  operators is LMAX  =           6
   number of lm-projection operators is LMMAX =          18

 POTCAR:    PAW_PBE Sb 06Sep2000
   VRHFIN =Sb: s2p3
   LEXCH  = PE
   EATOM  =   149.9515 eV,   11.0211 Ry

   TITEL  = PAW_PBE Sb 06Sep2000
   LULTRA =        F    use ultrasoft PP ?
   IUNSCR =        1    unscreen: 0-lin 1-nonlin 2-no
   RPACOR =    2.200    partial core radius
   POMASS =  121.750; ZVAL   =    5.000    mass and valenz
   RCORE  =    2.300    outmost cutoff radius
   RWIGS  =    2.980; RWIGS  =    1.577    wigner-seitz radius (au A)
   ENMAX  =  172.069; ENMIN  =  129.052 eV
   ICORE  =        3    local potential
   LCOR   =        T    correct aug charges
   LPAW   =        T    paw PP
   EAUG   =  380.513
   DEXC   =    0.000
   RMAX   =    2.346    core radius for proj-oper
   RAUG   =    1.300    factor for augmentation sphere
   RDEP   =    2.360    radius for radial grids
   RDEPT  =    2.192    core radius for aug-charge

   Atomic configuration
   13 entries
     n  l   j            E        occ.
     1  0  0.50    -30298.2797   2.0000
     2  0  0.50     -4610.2252   2.0000
     2  1  1.50     -4138.3407   6.0000
     3  0  0.50      -903.8815   2.0000
     3  1  1.50      -750.1337   6.0000
     3  2  2.50      -515.7092  10.0000
     4  0  0.50      -148.8034   2.0000
     4  1  1.50      -101.7581   6.0000
     4  2  2.50       -33.5048  10.0000
     5  0  0.50       -12.8298   2.0000
     5  1  0.50        -4.8276   3.0000
     5  2  1.50        -4.0817   0.0000
     4  3  2.50        -4.0817   0.0000
   Description
     l       E           TYP  RCUT    TYP  RCUT
     0    -12.8297861     23  2.300
     0     13.6058260     23  2.300
     1     -4.8275512     23  2.300
     1     -0.7245443     23  2.300
     2     -4.0817478     23  2.300
     3     -1.3605826     23  2.300
  local pseudopotential read in
  partial core-charges read in
  partial kinetic energy density read in
  atomic valenz-charges read in
  non local Contribution for L=           0  read in
    real space projection operators read in
  non local Contribution for L=           0  read in
    real space projection operators read in
  non local Contribution for L=           1  read in
    real space projection operators read in
  non local Contribution for L=           1  read in
    real space projection operators read in
  non local Contribution for L=           2  read in
    real space projection operators read in
    PAW grid and wavefunctions read in

   number of l-projection  operators is LMAX  =           5
   number of lm-projection operators is LMMAX =          13

 POTCAR:    PAW_PBE Pt 04Feb2005
   VRHFIN =Pt: s1d9
   LEXCH  = PE
   EATOM  =   729.1176 eV,   53.5886 Ry

   TITEL  = PAW_PBE Pt 04Feb2005
   LULTRA =        F    use ultrasoft PP ?
   IUNSCR =        1    unscreen: 0-lin 1-nonlin 2-no
   RPACOR =    2.330    partial core radius
   POMASS =  195.080; ZVAL   =   10.000    mass and valenz
   RCORE  =    2.600    outmost cutoff radius
   RWIGS  =    2.750; RWIGS  =    1.455    wigner-seitz radius (au A)
   ENMAX  =  230.283; ENMIN  =  172.712 eV
   ICORE  =        3    local potential
   LCOR   =        T    correct aug charges
   LPAW   =        T    paw PP
   EAUG   =  358.966
   DEXC   =    0.000
   RMAX   =    2.658    core radius for proj-oper
   RAUG   =    1.300    factor for augmentation sphere
   RDEP   =    2.761    radius for radial grids
   RDEPT  =    2.203    core radius for aug-charge

   Atomic configuration
   16 entries
     n  l   j            E        occ.
     1  0  0.50    -78401.1885   2.0000
     2  0  0.50    -13770.7750   2.0000
     2  1  1.50    -11931.0468   6.0000
     3  0  0.50     -3234.7234   2.0000
     3  1  1.50     -2699.2216   6.0000
     3  2  2.50     -2119.5714  10.0000
     4  0  0.50      -695.1528   2.0000
     4  1  1.50      -519.6034   6.0000
     4  2  2.50      -306.6786  10.0000
     4  3  3.50       -70.1041  14.0000
     5  0  0.50      -101.7747   2.0000
     5  1  1.50       -55.9873   6.0000
     5  2  2.50        -6.1423   9.0000
     6  0  0.50        -5.6573   1.0000
     6  1  1.50        -6.8029   0.0000
     5  3  2.50        -1.3606   0.0000
   Description
     l       E           TYP  RCUT    TYP  RCUT
     2     -6.1423404     23  2.500
     2     -7.5029230     23  2.500
     0     -5.6573207     23  2.500
     0      0.7416693     23  2.500
     1     -2.7211652     23  2.600
     1     20.4087390     23  2.600
     3     -1.3605826     23  2.500
  local pseudopotential read in
  partial core-charges read in
  partial kinetic energy density read in
  atomic valenz-charges read in
  non local Contribution for L=           2  read in
    real space projection operators read in
  non local Contribution for L=           2  read in
    real space projection operators read in
  non local Contribution for L=           0  read in
    real space projection operators read in
  non local Contribution for L=           0  read in
    real space projection operators read in
  non local Contribution for L=           1  read in
    real space projection operators read in
  non local Contribution for L=           1  read in
    real space projection operators read in
    PAW grid and wavefunctions read in

   number of l-projection  operators is LMAX  =           6
   number of lm-projection operators is LMMAX =          18


 -----------------------------------------------------------------------------
|                                                                             |
|  ADVICE TO THIS USER RUNNING 'VASP/VAMP'   (HEAR YOUR MASTER'S VOICE ...):  |
|                                                                             |
|      You enforced a specific xc-type in the INCAR file,                     |
|      a different type was found on the POTCAR file                          |
|          I HOPE YOU KNOW, WHAT YOU ARE  DOING                               |
|                                                                             |
 -----------------------------------------------------------------------------

  PAW_PBE Hf_pv 06Sep2000               :
 energy of atom  1       EATOM= -860.9206
 kinetic energy error for atom=    0.0004 (will be added to EATOM!!)
  PAW_PBE Sb 06Sep2000                  :
 energy of atom  2       EATOM= -149.9515
 kinetic energy error for atom=    0.0002 (will be added to EATOM!!)
  PAW_PBE Pt 04Feb2005                  :
 energy of atom  3       EATOM= -729.1176
 kinetic energy error for atom=    0.0010 (will be added to EATOM!!)


 POSCAR: Hf1 Sb1 Pt1
  positions in direct lattice
  No initial velocities read in
 exchange correlation table for  LEXCH =       14
   RHO(1)=    0.500       N(1)  =     2000
   RHO(2)=  100.500       N(2)  =     4000



--------------------------------------------------------------------------------------------------------


 ion  position               nearest neighbor table
   1  0.750  0.750  0.750-   3 2.88   3 2.88   3 2.88   3 2.88   2 3.32   2 3.32   2 3.32   2 3.32
                             2 3.32   2 3.32
   2  0.250  0.250  0.250-   3 2.88   3 2.88   3 2.88   3 2.88   1 3.32   1 3.32   1 3.32   1 3.32
                             1 3.32   1 3.32
   3  0.000  0.000  0.000-   1 2.88   2 2.88   1 2.88   1 2.88   2 2.88   2 2.88   1 2.88   2 2.88


  LATTYP: Found a face centered cubic cell.
 ALAT       =     6.6403501566

  Lattice vectors:

 A1 = (   0.0000000000,   3.3201750783,   3.3201750783)
 A2 = (   3.3201750783,   0.0000000000,   3.3201750783)
 A3 = (   3.3201750783,   3.3201750783,   0.0000000000)


Analysis of symmetry for initial positions (statically):
=====================================================================
 Subroutine PRICEL returns:
 Original cell was already a primitive cell.


 Routine SETGRP: Setting up the symmetry group for a
 face centered cubic supercell.


 Subroutine GETGRP returns: Found 24 space group operations
 (whereof 24 operations were pure point group operations)
 out of a pool of 48 trial point group operations.


The static configuration has the point symmetry T_d .


Analysis of symmetry for dynamics (positions and initial velocities):
=====================================================================
 Subroutine PRICEL returns:
 Original cell was already a primitive cell.


 Routine SETGRP: Setting up the symmetry group for a
 face centered cubic supercell.


 Subroutine GETGRP returns: Found 24 space group operations
 (whereof 24 operations were pure point group operations)
 out of a pool of 48 trial point group operations.


The dynamic configuration has the point symmetry T_d .


 Subroutine INISYM returns: Found 24 space group operations
 (whereof 24 operations are pure point group operations),
 and found     1 'primitive' translations


----------------------------------------------------------------------------------------

                                     Primitive cell

  volume of cell :      73.2003

  direct lattice vectors                    reciprocal lattice vectors
     0.000000000  3.320175078  3.320175078    -0.150594468  0.150594468  0.150594468
     3.320175078  0.000000000  3.320175078     0.150594468 -0.150594468  0.150594468
     3.320175078  3.320175078  0.000000000     0.150594468  0.150594468 -0.150594468

  length of vectors
     4.695436625  4.695436625  4.695436625     0.260837270  0.260837270  0.260837270

  position of ions in fractional coordinates (direct lattice)
     0.750000000  0.750000000  0.750000000
     0.250000000  0.250000000  0.250000000
     0.000000000  0.000000000  0.000000000

  ion indices of the primitive-cell ions
   primitive index   ion index
                 1           1
                 2           2
                 3           3

----------------------------------------------------------------------------------------



 KPOINTS: KPOINTS

Automatic generation of k-mesh.
Space group operators:
 irot       det(A)        alpha          n_x          n_y          n_z        tau_x        tau_y        tau_z
    1     1.000000     0.000000     1.000000     0.000000     0.000000     0.000000     0.000000     0.000000
    2     1.000000   120.000000    -0.577350    -0.577350    -0.577350     0.000000     0.000000     0.000000
    3     1.000000   120.000000     0.577350     0.577350     0.577350     0.000000     0.000000     0.000000
    4    -1.000000    90.000000     0.000000     0.000000    -1.000000     0.000000     0.000000     0.000000
    5    -1.000000   180.000000    -0.000000     0.707107     0.707107     0.000000     0.000000     0.000000
    6    -1.000000    90.000000     0.000000     1.000000     0.000000     0.000000     0.000000     0.000000
    7     1.000000   180.000000    -0.000000     0.000000    -1.000000     0.000000     0.000000     0.000000
    8     1.000000   120.000000    -0.577350     0.577350     0.577350     0.000000     0.000000     0.000000
    9     1.000000   120.000000    -0.577350     0.577350    -0.577350     0.000000     0.000000     0.000000
   10    -1.000000    90.000000     0.000000     0.000000     1.000000     0.000000     0.000000     0.000000
   11    -1.000000    90.000000    -1.000000    -0.000000     0.000000     0.000000     0.000000     0.000000
   12    -1.000000   180.000000     0.707107     0.000000     0.707107     0.000000     0.000000     0.000000
   13     1.000000   120.000000     0.577350    -0.577350     0.577350     0.000000     0.000000     0.000000
   14     1.000000   120.000000    -0.577350    -0.577350     0.577350     0.000000     0.000000     0.000000
   15     1.000000   180.000000     1.000000     0.000000     0.000000     0.000000     0.000000     0.000000
   16    -1.000000    90.000000     0.000000    -1.000000     0.000000     0.000000     0.000000     0.000000
   17    -1.000000   180.000000     0.707107     0.707107     0.000000     0.000000     0.000000     0.000000
   18    -1.000000    90.000000     1.000000    -0.000000    -0.000000     0.000000     0.000000     0.000000
   19     1.000000   120.000000     0.577350    -0.577350    -0.577350     0.000000     0.000000     0.000000
   20     1.000000   180.000000    -0.000000    -1.000000    -0.000000     0.000000     0.000000     0.000000
   21     1.000000   120.000000     0.577350     0.577350    -0.577350     0.000000     0.000000     0.000000
   22    -1.000000   180.000000     0.000000    -0.707107     0.707107     0.000000     0.000000     0.000000
   23    -1.000000   180.000000     0.707107    -0.707107     0.000000     0.000000     0.000000     0.000000
   24    -1.000000   180.000000     0.707107     0.000000    -0.707107     0.000000     0.000000     0.000000

 Subroutine IBZKPT returns following result:
 ===========================================

 Found     84 irreducible k-points:

 Following reciprocal coordinates:
            Coordinates               Weight
  0.000000  0.000000  0.000000      1.000000
  0.076923 -0.000000 -0.000000      8.000000
  0.153846  0.000000 -0.000000      8.000000
  0.230769  0.000000 -0.000000      8.000000
  0.307692  0.000000 -0.000000      8.000000
  0.384615  0.000000 -0.000000      8.000000
  0.461538  0.000000 -0.000000      8.000000
  0.076923  0.076923 -0.000000      6.000000
  0.153846  0.076923 -0.000000     24.000000
  0.230769  0.076923  0.000000     24.000000
  0.307692  0.076923 -0.000000     24.000000
  0.384615  0.076923 -0.000000     24.000000
  0.461538  0.076923 -0.000000     24.000000
 -0.461538  0.076923 -0.000000     24.000000
 -0.384615  0.076923  0.000000     24.000000
 -0.307692  0.076923  0.000000     24.000000
 -0.230769  0.076923  0.000000     24.000000
 -0.153846  0.076923  0.000000     24.000000
 -0.076923  0.076923 -0.000000     12.000000
  0.153846  0.153846 -0.000000      6.000000
  0.230769  0.153846  0.000000     24.000000
  0.307692  0.153846 -0.000000     24.000000
  0.384615  0.153846 -0.000000     24.000000
  0.461538  0.153846  0.000000     24.000000
 -0.461538  0.153846 -0.000000     24.000000
 -0.384615  0.153846 -0.000000     24.000000
 -0.307692  0.153846  0.000000     24.000000
 -0.230769  0.153846  0.000000     24.000000
 -0.153846  0.153846  0.000000     12.000000
  0.230769  0.230769 -0.000000      6.000000
  0.307692  0.230769  0.000000     24.000000
  0.384615  0.230769 -0.000000     24.000000
  0.461538  0.230769 -0.000000     24.000000
 -0.461538  0.230769  0.000000     24.000000
 -0.384615  0.230769  0.000000     24.000000
 -0.307692  0.230769  0.000000     24.000000
 -0.230769  0.230769  0.000000     12.000000
  0.307692  0.307692 -0.000000      6.000000
  0.384615  0.307692  0.000000     24.000000
  0.461538  0.307692 -0.000000     24.000000
 -0.461538  0.307692  0.000000     24.000000
 -0.384615  0.307692  0.000000     24.000000
 -0.307692  0.307692  0.000000     12.000000
  0.384615  0.384615 -0.000000      6.000000
  0.461538  0.384615  0.000000     24.000000
 -0.461538  0.384615  0.000000     24.000000
 -0.384615  0.384615  0.000000     12.000000
  0.461538  0.461538 -0.000000      6.000000
 -0.461538  0.461538  0.000000     12.000000
  0.230769  0.153846  0.076923     24.000000
  0.307692  0.153846  0.076923     48.000000
  0.384615  0.153846  0.076923     48.000000
  0.461538  0.153846  0.076923     48.000000
 -0.461538  0.153846  0.076923     48.000000
  0.307692  0.230769  0.076923     24.000000
  0.384615  0.230769  0.076923     48.000000
  0.461538  0.230769  0.076923     48.000000
 -0.461538  0.230769  0.076923     48.000000
 -0.384615  0.230769  0.076923     48.000000
 -0.307692  0.230769  0.076923     48.000000
 -0.230769  0.230769  0.076923     48.000000
 -0.153846  0.230769  0.076923     24.000000
  0.384615  0.307692  0.076923     24.000000
  0.461538  0.307692  0.076923     48.000000
 -0.461538  0.307692  0.076923     48.000000
 -0.384615  0.307692  0.076923     48.000000
 -0.307692  0.307692  0.076923     48.000000
 -0.230769  0.307692  0.076923     24.000000
  0.461538  0.384615  0.076923     24.000000
 -0.461538  0.384615  0.076923     48.000000
 -0.384615  0.384615  0.076923     48.000000
 -0.307692  0.384615  0.076923     24.000000
 -0.461538  0.461538  0.076923     24.000000
 -0.384615  0.461538  0.076923     24.000000
  0.461538  0.307692  0.153846     24.000000
 -0.461538  0.307692  0.153846     48.000000
 -0.384615  0.307692  0.153846     48.000000
 -0.461538  0.384615  0.153846     24.000000
 -0.384615  0.384615  0.153846     48.000000
 -0.307692  0.384615  0.153846     48.000000
 -0.230769  0.384615  0.153846     24.000000
 -0.384615  0.461538  0.153846     24.000000
 -0.307692  0.461538  0.153846     24.000000
 -0.307692  0.461538  0.230769     24.000000

 Following cartesian coordinates:
            Coordinates               Weight
  0.000000  0.000000  0.000000      1.000000
 -0.012101  0.012101  0.012101      8.000000
 -0.024203  0.024203  0.024203      8.000000
 -0.036304  0.036304  0.036304      8.000000
 -0.048405  0.048405  0.048405      8.000000
 -0.060507  0.060507  0.060507      8.000000
 -0.072608  0.072608  0.072608      8.000000
  0.000000 -0.000000  0.024203      6.000000
 -0.012101  0.012101  0.036304     24.000000
 -0.024203  0.024203  0.048405     24.000000
 -0.036304  0.036304  0.060507     24.000000
 -0.048405  0.048405  0.072608     24.000000
 -0.060507  0.060507  0.084709     24.000000
  0.084709 -0.084709 -0.060507     24.000000
  0.072608 -0.072608 -0.048405     24.000000
  0.060507 -0.060507 -0.036304     24.000000
  0.048405 -0.048405 -0.024203     24.000000
  0.036304 -0.036304 -0.012101     24.000000
  0.024203 -0.024203  0.000000     12.000000
 -0.000000  0.000000  0.048405      6.000000
 -0.012101  0.012101  0.060507     24.000000
 -0.024203  0.024203  0.072608     24.000000
 -0.036304  0.036304  0.084709     24.000000
 -0.048405  0.048405  0.096811     24.000000
  0.096811 -0.096811 -0.048405     24.000000
  0.084709 -0.084709 -0.036304     24.000000
  0.072608 -0.072608 -0.024203     24.000000
  0.060507 -0.060507 -0.012101     24.000000
  0.048405 -0.048405 -0.000000     12.000000
  0.000000 -0.000000  0.072608      6.000000
 -0.012101  0.012101  0.084709     24.000000
 -0.024203  0.024203  0.096811     24.000000
 -0.036304  0.036304  0.108912     24.000000
  0.108912 -0.108912 -0.036304     24.000000
  0.096811 -0.096811 -0.024203     24.000000
  0.084709 -0.084709 -0.012101     24.000000
  0.072608 -0.072608 -0.000000     12.000000
 -0.000000  0.000000  0.096811      6.000000
 -0.012101  0.012101  0.108912     24.000000
 -0.024203  0.024203  0.121014     24.000000
  0.121014 -0.121014 -0.024203     24.000000
  0.108912 -0.108912 -0.012101     24.000000
  0.096811 -0.096811 -0.000000     12.000000
  0.000000 -0.000000  0.121014      6.000000
 -0.012101  0.012101  0.133115     24.000000
  0.133115 -0.133115 -0.012101     24.000000
  0.121014 -0.121014  0.000000     12.000000
 -0.000000  0.000000  0.145216      6.000000
  0.145216 -0.145216  0.000000     12.000000
 -0.000000  0.024203  0.048405     24.000000
 -0.012101  0.036304  0.060507     48.000000
 -0.024203  0.048405  0.072608     48.000000
 -0.036304  0.060507  0.084709     48.000000
  0.108912 -0.084709 -0.060507     48.000000
  0.000000  0.024203  0.072608     24.000000
 -0.012101  0.036304  0.084709     48.000000
 -0.024203  0.048405  0.096811     48.000000
  0.121014 -0.096811 -0.048405     48.000000
  0.108912 -0.084709 -0.036304     48.000000
  0.096811 -0.072608 -0.024203     48.000000
  0.084709 -0.060507 -0.012101     48.000000
  0.072608 -0.048405 -0.000000     24.000000
  0.000000  0.024203  0.096811     24.000000
 -0.012101  0.036304  0.108912     48.000000
  0.133115 -0.108912 -0.036304     48.000000
  0.121014 -0.096811 -0.024203     48.000000
  0.108912 -0.084709 -0.012101     48.000000
  0.096811 -0.072608 -0.000000     24.000000
  0.000000  0.024203  0.121014     24.000000
  0.145216 -0.121014 -0.024203     48.000000
  0.133115 -0.108912 -0.012101     48.000000
  0.121014 -0.096811 -0.000000     24.000000
  0.157318 -0.133115 -0.012101     24.000000
  0.145216 -0.121014 -0.000000     24.000000
  0.000000  0.048405  0.096811     24.000000
  0.145216 -0.096811 -0.048405     48.000000
  0.133115 -0.084709 -0.036304     48.000000
  0.157318 -0.108912 -0.036304     24.000000
  0.145216 -0.096811 -0.024203     48.000000
  0.133115 -0.084709 -0.012101     48.000000
  0.121014 -0.072608 -0.000000     24.000000
  0.157318 -0.108912 -0.012101     24.000000
  0.145216 -0.096811 -0.000000     24.000000
  0.157318 -0.084709 -0.012101     24.000000



--------------------------------------------------------------------------------------------------------




 Dimension of arrays:
   k-points           NKPTS =     84   k-points in BZ     NKDIM =     84   number of bands    NBANDS=     16
   number of dos      NEDOS =    301   number of ions     NIONS =      3
   non local maximal  LDIM  =      6   non local SUM 2l+1 LMDIM =     18
   total plane-waves  NPLWV =  74088
   max r-space proj   IRMAX =      1   max aug-charges    IRDMAX= 490558
   dimension x,y,z NGX =    42 NGY =   42 NGZ =   42
   dimension x,y,z NGXF=    84 NGYF=   84 NGZF=   84
   support grid    NGXF=   168 NGYF=  168 NGZF=  168
   ions per type =               1   1   1
   NGX,Y,Z   is equivalent  to a cutoff of  14.87, 14.87, 14.87 a.u.
   NGXF,Y,Z  is equivalent  to a cutoff of  29.74, 29.74, 29.74 a.u.

 SYSTEM =  unknown system
 POSCAR =  Hf1 Sb1 Pt1

 Startparameter for this run:
   NWRITE =      2    write-flag & timer
   PREC   = acc       normal or accurate (medium, high low for compatibility)
   ISTART =      0    job   : 0-new  1-cont  2-samecut
   ICHARG =      2    charge: 1-file 2-atom 10-const
   ISPIN  =      1    spin polarized calculation?
   LNONCOLLINEAR =      F non collinear calculations
   LSORBIT =      F    spin-orbit coupling
   INIWAV =      1    electr: 0-lowe 1-rand  2-diag
   LASPH  =      F    aspherical Exc in radial PAW
   METAGGA=      F    non-selfconsistent MetaGGA calc.

 Electronic Relaxation 1
   ENCUT  =  700.0 eV  51.45 Ry    7.17 a.u.  10.13 10.13 10.13*2*pi/ulx,y,z
   ENINI  =  700.0     initial cutoff
   ENAUG  =  380.9 eV  augmentation charge cutoff
   NELM   =     60;   NELMIN=  5; NELMDL= -5     # of ELM steps
   EDIFF  = 0.1E-06   stopping-criterion for ELM
   LREAL  =      F    real-space projection
   NLSPLINE    = F    spline interpolate recip. space projectors
   LCOMPAT=      F    compatible to vasp.4.4
   GGA_COMPAT  = T    GGA compatible to vasp.4.4-vasp.4.6
   LMAXPAW     = -100 max onsite density
   LMAXMIX     =    2 max onsite mixed and CHGCAR
   VOSKOWN=      0    Vosko Wilk Nusair interpolation
   ROPT   =    0.00000   0.00000   0.00000
 Ionic relaxation
   EDIFFG = 0.1E-05   stopping-criterion for IOM
   NSW    =      0    number of steps for IOM
   NBLOCK =      1;   KBLOCK =      1    inner block; outer block
   IBRION =     -1    ionic relax: 0-MD 1-quasi-New 2-CG
   NFREE  =      0    steps in history (QN), initial steepest desc. (CG)
   ISIF   =      3    stress and relaxation
   IWAVPR =     10    prediction:  0-non 1-charg 2-wave 3-comb
   ISYM   =      2    0-nonsym 1-usesym 2-fastsym
   LCORR  =      T    Harris-Foulkes like correction to forces

   POTIM  = 0.5000    time-step for ionic-motion
   TEIN   =    0.0    initial temperature
   TEBEG  =    0.0;   TEEND  =   0.0 temperature during run
   SMASS  =  -3.00    Nose mass-parameter (am)
   estimated Nose-frequenzy (Omega)   =  0.10E-29 period in steps = 0.13E+47 mass=  -0.504E-27a.u.
   SCALEE = 1.0000    scale energy and forces
   NPACO  =    256;   APACO  = 16.0  distance and # of slots for P.C.
   PSTRESS=    0.0 pullay stress

  Mass of Ions in am
   POMASS = 178.49121.75195.08
  Ionic Valenz
   ZVAL   =  10.00  5.00 10.00
  Atomic Wigner-Seitz radii
   RWIGS  =  -1.00 -1.00 -1.00
  virtual crystal weights
   VCA    =   1.00  1.00  1.00
   NELECT =      25.0000    total number of electrons
   NUPDOWN=      -1.0000    fix difference up-down

 DOS related values:
   EMIN   =  10.00;   EMAX   =-10.00  energy-range for DOS
   EFERMI =   0.00
   ISMEAR =     0;   SIGMA  =   0.01  broadening in eV -4-tet -1-fermi 0-gaus

 Electronic relaxation 2 (details)
   IALGO  =     38    algorithm
   LDIAG  =      T    sub-space diagonalisation (order eigenvalues)
   LSUBROT=      F    optimize rotation matrix (better conditioning)
   TURBO    =      0    0=normal 1=particle mesh
   IRESTART =      0    0=no restart 2=restart with 2 vectors
   NREBOOT  =      0    no. of reboots
   NMIN     =      0    reboot dimension
   EREF     =   0.00    reference energy to select bands
   IMIX   =      4    mixing-type and parameters
     AMIX     =   0.40;   BMIX     =  1.00
     AMIX_MAG =   1.60;   BMIX_MAG =  1.00
     AMIN     =   0.10
     WC   =   100.;   INIMIX=   1;  MIXPRE=   1;  MAXMIX= -45

 Intra band minimization:
   WEIMIN = 0.0000     energy-eigenvalue tresh-hold
   EBREAK =  0.16E-08  absolut break condition
   DEPER  =   0.30     relativ break condition

   TIME   =   0.40     timestep for ELM

  volume/ion in A,a.u.               =      24.40       164.66
  Fermi-wavevector in a.u.,A,eV,Ry     =   1.144328  2.162466 17.816646  1.309487
  Thomas-Fermi vector in A             =   2.281020

 Write flags
   LWAVE        =      F    write WAVECAR
   LDOWNSAMPLE  =      F    k-point downsampling of WAVECAR
   LCHARG       =      F    write CHGCAR
   LVTOT        =      F    write LOCPOT, total local potential
   LVHAR        =      F    write LOCPOT, Hartree potential only
   LELF         =      F    write electronic localiz. function (ELF)
   LORBIT       =      0    0 simple, 1 ext, 2 COOP (PROOUT), +10 PAW based schemes


 Dipole corrections
   LMONO  =      F    monopole corrections only (constant potential shift)
   LDIPOL =      F    correct potential (dipole corrections)
   IDIPOL =      0    1-x, 2-y, 3-z, 4-all directions
   EPSILON=  1.0000000 bulk dielectric constant

 Exchange correlation treatment:
   GGA     =    PS    GGA type
   LEXCH   =    14    internal setting for exchange type
   VOSKOWN=      0    Vosko Wilk Nusair interpolation
   LHFCALC =     F    Hartree Fock is set to
   LHFONE  =     F    Hartree Fock one center treatment
   AEXX    =    0.0000 exact exchange contribution

 Linear response parameters
   LEPSILON=     F    determine dielectric tensor
   LRPA    =     F    only Hartree local field effects (RPA)
   LNABLA  =     F    use nabla operator in PAW spheres
   LVEL    =     F    velocity operator in full k-point grid
   LINTERFAST=   F  fast interpolation
   KINTER  =     0    interpolate to denser k-point grid
   CSHIFT  =0.1000    complex shift for real part using Kramers Kronig
   OMEGAMAX=  -1.0    maximum frequency
   DEG_THRESHOLD= 0.2000000E-02 threshold for treating states as degnerate
   RTIME   =   -0.100 relaxation time in fs
  (WPLASMAI=    0.000 imaginary part of plasma frequency in eV, 0.658/RTIME)
   DFIELD  = 0.0000000 0.0000000 0.0000000 field for delta impulse in time

 Orbital magnetization related:
   ORBITALMAG=     F  switch on orbital magnetization
   LCHIMAG   =     F  perturbation theory with respect to B field
   DQ        =  0.001000  dq finite difference perturbation B field
   LLRAUG    =     F  two centre corrections for induced B field



--------------------------------------------------------------------------------------------------------


 Static calculation
 charge density and potential will be updated during run
 non-spin polarized calculation
 Variant of blocked Davidson
 Davidson routine will perform the subspace rotation
 perform sub-space diagonalisation
    after iterative eigenvector-optimisation
 modified Broyden-mixing scheme, WC =      100.0
 initial mixing is a Kerker type mixing with AMIX =  0.4000 and BMIX =      1.0000
 Hartree-type preconditioning will be used
 using additional bands            3
 reciprocal scheme for non local part
 use partial core corrections
 calculate Harris-corrections to forces
   (improved forces if not selfconsistent)
 use gradient corrections
 use of overlap-Matrix (Vanderbilt PP)
 Gauss-broadening in eV      SIGMA  =   0.01


--------------------------------------------------------------------------------------------------------


  energy-cutoff  :      700.00
  volume of cell :       73.20
      direct lattice vectors                 reciprocal lattice vectors
     0.000000000  3.320175078  3.320175078    -0.150594468  0.150594468  0.150594468
     3.320175078  0.000000000  3.320175078     0.150594468 -0.150594468  0.150594468
     3.320175078  3.320175078  0.000000000     0.150594468  0.150594468 -0.150594468

  length of vectors
     4.695436625  4.695436625  4.695436625     0.260837270  0.260837270  0.260837270



 k-points in units of 2pi/SCALE and weight: KPOINTS
   0.00000000  0.00000000  0.00000000       0.000
  -0.01210135  0.01210135  0.01210135       0.004
  -0.02420271  0.02420271  0.02420271       0.004
  -0.03630406  0.03630406  0.03630406       0.004
  -0.04840541  0.04840541  0.04840541       0.004
  -0.06050677  0.06050677  0.06050677       0.004
  -0.07260812  0.07260812  0.07260812       0.004
   0.00000000 -0.00000000  0.02420271       0.003
  -0.01210135  0.01210135  0.03630406       0.011
  -0.02420271  0.02420271  0.04840541       0.011
  -0.03630406  0.03630406  0.06050677       0.011
  -0.04840541  0.04840541  0.07260812       0.011
  -0.06050677  0.06050677  0.08470948       0.011
   0.08470948 -0.08470948 -0.06050677       0.011
   0.07260812 -0.07260812 -0.04840541       0.011
   0.06050677 -0.06050677 -0.03630406       0.011
   0.04840541 -0.04840541 -0.02420271       0.011
   0.03630406 -0.03630406 -0.01210135       0.011
   0.02420271 -0.02420271  0.00000000       0.005
  -0.00000000  0.00000000  0.04840541       0.003
  -0.01210135  0.01210135  0.06050677       0.011
  -0.02420271  0.02420271  0.07260812       0.011
  -0.03630406  0.03630406  0.08470948       0.011
  -0.04840541  0.04840541  0.09681083       0.011
   0.09681083 -0.09681083 -0.04840541       0.011
   0.08470948 -0.08470948 -0.03630406       0.011
   0.07260812 -0.07260812 -0.02420271       0.011
   0.06050677 -0.06050677 -0.01210135       0.011
   0.04840541 -0.04840541 -0.00000000       0.005
   0.00000000 -0.00000000  0.07260812       0.003
  -0.01210135  0.01210135  0.08470948       0.011
  -0.02420271  0.02420271  0.09681083       0.011
  -0.03630406  0.03630406  0.10891218       0.011
   0.10891218 -0.10891218 -0.03630406       0.011
   0.09681083 -0.09681083 -0.02420271       0.011
   0.08470948 -0.08470948 -0.01210135       0.011
   0.07260812 -0.07260812 -0.00000000       0.005
  -0.00000000  0.00000000  0.09681083       0.003
  -0.01210135  0.01210135  0.10891218       0.011
  -0.02420271  0.02420271  0.12101354       0.011
   0.12101354 -0.12101354 -0.02420271       0.011
   0.10891218 -0.10891218 -0.01210135       0.011
   0.09681083 -0.09681083 -0.00000000       0.005
   0.00000000 -0.00000000  0.12101354       0.003
  -0.01210135  0.01210135  0.13311489       0.011
   0.13311489 -0.13311489 -0.01210135       0.011
   0.12101354 -0.12101354  0.00000000       0.005
  -0.00000000  0.00000000  0.14521624       0.003
   0.14521624 -0.14521624  0.00000000       0.005
  -0.00000000  0.02420271  0.04840541       0.011
  -0.01210135  0.03630406  0.06050677       0.022
  -0.02420271  0.04840541  0.07260812       0.022
  -0.03630406  0.06050677  0.08470948       0.022
   0.10891218 -0.08470948 -0.06050677       0.022
   0.00000000  0.02420271  0.07260812       0.011
  -0.01210135  0.03630406  0.08470948       0.022
  -0.02420271  0.04840541  0.09681083       0.022
   0.12101354 -0.09681083 -0.04840541       0.022
   0.10891218 -0.08470948 -0.03630406       0.022
   0.09681083 -0.07260812 -0.02420271       0.022
   0.08470948 -0.06050677 -0.01210135       0.022
   0.07260812 -0.04840541 -0.00000000       0.011
   0.00000000  0.02420271  0.09681083       0.011
  -0.01210135  0.03630406  0.10891218       0.022
   0.13311489 -0.10891218 -0.03630406       0.022
   0.12101354 -0.09681083 -0.02420271       0.022
   0.10891218 -0.08470948 -0.01210135       0.022
   0.09681083 -0.07260812 -0.00000000       0.011
   0.00000000  0.02420271  0.12101354       0.011
   0.14521624 -0.12101354 -0.02420271       0.022
   0.13311489 -0.10891218 -0.01210135       0.022
   0.12101354 -0.09681083 -0.00000000       0.011
   0.15731760 -0.13311489 -0.01210135       0.011
   0.14521624 -0.12101354 -0.00000000       0.011
   0.00000000  0.04840541  0.09681083       0.011
   0.14521624 -0.09681083 -0.04840541       0.022
   0.13311489 -0.08470948 -0.03630406       0.022
   0.15731760 -0.10891218 -0.03630406       0.011
   0.14521624 -0.09681083 -0.02420271       0.022
   0.13311489 -0.08470948 -0.01210135       0.022
   0.12101354 -0.07260812 -0.00000000       0.011
   0.15731760 -0.10891218 -0.01210135       0.011
   0.14521624 -0.09681083 -0.00000000       0.011
   0.15731760 -0.08470948 -0.01210135       0.011

 k-points in reciprocal lattice and weights: KPOINTS
   0.00000000  0.00000000  0.00000000       0.000
   0.07692308 -0.00000000 -0.00000000       0.004
   0.15384615  0.00000000 -0.00000000       0.004
   0.23076923  0.00000000 -0.00000000       0.004
   0.30769231  0.00000000 -0.00000000       0.004
   0.38461538  0.00000000 -0.00000000       0.004
   0.46153846  0.00000000 -0.00000000       0.004
   0.07692308  0.07692308 -0.00000000       0.003
   0.15384615  0.07692308 -0.00000000       0.011
   0.23076923  0.07692308  0.00000000       0.011
   0.30769231  0.07692308 -0.00000000       0.011
   0.38461538  0.07692308 -0.00000000       0.011
   0.46153846  0.07692308 -0.00000000       0.011
  -0.46153846  0.07692308 -0.00000000       0.011
  -0.38461538  0.07692308  0.00000000       0.011
  -0.30769231  0.07692308  0.00000000       0.011
  -0.23076923  0.07692308  0.00000000       0.011
  -0.15384615  0.07692308  0.00000000       0.011
  -0.07692308  0.07692308 -0.00000000       0.005
   0.15384615  0.15384615 -0.00000000       0.003
   0.23076923  0.15384615  0.00000000       0.011
   0.30769231  0.15384615 -0.00000000       0.011
   0.38461538  0.15384615 -0.00000000       0.011
   0.46153846  0.15384615  0.00000000       0.011
  -0.46153846  0.15384615 -0.00000000       0.011
  -0.38461538  0.15384615 -0.00000000       0.011
  -0.30769231  0.15384615  0.00000000       0.011
  -0.23076923  0.15384615  0.00000000       0.011
  -0.15384615  0.15384615  0.00000000       0.005
   0.23076923  0.23076923 -0.00000000       0.003
   0.30769231  0.23076923  0.00000000       0.011
   0.38461538  0.23076923 -0.00000000       0.011
   0.46153846  0.23076923 -0.00000000       0.011
  -0.46153846  0.23076923  0.00000000       0.011
  -0.38461538  0.23076923  0.00000000       0.011
  -0.30769231  0.23076923  0.00000000       0.011
  -0.23076923  0.23076923  0.00000000       0.005
   0.30769231  0.30769231 -0.00000000       0.003
   0.38461538  0.30769231  0.00000000       0.011
   0.46153846  0.30769231 -0.00000000       0.011
  -0.46153846  0.30769231  0.00000000       0.011
  -0.38461538  0.30769231  0.00000000       0.011
  -0.30769231  0.30769231  0.00000000       0.005
   0.38461538  0.38461538 -0.00000000       0.003
   0.46153846  0.38461538  0.00000000       0.011
  -0.46153846  0.38461538  0.00000000       0.011
  -0.38461538  0.38461538  0.00000000       0.005
   0.46153846  0.46153846 -0.00000000       0.003
  -0.46153846  0.46153846  0.00000000       0.005
   0.23076923  0.15384615  0.07692308       0.011
   0.30769231  0.15384615  0.07692308       0.022
   0.38461538  0.15384615  0.07692308       0.022
   0.46153846  0.15384615  0.07692308       0.022
  -0.46153846  0.15384615  0.07692308       0.022
   0.30769231  0.23076923  0.07692308       0.011
   0.38461538  0.23076923  0.07692308       0.022
   0.46153846  0.23076923  0.07692308       0.022
  -0.46153846  0.23076923  0.07692308       0.022
  -0.38461538  0.23076923  0.07692308       0.022
  -0.30769231  0.23076923  0.07692308       0.022
  -0.23076923  0.23076923  0.07692308       0.022
  -0.15384615  0.23076923  0.07692308       0.011
   0.38461538  0.30769231  0.07692308       0.011
   0.46153846  0.30769231  0.07692308       0.022
  -0.46153846  0.30769231  0.07692308       0.022
  -0.38461538  0.30769231  0.07692308       0.022
  -0.30769231  0.30769231  0.07692308       0.022
  -0.23076923  0.30769231  0.07692308       0.011
   0.46153846  0.38461538  0.07692308       0.011
  -0.46153846  0.38461538  0.07692308       0.022
  -0.38461538  0.38461538  0.07692308       0.022
  -0.30769231  0.38461538  0.07692308       0.011
  -0.46153846  0.46153846  0.07692308       0.011
  -0.38461538  0.46153846  0.07692308       0.011
   0.46153846  0.30769231  0.15384615       0.011
  -0.46153846  0.30769231  0.15384615       0.022
  -0.38461538  0.30769231  0.15384615       0.022
  -0.46153846  0.38461538  0.15384615       0.011
  -0.38461538  0.38461538  0.15384615       0.022
  -0.30769231  0.38461538  0.15384615       0.022
  -0.23076923  0.38461538  0.15384615       0.011
  -0.38461538  0.46153846  0.15384615       0.011
  -0.30769231  0.46153846  0.15384615       0.011
  -0.30769231  0.46153846  0.23076923       0.011

 position of ions in fractional coordinates (direct lattice)
   0.75000000  0.75000000  0.75000000
   0.25000000  0.25000000  0.25000000
   0.00000000  0.00000000  0.00000000

 position of ions in cartesian coordinates  (Angst):
   4.98026262  4.98026262  4.98026262
   1.66008754  1.66008754  1.66008754
   0.00000000  0.00000000  0.00000000



--------------------------------------------------------------------------------------------------------


 k-point  1 :   0.0000 0.0000 0.0000  plane waves:    3119
 k-point  2 :   0.0769-0.0000-0.0000  plane waves:    3083
 k-point  3 :   0.1538 0.0000-0.0000  plane waves:    3077
 k-point  4 :   0.2308 0.0000-0.0000  plane waves:    3071
 k-point  5 :   0.3077 0.0000-0.0000  plane waves:    3067
 k-point  6 :   0.3846 0.0000-0.0000  plane waves:    3067
 k-point  7 :   0.4615 0.0000-0.0000  plane waves:    3085
 k-point  8 :   0.0769 0.0769-0.0000  plane waves:    3087
 k-point  9 :   0.1538 0.0769-0.0000  plane waves:    3072
 k-point 10 :   0.2308 0.0769 0.0000  plane waves:    3072
 k-point 11 :   0.3077 0.0769-0.0000  plane waves:    3065
 k-point 12 :   0.3846 0.0769-0.0000  plane waves:    3067
 k-point 13 :   0.4615 0.0769-0.0000  plane waves:    3069
 k-point 14 :  -0.4615 0.0769-0.0000  plane waves:    3085
 k-point 15 :  -0.3846 0.0769 0.0000  plane waves:    3073
 k-point 16 :  -0.3077 0.0769 0.0000  plane waves:    3061
 k-point 17 :  -0.2308 0.0769 0.0000  plane waves:    3067
 k-point 18 :  -0.1538 0.0769 0.0000  plane waves:    3071
 k-point 19 :  -0.0769 0.0769-0.0000  plane waves:    3064
 k-point 20 :   0.1538 0.1538-0.0000  plane waves:    3075
 k-point 21 :   0.2308 0.1538 0.0000  plane waves:    3076
 k-point 22 :   0.3077 0.1538-0.0000  plane waves:    3077
 k-point 23 :   0.3846 0.1538-0.0000  plane waves:    3063
 k-point 24 :   0.4615 0.1538 0.0000  plane waves:    3072
 k-point 25 :  -0.4615 0.1538-0.0000  plane waves:    3077
 k-point 26 :  -0.3846 0.1538-0.0000  plane waves:    3074
 k-point 27 :  -0.3077 0.1538 0.0000  plane waves:    3079
 k-point 28 :  -0.2308 0.1538 0.0000  plane waves:    3073
 k-point 29 :  -0.1538 0.1538 0.0000  plane waves:    3070
 k-point 30 :   0.2308 0.2308-0.0000  plane waves:    3066
 k-point 31 :   0.3077 0.2308 0.0000  plane waves:    3071
 k-point 32 :   0.3846 0.2308-0.0000  plane waves:    3057
 k-point 33 :   0.4615 0.2308-0.0000  plane waves:    3070
 k-point 34 :  -0.4615 0.2308 0.0000  plane waves:    3080
 k-point 35 :  -0.3846 0.2308 0.0000  plane waves:    3081
 k-point 36 :  -0.3077 0.2308 0.0000  plane waves:    3082
 k-point 37 :  -0.2308 0.2308 0.0000  plane waves:    3074
 k-point 38 :   0.3077 0.3077-0.0000  plane waves:    3086
 k-point 39 :   0.3846 0.3077 0.0000  plane waves:    3082
 k-point 40 :   0.4615 0.3077-0.0000  plane waves:    3082
 k-point 41 :  -0.4615 0.3077 0.0000  plane waves:    3093
 k-point 42 :  -0.3846 0.3077 0.0000  plane waves:    3077
 k-point 43 :  -0.3077 0.3077 0.0000  plane waves:    3092
 k-point 44 :   0.3846 0.3846-0.0000  plane waves:    3074
 k-point 45 :   0.4615 0.3846 0.0000  plane waves:    3079
 k-point 46 :  -0.4615 0.3846 0.0000  plane waves:    3090
 k-point 47 :  -0.3846 0.3846 0.0000  plane waves:    3092
 k-point 48 :   0.4615 0.4615-0.0000  plane waves:    3074
 k-point 49 :  -0.4615 0.4615 0.0000  plane waves:    3062
 k-point 50 :   0.2308 0.1538 0.0769  plane waves:    3064
 k-point 51 :   0.3077 0.1538 0.0769  plane waves:    3072
 k-point 52 :   0.3846 0.1538 0.0769  plane waves:    3072
 k-point 53 :   0.4615 0.1538 0.0769  plane waves:    3075
 k-point 54 :  -0.4615 0.1538 0.0769  plane waves:    3083
 k-point 55 :   0.3077 0.2308 0.0769  plane waves:    3070
 k-point 56 :   0.3846 0.2308 0.0769  plane waves:    3061
 k-point 57 :   0.4615 0.2308 0.0769  plane waves:    3075
 k-point 58 :  -0.4615 0.2308 0.0769  plane waves:    3083
 k-point 59 :  -0.3846 0.2308 0.0769  plane waves:    3091
 k-point 60 :  -0.3077 0.2308 0.0769  plane waves:    3083
 k-point 61 :  -0.2308 0.2308 0.0769  plane waves:    3076
 k-point 62 :  -0.1538 0.2308 0.0769  plane waves:    3077
 k-point 63 :   0.3846 0.3077 0.0769  plane waves:    3076
 k-point 64 :   0.4615 0.3077 0.0769  plane waves:    3083
 k-point 65 :  -0.4615 0.3077 0.0769  plane waves:    3083
 k-point 66 :  -0.3846 0.3077 0.0769  plane waves:    3094
 k-point 67 :  -0.3077 0.3077 0.0769  plane waves:    3086
 k-point 68 :  -0.2308 0.3077 0.0769  plane waves:    3085
 k-point 69 :   0.4615 0.3846 0.0769  plane waves:    3084
 k-point 70 :  -0.4615 0.3846 0.0769  plane waves:    3088
 k-point 71 :  -0.3846 0.3846 0.0769  plane waves:    3089
 k-point 72 :  -0.3077 0.3846 0.0769  plane waves:    3083
 k-point 73 :  -0.4615 0.4615 0.0769  plane waves:    3085
 k-point 74 :  -0.3846 0.4615 0.0769  plane waves:    3091
 k-point 75 :   0.4615 0.3077 0.1538  plane waves:    3070
 k-point 76 :  -0.4615 0.3077 0.1538  plane waves:    3074
 k-point 77 :  -0.3846 0.3077 0.1538  plane waves:    3084
 k-point 78 :  -0.4615 0.3846 0.1538  plane waves:    3088
 k-point 79 :  -0.3846 0.3846 0.1538  plane waves:    3089
 k-point 80 :  -0.3077 0.3846 0.1538  plane waves:    3082
 k-point 81 :  -0.2308 0.3846 0.1538  plane waves:    3091
 k-point 82 :  -0.3846 0.4615 0.1538  plane waves:    3086
 k-point 83 :  -0.3077 0.4615 0.1538  plane waves:    3094
 k-point 84 :  -0.3077 0.4615 0.2308  plane waves:    3079

 maximum and minimum number of plane-waves per node :       789      747

 maximum number of plane-waves:      3119
 maximum index in each direction:
   IXMAX=   10   IYMAX=   10   IZMAX=   10
   IXMIN=  -10   IYMIN=  -10   IZMIN=  -10


 parallel 3D FFT for wavefunctions:
    minimum data exchange during FFTs selected (reduces bandwidth)
 parallel 3D FFT for charge:
    minimum data exchange during FFTs selected (reduces bandwidth)


 total amount of memory used by VASP MPI-rank0    72980. kBytes
=======================================================================

   base      :      30000. kBytes
   nonl-proj :      28778. kBytes
   fftplans  :       6281. kBytes
   grid      :       3541. kBytes
   one-center:         15. kBytes
   wavefun   :       4365. kBytes

     INWAV:  cpu time    0.0002: real time    0.0016
 Broyden mixing: mesh for mixing (old mesh)
   NGX = 21   NGY = 21   NGZ = 21
  (NGX  = 84   NGY  = 84   NGZ  = 84)
  gives a total of   9261 points

 initial charge density was supplied:
 charge density of overlapping atoms calculated
 number of electron      25.0000000 magnetization
 keeping initial charge density in first step


--------------------------------------------------------------------------------------------------------


 Maximum index for augmentation-charges        33198 (set IRDMAX)


--------------------------------------------------------------------------------------------------------


 First call to EWALD:  gamma=   0.424
 Maximum number of real-space cells 3x 3x 3
 Maximum number of reciprocal cells 3x 3x 3

    FEWALD:  cpu time    0.0060: real time    0.0064


--------------------------------------- Iteration      1(   1)  ---------------------------------------


    POTLOK:  cpu time    0.0585: real time    0.1304
    SETDIJ:  cpu time    0.0806: real time    0.0816
     EDDAV:  cpu time    0.9774: real time    0.9832
       DOS:  cpu time    0.0035: real time    0.0039
    --------------------------------------------
      LOOP:  cpu time    1.1204: real time    1.2000

 eigenvalue-minimisations  :  2688
 total energy-change (2. order) : 0.1324193E+03  (-0.1394807E+04)
 number of electron      25.0000000 magnetization
 augmentation part       25.0000000 magnetization

 Free energy of the ion-electron system (eV)
  ---------------------------------------------------
  alpha Z        PSCENC =        93.07000245
  Ewald energy   TEWEN  =     -1497.52933121
  -Hartree energ DENC   =      -348.50858694
  -exchange      EXHF   =         0.00000000
  -V(xc)+E(xc)   XCENC  =       -20.04545696
  PAW double counting   =      1514.36848356    -1421.27055995
  entropy T*S    EENTRO =        -0.00007159
  eigenvalues    EBANDS =        71.23034730
  atomic energy  EATOM  =      1741.10451121
  Solvation  Ediel_sol  =         0.00000000
  ---------------------------------------------------
  free energy    TOTEN  =       132.41933786 eV

  energy without entropy =      132.41940944  energy(sigma->0) =      132.41937365


--------------------------------------------------------------------------------------------------------




--------------------------------------- Iteration      1(   2)  ---------------------------------------


     EDDAV:  cpu time    1.1311: real time    1.1563
       DOS:  cpu time    0.0025: real time    0.0029
    --------------------------------------------
      LOOP:  cpu time    1.1336: real time    1.1603

 eigenvalue-minimisations  :  3352
 total energy-change (2. order) :-0.1519469E+03  (-0.1504081E+03)
 number of electron      25.0000000 magnetization
 augmentation part       25.0000000 magnetization

 Free energy of the ion-electron system (eV)
  ---------------------------------------------------
  alpha Z        PSCENC =        93.07000245
  Ewald energy   TEWEN  =     -1497.52933121
  -Hartree energ DENC   =      -348.50858694
  -exchange      EXHF   =         0.00000000
  -V(xc)+E(xc)   XCENC  =       -20.04545696
  PAW double counting   =      1514.36848356    -1421.27055995
  entropy T*S    EENTRO =        -0.00010762
  eigenvalues    EBANDS =       -80.71656368
  atomic energy  EATOM  =      1741.10451121
  Solvation  Ediel_sol  =         0.00000000
  ---------------------------------------------------
  free energy    TOTEN  =       -19.52760916 eV

  energy without entropy =      -19.52750154  energy(sigma->0) =      -19.52755535


--------------------------------------------------------------------------------------------------------




--------------------------------------- Iteration      1(   3)  ---------------------------------------


     EDDAV:  cpu time    1.2175: real time    1.2450
       DOS:  cpu time    0.0024: real time    0.0027
    --------------------------------------------
      LOOP:  cpu time    1.2200: real time    1.2475

 eigenvalue-minimisations  :  3632
 total energy-change (2. order) :-0.5219669E+01  (-0.5160120E+01)
 number of electron      25.0000000 magnetization
 augmentation part       25.0000000 magnetization

 Free energy of the ion-electron system (eV)
  ---------------------------------------------------
  alpha Z        PSCENC =        93.07000245
  Ewald energy   TEWEN  =     -1497.52933121
  -Hartree energ DENC   =      -348.50858694
  -exchange      EXHF   =         0.00000000
  -V(xc)+E(xc)   XCENC  =       -20.04545696
  PAW double counting   =      1514.36848356    -1421.27055995
  entropy T*S    EENTRO =        -0.00020353
  eigenvalues    EBANDS =       -85.93613651
  atomic energy  EATOM  =      1741.10451121
  Solvation  Ediel_sol  =         0.00000000
  ---------------------------------------------------
  free energy    TOTEN  =       -24.74727790 eV

  energy without entropy =      -24.74707437  energy(sigma->0) =      -24.74717613


--------------------------------------------------------------------------------------------------------




--------------------------------------- Iteration      1(   4)  ---------------------------------------


     EDDAV:  cpu time    1.1437: real time    1.1745
       DOS:  cpu time    0.0026: real time    0.0028
    --------------------------------------------
      LOOP:  cpu time    1.1463: real time    1.1769

 eigenvalue-minimisations  :  3384
 total energy-change (2. order) :-0.7682426E-01  (-0.7622213E-01)
 number of electron      25.0000000 magnetization
 augmentation part       25.0000000 magnetization

 Free energy of the ion-electron system (eV)
  ---------------------------------------------------
  alpha Z        PSCENC =        93.07000245
  Ewald energy   TEWEN  =     -1497.52933121
  -Hartree energ DENC   =      -348.50858694
  -exchange      EXHF   =         0.00000000
  -V(xc)+E(xc)   XCENC  =       -20.04545696
  PAW double counting   =      1514.36848356    -1421.27055995
  entropy T*S    EENTRO =        -0.00016797
  eigenvalues    EBANDS =       -86.01299633
  atomic energy  EATOM  =      1741.10451121
  Solvation  Ediel_sol  =         0.00000000
  ---------------------------------------------------
  free energy    TOTEN  =       -24.82410216 eV

  energy without entropy =      -24.82393419  energy(sigma->0) =      -24.82401817


--------------------------------------------------------------------------------------------------------




--------------------------------------- Iteration      1(   5)  ---------------------------------------


     EDDAV:  cpu time    1.2372: real time    1.2531
       DOS:  cpu time    0.0025: real time    0.0028
    CHARGE:  cpu time    0.2662: real time    0.2670
    MIXING:  cpu time    0.0062: real time    0.0064
    --------------------------------------------
      LOOP:  cpu time    1.5121: real time    1.5294

 eigenvalue-minimisations  :  3680
 total energy-change (2. order) :-0.1695846E-02  (-0.1695372E-02)
 number of electron      25.0000000 magnetization
 augmentation part        4.7644290 magnetization

 Broyden mixing:
  rms(total) = 0.34253E+01    rms(broyden)= 0.34253E+01
  rms(prec ) = 0.37096E+01
  weight for this iteration     100.00

 Free energy of the ion-electron system (eV)
  ---------------------------------------------------
  alpha Z        PSCENC =        93.07000245
  Ewald energy   TEWEN  =     -1497.52933121
  -Hartree energ DENC   =      -348.50858694
  -exchange      EXHF   =         0.00000000
  -V(xc)+E(xc)   XCENC  =       -20.04545696
  PAW double counting   =      1514.36848356    -1421.27055995
  entropy T*S    EENTRO =        -0.00016740
  eigenvalues    EBANDS =       -86.01469275
  atomic energy  EATOM  =      1741.10451121
  Solvation  Ediel_sol  =         0.00000000
  ---------------------------------------------------
  free energy    TOTEN  =       -24.82579801 eV

  energy without entropy =      -24.82563061  energy(sigma->0) =      -24.82571431


--------------------------------------------------------------------------------------------------------




--------------------------------------- Iteration      1(   6)  ---------------------------------------


    POTLOK:  cpu time    0.0692: real time    0.0856
    SETDIJ:  cpu time    0.0794: real time    0.0795
     EDDAV:  cpu time    1.1937: real time    1.1940
       DOS:  cpu time    0.0025: real time    0.0027
    CHARGE:  cpu time    0.2110: real time    0.2111
    MIXING:  cpu time    0.0051: real time    0.0055
    --------------------------------------------
      LOOP:  cpu time    1.5609: real time    1.5807

 eigenvalue-minimisations  :  3520
 total energy-change (2. order) : 0.1006788E+01  (-0.2482881E+00)
 number of electron      25.0000000 magnetization
 augmentation part        4.9111170 magnetization

 Broyden mixing:
  rms(total) = 0.22116E+01    rms(broyden)= 0.22116E+01
  rms(prec ) = 0.22840E+01
  weight for this iteration     100.00

 eigenvalues of (default mixing * dielectric matrix)
  average eigenvalue GAMMA=   2.6971
  2.6971

 Free energy of the ion-electron system (eV)
  ---------------------------------------------------
  alpha Z        PSCENC =        93.07000245
  Ewald energy   TEWEN  =     -1497.52933121
  -Hartree energ DENC   =      -332.74120301
  -exchange      EXHF   =         0.00000000
  -V(xc)+E(xc)   XCENC  =       -20.61403862
  PAW double counting   =      1797.81473917    -1706.93018245
  entropy T*S    EENTRO =        -0.00028790
  eigenvalues    EBANDS =       -97.99321935
  atomic energy  EATOM  =      1741.10451121
  Solvation  Ediel_sol  =         0.00000000
  ---------------------------------------------------
  free energy    TOTEN  =       -23.81900972 eV

  energy without entropy =      -23.81872182  energy(sigma->0) =      -23.81886577


--------------------------------------------------------------------------------------------------------




--------------------------------------- Iteration      1(   7)  ---------------------------------------


    POTLOK:  cpu time    0.0453: real time    0.0690
    SETDIJ:  cpu time    0.0756: real time    0.0757
     EDDAV:  cpu time    1.2163: real time    1.2165
       DOS:  cpu time    0.0026: real time    0.0028
    CHARGE:  cpu time    0.1879: real time    0.1880
    MIXING:  cpu time    0.0043: real time    0.0047
    --------------------------------------------
      LOOP:  cpu time    1.5320: real time    1.5544

 eigenvalue-minimisations  :  3720
 total energy-change (2. order) : 0.1543255E+00  (-0.1154583E+00)
 number of electron      25.0000000 magnetization
 augmentation part        5.0247971 magnetization

 Broyden mixing:
  rms(total) = 0.30404E+00    rms(broyden)= 0.30404E+00
  rms(prec ) = 0.38185E+00
  weight for this iteration     100.00

 eigenvalues of (default mixing * dielectric matrix)
  average eigenvalue GAMMA=   1.8670
  1.3698  2.3642

 Free energy of the ion-electron system (eV)
  ---------------------------------------------------
  alpha Z        PSCENC =        93.07000245
  Ewald energy   TEWEN  =     -1497.52933121
  -Hartree energ DENC   =      -321.75225013
  -exchange      EXHF   =         0.00000000
  -V(xc)+E(xc)   XCENC  =       -20.95879620
  PAW double counting   =      2176.78912921    -2088.47522355
  entropy T*S    EENTRO =        -0.00036806
  eigenvalues    EBANDS =      -105.91235794
  atomic energy  EATOM  =      1741.10451121
  Solvation  Ediel_sol  =         0.00000000
  ---------------------------------------------------
  free energy    TOTEN  =       -23.66468422 eV

  energy without entropy =      -23.66431616  energy(sigma->0) =      -23.66450019


--------------------------------------------------------------------------------------------------------




--------------------------------------- Iteration      1(   8)  ---------------------------------------


    POTLOK:  cpu time    0.0459: real time    0.0622
    SETDIJ:  cpu time    0.0779: real time    0.0782
     EDDAV:  cpu time    1.1112: real time    1.1114
       DOS:  cpu time    0.0024: real time    0.0027
    CHARGE:  cpu time    0.2024: real time    0.2025
    MIXING:  cpu time    0.0041: real time    0.0064
    --------------------------------------------
      LOOP:  cpu time    1.4440: real time    1.4644

 eigenvalue-minimisations  :  3248
 total energy-change (2. order) : 0.2627322E-01  (-0.2578938E-01)
 number of electron      25.0000000 magnetization
 augmentation part        4.9818581 magnetization

 Broyden mixing:
  rms(total) = 0.79260E-01    rms(broyden)= 0.79260E-01
  rms(prec ) = 0.10316E+00
  weight for this iteration     100.00

 eigenvalues of (default mixing * dielectric matrix)
  average eigenvalue GAMMA=   1.7140
  2.5690  1.2865  1.2865

 Free energy of the ion-electron system (eV)
  ---------------------------------------------------
  alpha Z        PSCENC =        93.07000245
  Ewald energy   TEWEN  =     -1497.52933121
  -Hartree energ DENC   =      -325.29938868
  -exchange      EXHF   =         0.00000000
  -V(xc)+E(xc)   XCENC  =       -20.81719270
  PAW double counting   =      2183.22581043    -2094.85797167
  entropy T*S    EENTRO =        -0.00016266
  eigenvalues    EBANDS =      -102.53468817
  atomic energy  EATOM  =      1741.10451121
  Solvation  Ediel_sol  =         0.00000000
  ---------------------------------------------------
  free energy    TOTEN  =       -23.63841101 eV

  energy without entropy =      -23.63824835  energy(sigma->0) =      -23.63832968


--------------------------------------------------------------------------------------------------------




--------------------------------------- Iteration      1(   9)  ---------------------------------------


    POTLOK:  cpu time    0.0365: real time    0.0609
    SETDIJ:  cpu time    0.0752: real time    0.0753
     EDDAV:  cpu time    1.2128: real time    1.2131
       DOS:  cpu time    0.0026: real time    0.0028
    CHARGE:  cpu time    0.1860: real time    0.1861
    MIXING:  cpu time    0.0042: real time    0.0049
    --------------------------------------------
      LOOP:  cpu time    1.5174: real time    1.5420

 eigenvalue-minimisations  :  3552
 total energy-change (2. order) : 0.9451462E-03  (-0.2636596E-02)
 number of electron      25.0000000 magnetization
 augmentation part        4.9800066 magnetization

 Broyden mixing:
  rms(total) = 0.26353E-01    rms(broyden)= 0.26353E-01
  rms(prec ) = 0.47012E-01
  weight for this iteration     100.00

 eigenvalues of (default mixing * dielectric matrix)
  average eigenvalue GAMMA=   1.5031
  2.4813  1.5548  0.9880  0.9880

 Free energy of the ion-electron system (eV)
  ---------------------------------------------------
  alpha Z        PSCENC =        93.07000245
  Ewald energy   TEWEN  =     -1497.52933121
  -Hartree energ DENC   =      -324.76206038
  -exchange      EXHF   =         0.00000000
  -V(xc)+E(xc)   XCENC  =       -20.83000670
  PAW double counting   =      2212.48625792    -2124.17589648
  entropy T*S    EENTRO =        -0.00018756
  eigenvalues    EBANDS =      -103.00075510
  atomic energy  EATOM  =      1741.10451121
  Solvation  Ediel_sol  =         0.00000000
  ---------------------------------------------------
  free energy    TOTEN  =       -23.63746586 eV

  energy without entropy =      -23.63727830  energy(sigma->0) =      -23.63737208


--------------------------------------------------------------------------------------------------------




--------------------------------------- Iteration      1(  10)  ---------------------------------------


    POTLOK:  cpu time    0.0408: real time    0.0688
    SETDIJ:  cpu time    0.0777: real time    0.0778
     EDDAV:  cpu time    1.1641: real time    1.1643
       DOS:  cpu time    0.0043: real time    0.0045
    CHARGE:  cpu time    0.1847: real time    0.1848
    MIXING:  cpu time    0.0054: real time    0.0055
    --------------------------------------------
      LOOP:  cpu time    1.4770: real time    1.5061

 eigenvalue-minimisations  :  3464
 total energy-change (2. order) : 0.5384041E-03  (-0.2783906E-03)
 number of electron      25.0000000 magnetization
 augmentation part        4.9855551 magnetization

 Broyden mixing:
  rms(total) = 0.13487E-01    rms(broyden)= 0.13487E-01
  rms(prec ) = 0.18686E-01
  weight for this iteration     100.00

 eigenvalues of (default mixing * dielectric matrix)
  average eigenvalue GAMMA=   1.4124
  2.4747  1.8718  1.0442  1.0442  0.6272

 Free energy of the ion-electron system (eV)
  ---------------------------------------------------
  alpha Z        PSCENC =        93.07000245
  Ewald energy   TEWEN  =     -1497.52933121
  -Hartree energ DENC   =      -324.79839122
  -exchange      EXHF   =         0.00000000
  -V(xc)+E(xc)   XCENC  =       -20.82767481
  PAW double counting   =      2210.68990936    -2122.33999673
  entropy T*S    EENTRO =        -0.00018293
  eigenvalues    EBANDS =      -103.00577358
  atomic energy  EATOM  =      1741.10451121
  Solvation  Ediel_sol  =         0.00000000
  ---------------------------------------------------
  free energy    TOTEN  =       -23.63692746 eV

  energy without entropy =      -23.63674453  energy(sigma->0) =      -23.63683599


--------------------------------------------------------------------------------------------------------




--------------------------------------- Iteration      1(  11)  ---------------------------------------


    POTLOK:  cpu time    0.0701: real time    0.0850
    SETDIJ:  cpu time    0.0780: real time    0.0781
     EDDAV:  cpu time    1.1862: real time    1.1864
       DOS:  cpu time    0.0024: real time    0.0026
    CHARGE:  cpu time    0.1846: real time    0.1847
    MIXING:  cpu time    0.0052: real time    0.0053
    --------------------------------------------
      LOOP:  cpu time    1.5264: real time    1.5418

 eigenvalue-minimisations  :  3544
 total energy-change (2. order) : 0.6198498E-04  (-0.5790085E-04)
 number of electron      25.0000000 magnetization
 augmentation part        4.9839517 magnetization

 Broyden mixing:
  rms(total) = 0.22361E-02    rms(broyden)= 0.22361E-02
  rms(prec ) = 0.35227E-02
  weight for this iteration     100.00

 eigenvalues of (default mixing * dielectric matrix)
  average eigenvalue GAMMA=   1.4152
  2.3870  2.2227  1.1938  1.1938  0.8392  0.6549

 Free energy of the ion-electron system (eV)
  ---------------------------------------------------
  alpha Z        PSCENC =        93.07000245
  Ewald energy   TEWEN  =     -1497.52933121
  -Hartree energ DENC   =      -325.02544614
  -exchange      EXHF   =         0.00000000
  -V(xc)+E(xc)   XCENC  =       -20.81962079
  PAW double counting   =      2208.96137441    -2120.56537653
  entropy T*S    EENTRO =        -0.00017480
  eigenvalues    EBANDS =      -102.83280406
  atomic energy  EATOM  =      1741.10451121
  Solvation  Ediel_sol  =         0.00000000
  ---------------------------------------------------
  free energy    TOTEN  =       -23.63686547 eV

  energy without entropy =      -23.63669067  energy(sigma->0) =      -23.63677807


--------------------------------------------------------------------------------------------------------




--------------------------------------- Iteration      1(  12)  ---------------------------------------


    POTLOK:  cpu time    0.0467: real time    0.0641
    SETDIJ:  cpu time    0.0769: real time    0.0775
     EDDAV:  cpu time    1.1359: real time    1.1360
       DOS:  cpu time    0.0026: real time    0.0028
    CHARGE:  cpu time    0.1841: real time    0.1843
    MIXING:  cpu time    0.0097: real time    0.0099
    --------------------------------------------
      LOOP:  cpu time    1.4559: real time    1.4747

 eigenvalue-minimisations  :  3392
 total energy-change (2. order) : 0.7057499E-06  (-0.1458490E-05)
 number of electron      25.0000000 magnetization
 augmentation part        4.9837018 magnetization

 Broyden mixing:
  rms(total) = 0.12372E-02    rms(broyden)= 0.12372E-02
  rms(prec ) = 0.17198E-02
  weight for this iteration     100.00

 eigenvalues of (default mixing * dielectric matrix)
  average eigenvalue GAMMA=   1.5263
  2.5697  2.5697  1.8157  1.0594  1.0594  0.9725  0.6375

 Free energy of the ion-electron system (eV)
  ---------------------------------------------------
  alpha Z        PSCENC =        93.07000245
  Ewald energy   TEWEN  =     -1497.52933121
  -Hartree energ DENC   =      -325.02466901
  -exchange      EXHF   =         0.00000000
  -V(xc)+E(xc)   XCENC  =       -20.81980501
  PAW double counting   =      2210.36342941    -2121.96180970
  entropy T*S    EENTRO =        -0.00017525
  eigenvalues    EBANDS =      -102.83901763
  atomic energy  EATOM  =      1741.10451121
  Solvation  Ediel_sol  =         0.00000000
  ---------------------------------------------------
  free energy    TOTEN  =       -23.63686477 eV

  energy without entropy =      -23.63668951  energy(sigma->0) =      -23.63677714


--------------------------------------------------------------------------------------------------------




--------------------------------------- Iteration      1(  13)  ---------------------------------------


    POTLOK:  cpu time    0.0359: real time    0.0635
    SETDIJ:  cpu time    0.0764: real time    0.0766
     EDDAV:  cpu time    1.2613: real time    1.2615
       DOS:  cpu time    0.0028: real time    0.0030
    CHARGE:  cpu time    0.1960: real time    0.1962
    MIXING:  cpu time    0.0049: real time    0.0050
    --------------------------------------------
      LOOP:  cpu time    1.5772: real time    1.6058

 eigenvalue-minimisations  :  3608
 total energy-change (2. order) : 0.8777147E-07  (-0.5255067E-06)
 number of electron      25.0000000 magnetization
 augmentation part        4.9837407 magnetization

 Broyden mixing:
  rms(total) = 0.95143E-03    rms(broyden)= 0.95142E-03
  rms(prec ) = 0.10528E-02
  weight for this iteration     100.00

 eigenvalues of (default mixing * dielectric matrix)
  average eigenvalue GAMMA=   1.4208
  2.6076  2.4711  1.7983  1.1581  0.9736  0.9736  0.6231  0.7613

 Free energy of the ion-electron system (eV)
  ---------------------------------------------------
  alpha Z        PSCENC =        93.07000245
  Ewald energy   TEWEN  =     -1497.52933121
  -Hartree energ DENC   =      -325.01719171
  -exchange      EXHF   =         0.00000000
  -V(xc)+E(xc)   XCENC  =       -20.82019875
  PAW double counting   =      2212.30037811    -2123.89225490
  entropy T*S    EENTRO =        -0.00017585
  eigenvalues    EBANDS =      -102.85260402
  atomic energy  EATOM  =      1741.10451121
  Solvation  Ediel_sol  =         0.00000000
  ---------------------------------------------------
  free energy    TOTEN  =       -23.63686468 eV

  energy without entropy =      -23.63668883  energy(sigma->0) =      -23.63677675


--------------------------------------------------------------------------------------------------------




--------------------------------------- Iteration      1(  14)  ---------------------------------------


    POTLOK:  cpu time    0.0471: real time    0.0593
    SETDIJ:  cpu time    0.0760: real time    0.0762
     EDDAV:  cpu time    1.1165: real time    1.1167
       DOS:  cpu time    0.0026: real time    0.0045
    --------------------------------------------
      LOOP:  cpu time    1.2422: real time    1.2555

 eigenvalue-minimisations  :  3280
 total energy-change (2. order) :-0.7428480E-07  (-0.6607808E-07)
 number of electron      25.0000000 magnetization
 augmentation part        4.9837407 magnetization

 Free energy of the ion-electron system (eV)
  ---------------------------------------------------
  alpha Z        PSCENC =        93.07000245
  Ewald energy   TEWEN  =     -1497.52933121
  -Hartree energ DENC   =      -325.02001892
  -exchange      EXHF   =         0.00000000
  -V(xc)+E(xc)   XCENC  =       -20.82002477
  PAW double counting   =      2212.37000494    -2123.96263249
  entropy T*S    EENTRO =        -0.00017571
  eigenvalues    EBANDS =      -102.84920025
  atomic energy  EATOM  =      1741.10451121
  Solvation  Ediel_sol  =         0.00000000
  ---------------------------------------------------
  free energy    TOTEN  =       -23.63686475 eV

  energy without entropy =      -23.63668905  energy(sigma->0) =      -23.63677690


--------------------------------------------------------------------------------------------------------




 average (electrostatic) potential at core
  the test charge radii are     1.1707  1.1712  1.2059
  (the norm of the test charge is              1.0000)
       1 -36.7729       2 -86.0403       3 -67.5606



 E-fermi :   7.3236     XC(G=0): -10.7265     alpha+bet :-11.9588


 k-point     1 :       0.0000    0.0000    0.0000
  band No.  band energies     occupation
      1     -25.1562      2.00000
      2     -25.1562      2.00000
      3     -25.1562      2.00000
      4      -4.4675      2.00000
      5       2.0578      2.00000
      6       2.0578      2.00000
      7       2.0578      2.00000
      8       2.8491      2.00000
      9       2.8491      2.00000
     10       5.6836      2.00000
     11       6.0035      2.00000
     12       6.0035      2.00000
     13       6.0035      2.00000
     14       8.1028      0.00000
     15       8.1028      0.00000
     16       8.1028      0.00000

 k-point     2 :       0.0769   -0.0000   -0.0000
  band No.  band energies     occupation
      1     -25.1568      2.00000
      2     -25.1562      2.00000
      3     -25.1562      2.00000
      4      -4.4143      2.00000
      5       1.9707      2.00000
      6       2.0418      2.00000
      7       2.0418      2.00000
      8       2.8760      2.00000
      9       2.8760      2.00000
     10       5.2331      2.00000
     11       5.9372      2.00000
     12       5.9372      2.00000
     13       6.2375      2.00000
     14       7.9550      0.00000
     15       7.9550      0.00000
     16       8.3957      0.00000

 k-point     3 :       0.1538    0.0000   -0.0000
  band No.  band energies     occupation
      1     -25.1582      2.00000
      2     -25.1562      2.00000
      3     -25.1562      2.00000
      4      -4.2602      2.00000
      5       1.7342      2.00000
      6       2.0068      2.00000
      7       2.0068      2.00000
      8       2.9389      2.00000
      9       2.9389      2.00000
     10       4.5485      2.00000
     11       5.7708      2.00000
     12       5.7708      2.00000
     13       6.4852      2.00000
     14       7.8780      0.00000
     15       7.8780      0.00000
     16       9.0426      0.00000

 k-point     4 :       0.2308    0.0000   -0.0000
  band No.  band energies     occupation
      1     -25.1602      2.00000
      2     -25.1562      2.00000
      3     -25.1562      2.00000
      4      -4.0236      2.00000
      5       1.3996      2.00000
      6       1.9750      2.00000
      7       1.9750      2.00000
      8       3.0016      2.00000
      9       3.0016      2.00000
     10       3.9046      2.00000
     11       5.5739      2.00000
     12       5.5739      2.00000
     13       6.7120      2.00000
     14       7.9204      0.00000
     15       7.9204      0.00000
     16       9.6107      0.00000

 k-point     5 :       0.3077    0.0000   -0.0000
  band No.  band energies     occupation
      1     -25.1624      2.00000
      2     -25.1562      2.00000
      3     -25.1562      2.00000
      4      -3.7397      2.00000
      5       1.0218      2.00000
      6       1.9592      2.00000
      7       1.9592      2.00000
      8       3.0375      2.00000
      9       3.0375      2.00000
     10       3.4001      2.00000
     11       5.4064      2.00000
     12       5.4064      2.00000
     13       6.9227      2.00000
     14       8.0476      0.00000
     15       8.0476      0.00000
     16       9.2965      0.00000

 k-point     6 :       0.3846    0.0000   -0.0000
  band No.  band energies     occupation
      1     -25.1641      2.00000
      2     -25.1562      2.00000
      3     -25.1562      2.00000
      4      -3.4676      2.00000
      5       0.6727      2.00000
      6       1.9586      2.00000
      7       1.9586      2.00000
      8       3.0424      2.00000
      9       3.0424      2.00000
     10       3.0699      2.00000
     11       5.2964      2.00000
     12       5.2964      2.00000
     13       7.1237      2.00000
     14       8.2120      0.00000
     15       8.2120      0.00000
     16       8.6751      0.00000

 k-point     7 :       0.4615    0.0000   -0.0000
  band No.  band energies     occupation
      1     -25.1651      2.00000
      2     -25.1562      2.00000
      3     -25.1562      2.00000
      4      -3.2926      2.00000
      5       0.4534      2.00000
      6       1.9633      2.00000
      7       1.9633      2.00000
      8       2.9106      2.00000
      9       3.0346      2.00000
     10       3.0346      2.00000
     11       5.2452      2.00000
     12       5.2452      2.00000
     13       7.2936      1.99998
     14       8.2530      0.00000
     15       8.3372      0.00000
     16       8.3372      0.00000

 k-point     8 :       0.0769    0.0769   -0.0000
  band No.  band energies     occupation
      1     -25.1568      2.00000
      2     -25.1563      2.00000
      3     -25.1563      2.00000
      4      -4.3968      2.00000
      5       1.8618      2.00000
      6       2.0844      2.00000
      7       2.0844      2.00000
      8       2.8769      2.00000
      9       2.8818      2.00000
     10       5.2243      2.00000
     11       5.8199      2.00000
     12       5.8199      2.00000
     13       6.3706      2.00000
     14       7.7966      0.00000
     15       8.3010      0.00000
     16       8.3516      0.00000

 k-point     9 :       0.1538    0.0769   -0.0000
  band No.  band energies     occupation
      1     -25.1578      2.00000
      2     -25.1564      2.00000
      3     -25.1563      2.00000
      4      -4.2773      2.00000
      5       1.6553      2.00000
      6       2.0675      2.00000
      7       2.0945      2.00000
      8       2.9183      2.00000
      9       2.9255      2.00000
     10       4.7394      2.00000
     11       5.6374      2.00000
     12       5.6616      2.00000
     13       6.6172      2.00000
     14       7.6775      0.00000
     15       8.1012      0.00000
     16       8.7441      0.00000

 k-point    10 :       0.2308    0.0769    0.0000
  band No.  band energies     occupation
      1     -25.1596      2.00000
      2     -25.1565      2.00000
      3     -25.1563      2.00000
      4      -4.0698      2.00000
      5       1.3920      2.00000
      6       2.0027      2.00000
      7       2.0826      2.00000
      8       2.9740      2.00000
      9       2.9907      2.00000
     10       4.1159      2.00000
     11       5.4525      2.00000
     12       5.4803      2.00000
     13       6.8889      2.00000
     14       7.7044      0.00000
     15       8.0206      0.00000
     16       9.2149      0.00000

 k-point    11 :       0.3077    0.0769   -0.0000
  band No.  band energies     occupation
      1     -25.1617      2.00000
      2     -25.1565      2.00000
      3     -25.1564      2.00000
      4      -3.8033      2.00000
      5       1.0833      2.00000
      6       1.9464      2.00000
      7       2.0642      2.00000
      8       3.0205      2.00000
      9       3.0360      2.00000
     10       3.5664      2.00000
     11       5.3079      2.00000
     12       5.3104      2.00000
     13       7.0582      2.00000
     14       7.9182      0.00000
     15       8.0527      0.00000
     16       9.3440      0.00000

 k-point    12 :       0.3846    0.0769   -0.0000
  band No.  band energies     occupation
      1     -25.1635      2.00000
      2     -25.1564      2.00000
      3     -25.1564      2.00000
      4      -3.5280      2.00000
      5       0.7706      2.00000
      6       1.9226      2.00000
      7       2.0436      2.00000
      8       3.0305      2.00000
      9       3.0494      2.00000
     10       3.1823      2.00000
     11       5.1801      2.00000
     12       5.2208      2.00000
     13       7.1824      2.00000
     14       8.1722      0.00000
     15       8.1934      0.00000
     16       8.8277      0.00000

 k-point    13 :       0.4615    0.0769   -0.0000
  band No.  band energies     occupation
      1     -25.1647      2.00000
      2     -25.1565      2.00000
      3     -25.1564      2.00000
      4      -3.3189      2.00000
      5       0.5336      2.00000
      6       1.9313      2.00000
      7       2.0153      2.00000
      8       2.9252      2.00000
      9       3.0481      2.00000
     10       3.0650      2.00000
     11       5.0983      2.00000
     12       5.1871      2.00000
     13       7.3219      1.19130
     14       8.2821      0.00000
     15       8.3115      0.00000
     16       8.4659      0.00000

 k-point    14 :      -0.4615    0.0769   -0.0000
  band No.  band energies     occupation
      1     -25.1651      2.00000
      2     -25.1567      2.00000
      3     -25.1563      2.00000
      4      -3.2583      2.00000
      5       0.4656      2.00000
      6       1.9631      2.00000
      7       1.9755      2.00000
      8       2.8740      2.00000
[...]
  212              fftbas_plan_mpi                       0.080410                     12   6
  213                dfftw_execute                         0.034792                   36   7
  214                map_backward                          0.004169                   12   7
  215                  map_gather                            0.001227                  6   8
  216                  m_alltoallv_z                         0.001562                  6   8
  217                  map_scatter                           0.001093                  6   8
  218                map_forward                           0.038478                   12   7
  219                  map_gather                            0.019472                  6   8
  220                  m_alltoallv_z                         0.006671                  6   8
  221                  map_scatter                           0.012038                  6   8
  222            M_sumb_d                              0.000805                        6   5
  223          M_sumb_d                              0.000029                          1   4
  224        setdij_                               1.373569                           20   3
  225          fft3d_mpi                             0.285184                         40   4
  226            fftbas_plan_mpi                       0.261439                       40   5
  227              dfftw_execute                         0.116131                    120   6
  228              map_backward                          0.014278                     40   6
  229                map_gather                            0.004457                   20   7
  230                m_alltoallv_z                         0.005019                   20   7
  231                map_scatter                           0.003830                   20   7
  232              map_forward                           0.120799                     40   6
  233                map_gather                            0.058913                   20   7
  234                m_alltoallv_z                         0.020359                   20   7
  235                map_scatter                           0.040476                   20   7
  236          M_sumb_d                              0.007367                         20   4
  237        set_dd_magatom                        0.000004                            1   3
  238        set_dd_paw                            0.009578                            1   3
  239          set_rsgf_all                          0.000004                          1   4
  240          M_sumb_d                              0.009396                          8   4
  241        strkin                                0.000801                            1   3
  242          M_sumb_d                              0.000357                          1   4
  243        strelo                                0.003068                            1   3
  244          M_sumb_d                              0.000120                          2   4
  245        strenl                                0.781637                            1   3
  246          spher                                 0.627491                         19   4
  247          phase                                 0.012813                        189   4
  248          proj1                                 0.124163                        756   4
  249            crexp_mul_wave                        0.019572                     2268   5
  250            M_sumb_d                              0.033294                      756   5
  251          M_sumb_d                              0.003841                          1   4
  252        M_sumb_d                              0.000204                            6   3
  253        fft3d_mpi                             0.017720                           11   3
  254          fftbas_plan_mpi                       0.016294                         11   4
  255            dfftw_execute                         0.006375                       33   5
  256            map_forward                           0.003191                       10   5
  257              map_gather                            0.000640                      5   6
  258              m_alltoallv_z                         0.001257                      5   6
  259              map_scatter                           0.001054                      5   6
  260            map_backward                          0.004409                       12   5
  261              map_gather                            0.001307                      6   6
  262              m_alltoallv_z                         0.001726                      6   6
  263              map_scatter                           0.001087                      6   6
  264        ggaall_grid                           0.002063                            1   3
  265        forhar                                0.007288                            2   3
  266          M_sumb_d                              0.000149                          2   4
  267        strehar                               0.003213                            1   3
  268          M_sumb_d                              0.000131                          1   4
  269        chggra                                0.007262                            1   3
  270          fft3d_mpi                             0.004748                          3   4
  271            fftbas_plan_mpi                       0.004391                        3   5
  272              dfftw_execute                         0.001710                      9   6
  273              map_backward                          0.000755                      2   6
  274                map_gather                            0.000198                    1   7
  275                m_alltoallv_z                         0.000323                    1   7
  276                map_scatter                           0.000183                    1   7
  277              map_forward                           0.001267                      4   6
  278                map_gather                            0.000263                    2   7
  279                m_alltoallv_z                         0.000496                    2   7
  280                map_scatter                           0.000407                    2   7
  281          M_sumb_d                              0.000124                          3   4
  282        brmix                                 0.011483                            1   3
  283          M_sumb_d                              0.000306                          6   4
  284          brpre                                 0.000053                          1   4
  285          setg0                                 0.001664                          1   4
  286          broyd                                 0.001801                          1   4
  287            M_sumb_d                              0.000469                       16   5
  288            brget                                 0.000281                       54   5
  289            brsav                                 0.000069                       14   5
  290          M_bcast_z                             0.006483                          1   4
  291          M_bcast_d                             0.000061                          1   4
  292        M_bcast_d                             0.000401                            2   3
  293      potlok                                0.030814                              1   2
  294        fft3d_mpi                             0.020135                           13   3
  295          fftbas_plan_mpi                       0.018625                         13   4
  296            dfftw_execute                         0.007267                       39   5
  297            map_forward                           0.004316                       14   5
  298              map_gather                            0.000842                      8   6
  299              m_alltoallv_z                         0.001683                      8   6
  300              map_scatter                           0.001441                      8   6
  301            map_backward                          0.004335                       12   5
  302              map_gather                            0.001353                      6   6
  303              m_alltoallv_z                         0.001523                      6   6
  304              map_scatter                           0.001160                      6   6
  305        ggaall_grid                           0.002048                            1   3
  306        M_sumb_d                              0.000254                            6   3
  307        M_bcast_d                             0.000105                            1   3
  308      potlok_metagga                        0.000003                              1   2
  309      set_dd_magatom                        0.000003                              1   2
  310      set_dd_paw                            0.000361                              1   2
  311        set_rsgf_all                          0.000004                            1   3
  312        M_sumb_d                              0.000215                            8   3
  313      densta                                0.002034                              1   2
  314        M_sumb_d                              0.000832                           41   3
  315      lprj_proall                           0.000008                              1   2

 Flat profile
 ============

             routine name                   CPU           calls
 ---------------------------------------------------------------
 total_time                             12.857092           1
 dfftw_execute                           3.494903       28113
 eddav                                   3.036114          14
 setdij_                                 2.126616          38
 fftbas_plan_mpi                         2.077506        9373
 M_sumb_d                                1.433541       26536
 set_charge                              1.055928          10
 m_alltoallv_z                           1.001581        9392
 elmin                                   0.947718           1
 spher                                   0.718575          20
 M_alltoall_d                            0.640740       30744
 pdssyex_zheevx                          0.594666         294
 vhamil                                  0.498603        4164
 orth1                                   0.478543        6267
 map_gather                              0.450493        9392
 map_scatter                             0.436391        9392
 proj1                                   0.425394        3828
 fftwav_mpi                              0.419638        4953
 map_forward                             0.417709       10152
 gemm                                    0.355785       12492
 M_bcast_z                               0.303663        3789
 vnlac0                                  0.269283        4164
 redis_pw                                0.257291       11946
 crpa_reader                             0.241837           1
 hamiltmu                                0.227754        2082
 redis_proj                              0.224237       14955
 fft3d_mpi                               0.189328        9371
 w1_copy                                 0.176257       12492
 map_backward                            0.151790        8590
 work_mul_crexp                          0.142666       12492
 fftext_mpi                              0.135641        4164
 eccp                                    0.122495        1176
 crexp_mul_wave                          0.108962       11484
 potlok                                  0.097378          11
 kinhamil                                0.083364        4164
 overl                                   0.079499        7173
 M_bcast_d                               0.068851        2110
 pw_charge                               0.061100         789
 force_and_stress                        0.051740           1
 overl1                                  0.049242        4164
 lincom                                  0.046111         315
 apply_precond                           0.044074        2988
 setup_precond                           0.039498        1176
 phase                                   0.035260         526
 w1_projall                              0.032552        1494
 ggaall_grid                             0.024591          12
 fornl                                   0.022428           1
 soft_charge                             0.021406          10
 truncate_high_frequency_w1              0.017961        5340
 densta                                  0.017201          15
 setg0                                   0.014779          11
 strenl                                  0.013329           1
 brmix                                   0.011082          10
 forhar                                  0.007139           2
 broyd                                   0.006920          10
 forloc                                  0.003483           1
 strehar                                 0.003082           1
 strelo                                  0.002948           1
 set_dd_paw                              0.002496          12
 chggra                                  0.002390           1
 depsum                                  0.002280          10
 orthch                                  0.002015           1
 brget                                   0.001550         309
 brgrid                                  0.001217           1
 proj                                    0.001090          21
 brsav                                   0.000925          96
 choleski                                0.000891          21
 brpre                                   0.000710          10
 strkin                                  0.000444           1
 fordep                                  0.000111           1
 vectorpot                               0.000090          11
 set_rsgf_all                            0.000057          12
 set_dd_magatom                          0.000046          12
 potlok_metagga                          0.000043          11
 set_kineden                             0.000032           9
 rotate_active_occupied_orbital          0.000015           1
 lprj_proall                             0.000008           1
 redis_pw_over_bands                     0.000004           1
 ---------------------------------------------------------------
  summed up times    36.8901731967926

 Accumulative profile
 ====================

             routine name                   CPU           calls
 ---------------------------------------------------------------
 total_time                             36.890173           1
 elmin                                  20.195568           1
 eddav                                  16.271315          14
 fft3d_mpi                               8.145168        9371
 fftbas_plan_mpi                         8.030373        9373
 hamiltmu                                5.139897        2082
 fftwav_mpi                              4.441836        4953
 dfftw_execute                           3.494903       28113
 kinhamil                                3.346368        4164
 fftext_mpi                              3.263004        4164
 force_and_stress                        2.917894           1
 setdij_                                 2.716062          38
 set_charge                              1.989429          10
 map_forward                             1.541186       10152
 M_sumb_d                                1.433541       26536
 vnlac0                                  1.017930        4164
 m_alltoallv_z                           1.001581        9392
 map_backward                            0.916779        8590
 strenl                                  0.781637           1
 soft_charge                             0.774655          10
 proj1                                   0.750023        3828
 spher                                   0.718575          20
 w1_projall                              0.644474        1494
 M_alltoall_d                            0.640740       30744
 redis_pw                                0.616460       11946
 pdssyex_zheevx                          0.594666         294
 redis_proj                              0.505807       14955
 vhamil                                  0.498603        4164
 orth1                                   0.478543        6267
 map_gather                              0.450493        9392
 map_scatter                             0.436391        9392
 fordep                                  0.422516           1
 gemm                                    0.355785       12492
 potlok                                  0.349625          11
 M_bcast_z                               0.303663        3789
 crpa_reader                             0.241837           1
 eccp                                    0.187870        1176
 w1_copy                                 0.176257       12492
 work_mul_crexp                          0.142666       12492
 crexp_mul_wave                          0.108962       11484
 overl                                   0.079499        7173
 set_dd_paw                              0.073362          12
 setup_precond                           0.069255        1176
 M_bcast_d                               0.068851        2110
 pw_charge                               0.061100         789
 brmix                                   0.059089          10
 overl1                                  0.049242        4164
 lincom                                  0.046111         315
 apply_precond                           0.044074        2988
 phase                                   0.035260         526
 fornl                                   0.031437           1
 densta                                  0.029702          15
 ggaall_grid                             0.024591          12
 orthch                                  0.022899           1
 truncate_high_frequency_w1              0.017961        5340
 proj                                    0.015028          21
 setg0                                   0.014779          11
 broyd                                   0.013247          10
 forhar                                  0.007288           2
 chggra                                  0.007262           1
 depsum                                  0.006530          10
 forloc                                  0.003541           1
 strehar                                 0.003213           1
 strelo                                  0.003068           1
 brget                                   0.001550         309
 brgrid                                  0.001217           1
 brsav                                   0.000925          96
 choleski                                0.000891          21
 strkin                                  0.000801           1
 brpre                                   0.000710          10
 vectorpot                               0.000090          11
 set_rsgf_all                            0.000057          12
 set_dd_magatom                          0.000046          12
 potlok_metagga                          0.000043          11
 set_kineden                             0.000032           9
 rotate_active_occupied_orbital          0.000015           1
 lprj_proall                             0.000008           1
 redis_pw_over_bands                     0.000004           1
 ---------------------------------------------------------------

Profiling took   0.739182  0.894076  0.006340  0.004868 seconds
Profiling took   0.723020 seconds
