 ----------------------------------------------------
    OOO  PPPP  EEEEE N   N M   M PPPP
   O   O P   P E     NN  N MM MM P   P
   O   O PPPP  EEEEE N N N M M M PPPP   -- VERSION
   O   O P     E     N  NN M   M P
    OOO  P     EEEEE N   N M   M P
 ----------------------------------------------------
 running   64 mpi-ranks, with    1 threads/rank
 distrk:  each k-point on   16 cores,    4 groups
 distr:  one band on    4 cores,    4 groups
 using from now: INCAR
 vasp.6.0.8 29Jun18 (build Jun 13 2019 12:54:44) complex

 POSCAR found type information on POSCAR  Hf Sb Pt
 POSCAR found :  3 types and       3 ions
 scaLAPACK will be used

 -----------------------------------------------------------------------------
|                                                                             |
|  ADVICE TO THIS USER RUNNING 'VASP/VAMP'   (HEAR YOUR MASTER'S VOICE ...):  |
|                                                                             |
|      You enforced a specific xc-type in the INCAR file,                     |
|      a different type was found on the POTCAR file                          |
|          I HOPE YOU KNOW, WHAT YOU ARE  DOING                               |
|                                                                             |
 -----------------------------------------------------------------------------

 LDA part: xc-table for Pade appr. of Perdew
 POSCAR, INCAR and KPOINTS ok, starting setup
 FFT: planning ...
 WAVECAR not read
 entering main loop
       N       E                     dE             d eps       ncg     rms          rms(c)
 ELPA: falling back to scaLAPACK
 ELPA: falling back to scaLAPACK
 ELPA: falling back to scaLAPACK
 ELPA: falling back to scaLAPACK
DAV:   1     0.132419337856E+03    0.13242E+03   -0.13948E+04  2688   0.171E+03
DAV:   2    -0.195276091622E+02   -0.15195E+03   -0.15041E+03  3352   0.327E+02
DAV:   3    -0.247472778958E+02   -0.52197E+01   -0.51601E+01  3632   0.518E+01
DAV:   4    -0.248241021602E+02   -0.76824E-01   -0.76222E-01  3384   0.694E+00
DAV:   5    -0.248257980064E+02   -0.16958E-02   -0.16954E-02  3680   0.955E-01    0.343E+01
DAV:   6    -0.238190097182E+02    0.10068E+01   -0.24829E+00  3520   0.922E+00    0.221E+01
DAV:   7    -0.236646842245E+02    0.15433E+00   -0.11546E+00  3720   0.685E+00    0.304E+00
DAV:   8    -0.236384110076E+02    0.26273E-01   -0.25789E-01  3248   0.264E+00    0.793E-01
DAV:   9    -0.236374658614E+02    0.94515E-03   -0.26366E-02  3552   0.799E-01    0.264E-01
DAV:  10    -0.236369274573E+02    0.53840E-03   -0.27839E-03  3464   0.316E-01    0.135E-01
DAV:  11    -0.236368654723E+02    0.61985E-04   -0.57901E-04  3544   0.163E-01    0.224E-02
DAV:  12    -0.236368647665E+02    0.70575E-06   -0.14585E-05  3392   0.267E-02    0.124E-02
DAV:  13    -0.236368646788E+02    0.87771E-07   -0.52551E-06  3608   0.133E-02    0.951E-03
DAV:  14    -0.236368647530E+02   -0.74285E-07   -0.66078E-07  3280   0.413E-03
   1 F= -.23636865E+02 E0= -.23636777E+02  d E =-.175707E-03
