<?xml version="1.0" encoding="ISO-8859-1"?>
<modeling>
 <generator>
  <i name="program" type="string">vasp </i>
  <i name="version" type="string">6.0.8  </i>
  <i name="subversion" type="string">29Jun18 (build Jun 13 2019 12:54:44) complex                          parallel </i>
  <i name="platform" type="string">IFC18_CrayMPICH </i>
  <i name="date" type="string">2021 12 05 </i>
  <i name="time" type="string">14:21:53 </i>
 </generator>
 <incar>
  <i type="int" name="KPAR">     4</i>
  <i type="int" name="NPAR">     4</i>
  <i type="int" name="ISTART">     0</i>
  <i type="string" name="PREC"> ACC</i>
  <i type="string" name="ALGO"> Normal</i>
  <i type="logical" name="ADDGRID"> T  </i>
  <i type="int" name="ISPIN">     1</i>
  <i type="int" name="NELMIN">     5</i>
  <i type="int" name="IBRION">    -1</i>
  <i name="EDIFF">      0.00000010</i>
  <i type="int" name="NSW">     0</i>
  <i type="int" name="ISIF">     3</i>
  <i name="ENCUT">    700.00000000</i>
  <i type="logical" name="LREAL"> F  </i>
  <i type="int" name="ISMEAR">     0</i>
  <i name="SIGMA">      0.01000000</i>
  <i type="logical" name="LWAVE"> F  </i>
  <i type="logical" name="LCHARG"> F  </i>
  <i type="logical" name="LVTOT"> F  </i>
  <i type="string" name="ALGO"> Normal</i>
  <i type="string" name="GGA"> PS</i>
  <i name="EDIFF">      0.00000010</i>
  <i type="int" name="ISPIN">     1</i>
 </incar>
 <structure name="primitive_cell" >
  <crystal>
   <varray name="basis" >
    <v>       0.00000000       3.32017508       3.32017508 </v>
    <v>       3.32017508       0.00000000       3.32017508 </v>
    <v>       3.32017508       3.32017508       0.00000000 </v>
   </varray>
   <i name="volume">     73.20031531 </i>
   <varray name="rec_basis" >
    <v>      -0.15059447       0.15059447       0.15059447 </v>
    <v>       0.15059447      -0.15059447       0.15059447 </v>
    <v>       0.15059447       0.15059447      -0.15059447 </v>
   </varray>
  </crystal>
  <varray name="positions" >
   <v>       0.75000000       0.75000000       0.75000000 </v>
   <v>       0.25000000       0.25000000       0.25000000 </v>
   <v>       0.00000000       0.00000000       0.00000000 </v>
  </varray>
 </structure>
 <varray name="primitive_index" >
  <v type="int" >        1 </v>
  <v type="int" >        2 </v>
  <v type="int" >        3 </v>
 </varray>
 <kpoints>
  <generation param="Gamma">
   <v type="int" name="divisions">      13       13       13 </v>
   <v name="usershift">      0.00000000       0.00000000       0.00000000 </v>
   <v name="genvec1">      0.07692308      -0.00000000       0.00000000 </v>
   <v name="genvec2">     -0.00000000       0.07692308      -0.00000000 </v>
   <v name="genvec3">      0.00000000       0.00000000       0.07692308 </v>
   <v name="shift">      0.00000000       0.00000000       0.00000000 </v>
  </generation>
  <varray name="kpointlist" >
   <v>       0.00000000       0.00000000       0.00000000 </v>
   <v>       0.07692308      -0.00000000      -0.00000000 </v>
   <v>       0.15384615       0.00000000      -0.00000000 </v>
   <v>       0.23076923       0.00000000      -0.00000000 </v>
   <v>       0.30769231       0.00000000      -0.00000000 </v>
   <v>       0.38461538       0.00000000      -0.00000000 </v>
   <v>       0.46153846       0.00000000      -0.00000000 </v>
   <v>       0.07692308       0.07692308      -0.00000000 </v>
   <v>       0.15384615       0.07692308      -0.00000000 </v>
   <v>       0.23076923       0.07692308       0.00000000 </v>
   <v>       0.30769231       0.07692308      -0.00000000 </v>
   <v>       0.38461538       0.07692308      -0.00000000 </v>
   <v>       0.46153846       0.07692308      -0.00000000 </v>
   <v>      -0.46153846       0.07692308      -0.00000000 </v>
   <v>      -0.38461538       0.07692308       0.00000000 </v>
   <v>      -0.30769231       0.07692308       0.00000000 </v>
   <v>      -0.23076923       0.07692308       0.00000000 </v>
   <v>      -0.15384615       0.07692308       0.00000000 </v>
   <v>      -0.07692308       0.07692308      -0.00000000 </v>
   <v>       0.15384615       0.15384615      -0.00000000 </v>
   <v>       0.23076923       0.15384615       0.00000000 </v>
   <v>       0.30769231       0.15384615      -0.00000000 </v>
   <v>       0.38461538       0.15384615      -0.00000000 </v>
   <v>       0.46153846       0.15384615       0.00000000 </v>
   <v>      -0.46153846       0.15384615      -0.00000000 </v>
   <v>      -0.38461538       0.15384615      -0.00000000 </v>
   <v>      -0.30769231       0.15384615       0.00000000 </v>
   <v>      -0.23076923       0.15384615       0.00000000 </v>
   <v>      -0.15384615       0.15384615       0.00000000 </v>
   <v>       0.23076923       0.23076923      -0.00000000 </v>
   <v>       0.30769231       0.23076923       0.00000000 </v>
   <v>       0.38461538       0.23076923      -0.00000000 </v>
   <v>       0.46153846       0.23076923      -0.00000000 </v>
   <v>      -0.46153846       0.23076923       0.00000000 </v>
   <v>      -0.38461538       0.23076923       0.00000000 </v>
   <v>      -0.30769231       0.23076923       0.00000000 </v>
   <v>      -0.23076923       0.23076923       0.00000000 </v>
   <v>       0.30769231       0.30769231      -0.00000000 </v>
   <v>       0.38461538       0.30769231       0.00000000 </v>
   <v>       0.46153846       0.30769231      -0.00000000 </v>
   <v>      -0.46153846       0.30769231       0.00000000 </v>
   <v>      -0.38461538       0.30769231       0.00000000 </v>
   <v>      -0.30769231       0.30769231       0.00000000 </v>
   <v>       0.38461538       0.38461538      -0.00000000 </v>
   <v>       0.46153846       0.38461538       0.00000000 </v>
   <v>      -0.46153846       0.38461538       0.00000000 </v>
   <v>      -0.38461538       0.38461538       0.00000000 </v>
   <v>       0.46153846       0.46153846      -0.00000000 </v>
   <v>      -0.46153846       0.46153846       0.00000000 </v>
   <v>       0.23076923       0.15384615       0.07692308 </v>
   <v>       0.30769231       0.15384615       0.07692308 </v>
   <v>       0.38461538       0.15384615       0.07692308 </v>
   <v>       0.46153846       0.15384615       0.07692308 </v>
   <v>      -0.46153846       0.15384615       0.07692308 </v>
   <v>       0.30769231       0.23076923       0.07692308 </v>
   <v>       0.38461538       0.23076923       0.07692308 </v>
   <v>       0.46153846       0.23076923       0.07692308 </v>
   <v>      -0.46153846       0.23076923       0.07692308 </v>
   <v>      -0.38461538       0.23076923       0.07692308 </v>
   <v>      -0.30769231       0.23076923       0.07692308 </v>
   <v>      -0.23076923       0.23076923       0.07692308 </v>
   <v>      -0.15384615       0.23076923       0.07692308 </v>
   <v>       0.38461538       0.30769231       0.07692308 </v>
   <v>       0.46153846       0.30769231       0.07692308 </v>
   <v>      -0.46153846       0.30769231       0.07692308 </v>
   <v>      -0.38461538       0.30769231       0.07692308 </v>
   <v>      -0.30769231       0.30769231       0.07692308 </v>
   <v>      -0.23076923       0.30769231       0.07692308 </v>
   <v>       0.46153846       0.38461538       0.07692308 </v>
   <v>      -0.46153846       0.38461538       0.07692308 </v>
   <v>      -0.38461538       0.38461538       0.07692308 </v>
   <v>      -0.30769231       0.38461538       0.07692308 </v>
   <v>      -0.46153846       0.46153846       0.07692308 </v>
   <v>      -0.38461538       0.46153846       0.07692308 </v>
   <v>       0.46153846       0.30769231       0.15384615 </v>
   <v>      -0.46153846       0.30769231       0.15384615 </v>
   <v>      -0.38461538       0.30769231       0.15384615 </v>
   <v>      -0.46153846       0.38461538       0.15384615 </v>
   <v>      -0.38461538       0.38461538       0.15384615 </v>
   <v>      -0.30769231       0.38461538       0.15384615 </v>
   <v>      -0.23076923       0.38461538       0.15384615 </v>
   <v>      -0.38461538       0.46153846       0.15384615 </v>
   <v>      -0.30769231       0.46153846       0.15384615 </v>
   <v>      -0.30769231       0.46153846       0.23076923 </v>
  </varray>
  <varray name="weights" >
   <v>       0.00045517 </v>
   <v>       0.00364133 </v>
   <v>       0.00364133 </v>
   <v>       0.00364133 </v>
   <v>       0.00364133 </v>
   <v>       0.00364133 </v>
   <v>       0.00364133 </v>
   <v>       0.00273100 </v>
   <v>       0.01092399 </v>
   <v>       0.01092399 </v>
   <v>       0.01092399 </v>
   <v>       0.01092399 </v>
   <v>       0.01092399 </v>
   <v>       0.01092399 </v>
   <v>       0.01092399 </v>
   <v>       0.01092399 </v>
   <v>       0.01092399 </v>
   <v>       0.01092399 </v>
   <v>       0.00546199 </v>
   <v>       0.00273100 </v>
   <v>       0.01092399 </v>
   <v>       0.01092399 </v>
   <v>       0.01092399 </v>
   <v>       0.01092399 </v>
   <v>       0.01092399 </v>
   <v>       0.01092399 </v>
   <v>       0.01092399 </v>
   <v>       0.01092399 </v>
   <v>       0.00546199 </v>
   <v>       0.00273100 </v>
   <v>       0.01092399 </v>
   <v>       0.01092399 </v>
   <v>       0.01092399 </v>
   <v>       0.01092399 </v>
   <v>       0.01092399 </v>
   <v>       0.01092399 </v>
   <v>       0.00546199 </v>
   <v>       0.00273100 </v>
   <v>       0.01092399 </v>
   <v>       0.01092399 </v>
   <v>       0.01092399 </v>
   <v>       0.01092399 </v>
   <v>       0.00546199 </v>
   <v>       0.00273100 </v>
   <v>       0.01092399 </v>
   <v>       0.01092399 </v>
   <v>       0.00546199 </v>
   <v>       0.00273100 </v>
   <v>       0.00546199 </v>
   <v>       0.01092399 </v>
   <v>       0.02184797 </v>
   <v>       0.02184797 </v>
   <v>       0.02184797 </v>
   <v>       0.02184797 </v>
   <v>       0.01092399 </v>
   <v>       0.02184797 </v>
   <v>       0.02184797 </v>
   <v>       0.02184797 </v>
   <v>       0.02184797 </v>
   <v>       0.02184797 </v>
   <v>       0.02184797 </v>
   <v>       0.01092399 </v>
   <v>       0.01092399 </v>
   <v>       0.02184797 </v>
   <v>       0.02184797 </v>
   <v>       0.02184797 </v>
   <v>       0.02184797 </v>
   <v>       0.01092399 </v>
   <v>       0.01092399 </v>
   <v>       0.02184797 </v>
   <v>       0.02184797 </v>
   <v>       0.01092399 </v>
   <v>       0.01092399 </v>
   <v>       0.01092399 </v>
   <v>       0.01092399 </v>
   <v>       0.02184797 </v>
   <v>       0.02184797 </v>
   <v>       0.01092399 </v>
   <v>       0.02184797 </v>
   <v>       0.02184797 </v>
   <v>       0.01092399 </v>
   <v>       0.01092399 </v>
   <v>       0.01092399 </v>
   <v>       0.01092399 </v>
  </varray>
 </kpoints>
 <parameters>
  <separator name="general" >
   <i type="string" name="SYSTEM">unknown system</i>
   <i type="logical" name="LCOMPAT"> F  </i>
  </separator>
  <separator name="electronic" >
   <i type="string" name="PREC">acc</i>
   <i name="ENMAX">    700.00000000</i>
   <i name="ENAUG">    380.87800000</i>
   <i name="EDIFF">      0.00000010</i>
   <i type="int" name="IALGO">    38</i>
   <i type="int" name="IWAVPR">    10</i>
   <i type="int" name="NBANDS">    16</i>
   <i type="int" name="NBANDSLOW">    -1</i>
   <i type="int" name="NBANDSHIGH">    -1</i>
   <i name="NELECT">     25.00000000</i>
   <i type="int" name="TURBO">     0</i>
   <i type="int" name="IRESTART">     0</i>
   <i type="int" name="NREBOOT">     0</i>
   <i type="int" name="NMIN">     0</i>
   <i name="EREF">      0.00000000</i>
   <separator name="electronic smearing" >
    <i type="int" name="ISMEAR">     0</i>
    <i name="SIGMA">      0.01000000</i>
    <i name="KSPACING">      0.50000000</i>
    <i type="logical" name="KGAMMA"> T  </i>
    <i type="logical" name="KBLOWUP"> T  </i>
   </separator>
   <separator name="electronic projectors" >
    <i type="logical" name="LREAL"> F  </i>
    <v name="ROPT">      0.00000000      0.00000000      0.00000000</v>
    <i type="int" name="LMAXPAW">  -100</i>
    <i type="int" name="LMAXMIX">     2</i>
    <i type="logical" name="NLSPLINE"> F  </i>
   </separator>
   <separator name="electronic startup" >
    <i type="int" name="ISTART">     0</i>
    <i type="int" name="ICHARG">     2</i>
    <i type="int" name="INIWAV">     1</i>
   </separator>
   <separator name="electronic spin" >
    <i type="int" name="ISPIN">     1</i>
    <i type="logical" name="LNONCOLLINEAR"> F  </i>
    <v name="MAGMOM">      1.00000000      1.00000000      1.00000000</v>
    <i name="NUPDOWN">     -1.00000000</i>
    <i type="logical" name="LSORBIT"> F  </i>
    <v name="SAXIS">      0.00000000      0.00000000      1.00000000</v>
    <i type="logical" name="LSPIRAL"> F  </i>
    <v name="QSPIRAL">      0.00000000      0.00000000      0.00000000</v>
    <i type="logical" name="LZEROZ"> F  </i>
   </separator>
   <separator name="electronic exchange-correlation" >
    <i type="logical" name="LASPH"> F  </i>
    <i type="logical" name="LMETAGGA"> F  </i>
   </separator>
   <separator name="electronic convergence" >
    <i type="int" name="NELM">    60</i>
    <i type="int" name="NELMDL">    -5</i>
    <i type="int" name="NELMIN">     5</i>
    <i name="ENINI">    700.00000000</i>
    <separator name="electronic convergence detail" >
     <i type="logical" name="LDIAG"> T  </i>
     <i type="logical" name="LSUBROT"> F  </i>
     <i name="WEIMIN">      0.00000000</i>
     <i name="EBREAK">      0.00000000</i>
     <i name="DEPER">      0.30000000</i>
     <i type="int" name="NRMM">     4</i>
     <i name="TIME">      0.40000000</i>
    </separator>
   </separator>
   <separator name="electronic mixer" >
    <i name="AMIX">      0.40000000</i>
    <i name="BMIX">      1.00000000</i>
    <i name="AMIN">      0.10000000</i>
    <i name="AMIX_MAG">      1.60000000</i>
    <i name="BMIX_MAG">      1.00000000</i>
    <separator name="electronic mixer details" >
     <i type="int" name="IMIX">     4</i>
     <i type="logical" name="MIXFIRST"> F  </i>
     <i type="int" name="MAXMIX">   -45</i>
     <i name="WC">    100.00000000</i>
     <i type="int" name="INIMIX">     1</i>
     <i type="int" name="MIXPRE">     1</i>
     <i type="int" name="MREMOVE">     5</i>
    </separator>
   </separator>
   <separator name="electronic dipolcorrection" >
    <i type="logical" name="LDIPOL"> F  </i>
    <i type="logical" name="LMONO"> F  </i>
    <i type="int" name="IDIPOL">     0</i>
    <i name="EPSILON">      1.00000000</i>
    <v name="DIPOL">   -100.00000000   -100.00000000   -100.00000000</v>
    <i name="EFIELD">      0.00000000</i>
   </separator>
  </separator>
  <separator name="grids" >
   <i type="int" name="NGX">    42</i>
   <i type="int" name="NGY">    42</i>
   <i type="int" name="NGZ">    42</i>
   <i type="int" name="NGXF">    84</i>
   <i type="int" name="NGYF">    84</i>
   <i type="int" name="NGZF">    84</i>
   <i type="logical" name="ADDGRID"> T  </i>
  </separator>
  <separator name="ionic" >
   <i type="int" name="NSW">     0</i>
   <i type="int" name="IBRION">    -1</i>
   <i type="int" name="MDALGO">     0</i>
   <i type="int" name="ISIF">     3</i>
   <i name="PSTRESS">      0.00000000</i>
   <i name="EDIFFG">      0.00000100</i>
   <i type="int" name="NFREE">     0</i>
   <i name="POTIM">      0.50000000</i>
   <i name="SMASS">     -3.00000000</i>
   <i name="SCALEE">      1.00000000</i>
  </separator>
  <separator name="ionic md" >
   <i name="TEBEG">      0.00010000</i>
   <i name="TEEND">      0.00010000</i>
   <i type="int" name="NBLOCK">     1</i>
   <i type="int" name="KBLOCK">     1</i>
   <i type="int" name="NPACO">   256</i>
   <i name="APACO">     16.00000000</i>
  </separator>
  <separator name="symmetry" >
   <i type="int" name="ISYM">     2</i>
   <i name="SYMPREC">      0.00001000</i>
  </separator>
  <separator name="dos" >
   <i type="int" name="LORBIT">     0</i>
   <v name="RWIGS">     -1.00000000     -1.00000000     -1.00000000</v>
   <i type="int" name="NEDOS">   301</i>
   <i name="EMIN">     10.00000000</i>
   <i name="EMAX">    -10.00000000</i>
   <i name="EFERMI">      0.00000000</i>
  </separator>
  <separator name="writing" >
   <i type="int" name="NWRITE">     2</i>
   <i type="logical" name="LWAVE"> F  </i>
   <i type="logical" name="LDOWNSAMPLE"> F  </i>
   <i type="logical" name="LCHARG"> F  </i>
   <i type="logical" name="LPARD"> F  </i>
   <i type="logical" name="LVTOT"> F  </i>
   <i type="logical" name="LVHAR"> F  </i>
   <i type="logical" name="LELF"> F  </i>
   <i type="logical" name="LOPTICS"> F  </i>
   <v name="STM">      0.00000000      0.00000000      0.00000000      0.00000000      0.00000000      0.00000000      0.00000000</v>
  </separator>
  <separator name="performance" >
   <i type="int" name="NPAR">     4</i>
   <i type="int" name="NSIM">     4</i>
   <i type="int" name="NBLK">    -1</i>
   <i type="logical" name="LPLANE"> T  </i>
   <i type="logical" name="LSCALAPACK"> T  </i>
   <i type="logical" name="LSCAAWARE"> F  </i>
   <i type="logical" name="LSCALU"> F  </i>
   <i type="logical" name="LASYNC"> F  </i>
   <i type="logical" name="LORBITALREAL"> F  </i>
  </separator>
  <separator name="miscellaneous" >
   <i type="int" name="IDIOT">     3</i>
   <i type="int" name="PHON_NSTRUCT">    -1</i>
   <i type="logical" name="LMUSIC"> F  </i>
   <v name="POMASS">    178.49000000    121.75000000    195.08000000</v>
   <v name="DARWINR">      0.00000000      0.00000000      0.00000000</v>
   <v name="DARWINV">      1.00000000      1.00000000      1.00000000</v>
   <i type="logical" name="LCORR"> T  </i>
  </separator>
  <i type="logical" name="GGA_COMPAT"> T  </i>
  <i type="logical" name="LBERRY"> F  </i>
  <i type="int" name="ICORELEVEL">     0</i>
  <i type="logical" name="LDAU"> F  </i>
  <i type="int" name="I_CONSTRAINED_M">     0</i>
  <separator name="electronic exchange-correlation" >
   <i type="string" name="GGA">PS</i>
   <i type="int" name="VOSKOWN">     0</i>
   <i type="logical" name="LHFCALC"> F  </i>
   <i type="string" name="PRECFOCK"></i>
   <i type="logical" name="LSYMGRAD"> F  </i>
   <i type="logical" name="LHFONE"> F  </i>
   <i type="logical" name="LRHFCALC"> F  </i>
   <i type="logical" name="LTHOMAS"> F  </i>
   <i type="logical" name="LMODELHF"> F  </i>
   <i type="logical" name="LFOCKACE"> F  </i>
   <i name="ENCUT4O">     -1.00000000</i>
   <i type="int" name="EXXOEP">     0</i>
   <i type="int" name="FOURORBIT">     0</i>
   <i name="AEXX">      0.00000000</i>
   <i name="HFALPHA">      0.00000000</i>
   <i name="MCALPHA">      0.00000000</i>
   <i name="ALDAX">      1.00000000</i>
   <i name="AGGAX">      1.00000000</i>
   <i name="ALDAC">      1.00000000</i>
   <i name="AGGAC">      1.00000000</i>
   <i type="int" name="NKREDX">     1</i>
   <i type="int" name="NKREDY">     1</i>
   <i type="int" name="NKREDZ">     1</i>
   <i type="logical" name="SHIFTRED"> F  </i>
   <i type="logical" name="ODDONLY"> F  </i>
   <i type="logical" name="EVENONLY"> F  </i>
   <i type="int" name="LMAXFOCK">     0</i>
   <i type="int" name="NMAXFOCKAE">     0</i>
   <i type="logical" name="LFOCKAEDFT"> F  </i>
   <i name="HFSCREEN">      0.00000000</i>
   <i name="HFSCREENC">      0.00000000</i>
   <i type="int" name="NBANDSGWLOW">     0</i>
  </separator>
  <separator name="vdW DFT" >
   <i type="logical" name="LUSE_VDW"> F  </i>
   <i name="Zab_VDW">     -0.84910000</i>
   <i name="PARAM1">      0.12340000</i>
   <i name="PARAM2">      1.00000000</i>
   <i name="PARAM3">      0.00000000</i>
  </separator>
  <separator name="model GW" >
   <i type="int" name="MODEL_GW">     0</i>
   <i name="MODEL_EPS0">     14.64006306</i>
   <i name="MODEL_ALPHA">      1.00000000</i>
  </separator>
  <separator name="linear response parameters" >
   <i type="logical" name="LEPSILON"> F  </i>
   <i type="logical" name="LRPA"> F  </i>
   <i type="logical" name="LNABLA"> F  </i>
   <i type="logical" name="LVEL"> F  </i>
   <i type="int" name="KINTER">     0</i>
   <i name="CSHIFT">      0.10000000</i>
   <i name="OMEGAMAX">     -1.00000000</i>
   <i name="DEG_THRESHOLD">      0.00200000</i>
   <i name="RTIME">     -0.10000000</i>
   <i name="WPLASMAI">      0.00000000</i>
   <v name="DFIELD">      0.00000000      0.00000000      0.00000000</v>
   <v name="WPLASMA">      0.00000000      0.00000000      0.00000000      0.00000000      0.00000000      0.00000000      0.00000000      0.00000000      0.00000000</v>
  </separator>
  <separator name="orbital magnetization" >
   <i type="logical" name="NUCIND"> F  </i>
   <v name="MAGPOS">      0.00000000      0.00000000      0.00000000</v>
   <i type="logical" name="LNICSALL"> T  </i>
   <i type="logical" name="ORBITALMAG"> F  </i>
   <i type="logical" name="LMAGBLOCH"> F  </i>
   <i type="logical" name="LCHIMAG"> F  </i>
   <i type="logical" name="LGAUGE"> T  </i>
   <i type="int" name="MAGATOM">     0</i>
   <v name="MAGDIPOL">      0.00000000      0.00000000      0.00000000</v>
   <v name="AVECCONST">      0.00000000      0.00000000      0.00000000</v>
  </separator>
  <separator name="response functions" >
   <i type="logical" name="LFINITE_TEMPERATURE"> F  </i>
   <i type="logical" name="LADDER"> F  </i>
   <i type="logical" name="LRPAFORCE"> F  </i>
   <i type="logical" name="LFXC"> F  </i>
   <i type="logical" name="LHARTREE"> T  </i>
   <i type="int" name="IBSE">     0</i>
   <v type="int" name="KPOINT">    -1     0     0     0</v>
   <i type="logical" name="LTCTC"> F  </i>
   <i type="logical" name="LTCTE"> F  </i>
   <i type="logical" name="LTETE"> F  </i>
   <i type="logical" name="LTRIPLET"> F  </i>
   <i type="logical" name="LFXCEPS"> F  </i>
   <i type="logical" name="LFXHEG"> F  </i>
   <i type="int" name="NATURALO">     2</i>
   <i type="logical" name="L2ORDER"> F  </i>
   <i type="logical" name="LDMP1"> F  </i>
   <i type="logical" name="LMP2LT"> F  </i>
   <i type="logical" name="LSMP2LT"> F  </i>
   <i type="logical" name="LUSEW"> F  </i>
   <i name="ENCUTGW">     -2.00000000</i>
   <i name="ENCUTGWSOFT">     -2.00000000</i>
   <i name="ENCUTLF">     -1.00000000</i>
   <i type="int" name="LMAXMP2">    -1</i>
   <i name="SCISSOR">      0.00000000</i>
   <i type="int" name="NOMEGA">     0</i>
   <i type="int" name="NOMEGAR">     0</i>
   <i type="int" name="NBANDSGW">    -1</i>
   <i type="int" name="NBANDSO">    -1</i>
   <i type="int" name="NBANDSV">    -1</i>
   <i type="int" name="NELM">     1</i>
   <i type="int" name="NELMHF">     1</i>
   <i type="int" name="DIM">     3</i>
   <i type="int" name="IESPILON">     4</i>
   <i type="int" name="ANTIRES">     0</i>
   <i name="OMEGAMAX">    -30.00000000</i>
   <i name="OMEGAMIN">    -30.00000000</i>
   <i name="OMEGATL">   -200.00000000</i>
   <i type="int" name="OMEGAGRID">   145</i>
   <i name="CSHIFT">     -0.10000000</i>
   <i type="logical" name="LSELFENERGY"> F  </i>
   <i type="logical" name="LSPECTRAL"> F  </i>
   <i type="logical" name="LSPECTRALGW"> F  </i>
   <i type="logical" name="LSINGLES"> F  </i>
   <i type="logical" name="LFERMIGW"> F  </i>
   <i type="logical" name="ODDONLYGW"> F  </i>
   <i type="logical" name="EVENONLYGW"> F  </i>
   <i type="int" name="NKREDLFX">     1</i>
   <i type="int" name="NKREDLFY">     1</i>
   <i type="int" name="NKREDLFZ">     1</i>
   <i type="int" name="MAXMEM">  2800</i>
   <i type="int" name="TELESCOPE">     0</i>
   <i type="int" name="NTAUPAR">     1</i>
   <i type="int" name="NOMEGAPAR">    -1</i>
   <i name="LAMBDA">      1.00000000</i>
  </separator>
  <separator name="External order field" >
   <i name="OFIELD_KAPPA">      0.00000000</i>
   <v name="OFIELD_K">      0.00000000      0.00000000      0.00000000</v>
   <i name="OFIELD_Q6_NEAR">      0.00000000</i>
   <i name="OFIELD_Q6_FAR">      0.00000000</i>
   <i name="OFIELD_A">      0.00000000</i>
  </separator>
 </parameters>
 <atominfo>
  <atoms>       3 </atoms>
  <types>       3 </types>
  <array name="atoms" >
   <dimension dim="1">ion</dimension>
   <field type="string">element</field>
   <field type="int">atomtype</field>
   <set>
    <rc><c>Hf</c><c>   1</c></rc>
    <rc><c>Sb</c><c>   2</c></rc>
    <rc><c>Pt</c><c>   3</c></rc>
   </set>
  </array>
  <array name="atomtypes" >
   <dimension dim="1">type</dimension>
   <field type="int">atomspertype</field>
   <field type="string">element</field>
   <field>mass</field>
   <field>valence</field>
   <field type="string">pseudopotential</field>
   <set>
    <rc><c>   1</c><c>Hf</c><c>    178.49000000</c><c>     10.00000000</c><c>  PAW_PBE Hf_pv 06Sep2000               </c></rc>
    <rc><c>   1</c><c>Sb</c><c>    121.75000000</c><c>      5.00000000</c><c>  PAW_PBE Sb 06Sep2000                  </c></rc>
    <rc><c>   1</c><c>Pt</c><c>    195.08000000</c><c>     10.00000000</c><c>  PAW_PBE Pt 04Feb2005                  </c></rc>
   </set>
  </array>
 </atominfo>
 <structure name="initialpos" >
  <crystal>
   <varray name="basis" >
    <v>       0.00000000       3.32017508       3.32017508 </v>
    <v>       3.32017508       0.00000000       3.32017508 </v>
    <v>       3.32017508       3.32017508       0.00000000 </v>
   </varray>
   <i name="volume">     73.20031531 </i>
   <varray name="rec_basis" >
    <v>      -0.15059447       0.15059447       0.15059447 </v>
    <v>       0.15059447      -0.15059447       0.15059447 </v>
    <v>       0.15059447       0.15059447      -0.15059447 </v>
   </varray>
  </crystal>
  <varray name="positions" >
   <v>       0.75000000       0.75000000       0.75000000 </v>
   <v>       0.25000000       0.25000000       0.25000000 </v>
   <v>       0.00000000       0.00000000       0.00000000 </v>
  </varray>
 </structure>
 <calculation>
  <scstep>
   <time name="dav">    0.98    0.98</time>
   <time name="total">    1.12    1.20</time>
   <energy>
    <i name="alphaZ">     93.07000245 </i>
    <i name="ewald">  -1497.52933121 </i>
    <i name="hartreedc">   -348.50858694 </i>
    <i name="XCdc">    -20.04545696 </i>
    <i name="pawpsdc">   1514.36848356 </i>
    <i name="pawaedc">  -1421.27055995 </i>
    <i name="eentropy">     -0.00007159 </i>
    <i name="bandstr">     71.23034730 </i>
    <i name="atom">   1741.10451121 </i>
    <i name="e_fr_energy">    132.41933786 </i>
    <i name="e_wo_entrp">    132.41940944 </i>
    <i name="e_0_energy">    132.41937365 </i>
   </energy>
  </scstep>
  <scstep>
   <time name="dav">    1.13    1.16</time>
   <time name="total">    1.13    1.16</time>
   <energy>
    <i name="e_fr_energy">    -19.52760916 </i>
    <i name="e_wo_entrp">    -19.52750154 </i>
    <i name="e_0_energy">    -19.52755535 </i>
   </energy>
  </scstep>
  <scstep>
   <time name="dav">    1.22    1.24</time>
   <time name="total">    1.22    1.25</time>
   <energy>
    <i name="e_fr_energy">    -24.74727790 </i>
    <i name="e_wo_entrp">    -24.74707437 </i>
    <i name="e_0_energy">    -24.74717613 </i>
   </energy>
  </scstep>
  <scstep>
   <time name="dav">    1.14    1.17</time>
   <time name="total">    1.15    1.18</time>
   <energy>
    <i name="e_fr_energy">    -24.82410216 </i>
    <i name="e_wo_entrp">    -24.82393419 </i>
    <i name="e_0_energy">    -24.82401817 </i>
   </energy>
  </scstep>
  <scstep>
   <time name="dav">    1.24    1.25</time>
   <time name="total">    1.51    1.53</time>
   <energy>
    <i name="e_fr_energy">    -24.82579801 </i>
    <i name="e_wo_entrp">    -24.82563061 </i>
    <i name="e_0_energy">    -24.82571431 </i>
   </energy>
  </scstep>
  <scstep>
   <time name="dav">    1.19    1.19</time>
   <time name="total">    1.56    1.58</time>
   <energy>
    <i name="e_fr_energy">    -23.81900972 </i>
    <i name="e_wo_entrp">    -23.81872182 </i>
    <i name="e_0_energy">    -23.81886577 </i>
   </energy>
  </scstep>
  <scstep>
   <time name="dav">    1.22    1.22</time>
   <time name="total">    1.53    1.55</time>
   <energy>
    <i name="e_fr_energy">    -23.66468422 </i>
    <i name="e_wo_entrp">    -23.66431616 </i>
    <i name="e_0_energy">    -23.66450019 </i>
   </energy>
  </scstep>
  <scstep>
   <time name="dav">    1.11    1.11</time>
   <time name="total">    1.44    1.46</time>
   <energy>
    <i name="e_fr_energy">    -23.63841101 </i>
    <i name="e_wo_entrp">    -23.63824835 </i>
    <i name="e_0_energy">    -23.63832968 </i>
   </energy>
  </scstep>
  <scstep>
   <time name="dav">    1.21    1.21</time>
   <time name="total">    1.52    1.54</time>
   <energy>
    <i name="e_fr_energy">    -23.63746586 </i>
    <i name="e_wo_entrp">    -23.63727830 </i>
    <i name="e_0_energy">    -23.63737208 </i>
   </energy>
  </scstep>
  <scstep>
   <time name="dav">    1.16    1.16</time>
   <time name="total">    1.48    1.51</time>
   <energy>
    <i name="e_fr_energy">    -23.63692746 </i>
    <i name="e_wo_entrp">    -23.63674453 </i>
    <i name="e_0_energy">    -23.63683599 </i>
   </energy>
  </scstep>
  <scstep>
   <time name="dav">    1.19    1.19</time>
   <time name="total">    1.53    1.54</time>
   <energy>
    <i name="e_fr_energy">    -23.63686547 </i>
    <i name="e_wo_entrp">    -23.63669067 </i>
    <i name="e_0_energy">    -23.63677807 </i>
   </energy>
  </scstep>
  <scstep>
   <time name="dav">    1.14    1.14</time>
   <time name="total">    1.46    1.47</time>
   <energy>
    <i name="e_fr_energy">    -23.63686477 </i>
    <i name="e_wo_entrp">    -23.63668951 </i>
    <i name="e_0_energy">    -23.63677714 </i>
   </energy>
  </scstep>
  <scstep>
   <time name="dav">    1.26    1.26</time>
   <time name="total">    1.58    1.61</time>
   <energy>
    <i name="e_fr_energy">    -23.63686468 </i>
    <i name="e_wo_entrp">    -23.63668883 </i>
    <i name="e_0_energy">    -23.63677675 </i>
   </energy>
  </scstep>
  <scstep>
   <time name="dav">    1.12    1.12</time>
   <time name="total">    1.24    1.26</time>
   <energy>
    <i name="alphaZ">     93.07000245 </i>
    <i name="ewald">  -1497.52933121 </i>
    <i name="hartreedc">   -325.02001892 </i>
    <i name="XCdc">    -20.82002477 </i>
    <i name="pawpsdc">   2212.37000494 </i>
    <i name="pawaedc">  -2123.96263249 </i>
    <i name="eentropy">     -0.00017571 </i>
    <i name="bandstr">   -102.84920025 </i>
    <i name="atom">   1741.10451121 </i>
    <i name="e_fr_energy">    -23.63686475 </i>
    <i name="e_wo_entrp">    -23.63668905 </i>
    <i name="e_0_energy">    -23.63677690 </i>
   </energy>
  </scstep>
  <structure>
   <crystal>
    <varray name="basis" >
     <v>       0.00000000       3.32017508       3.32017508 </v>
     <v>       3.32017508       0.00000000       3.32017508 </v>
     <v>       3.32017508       3.32017508       0.00000000 </v>
    </varray>
    <i name="volume">     73.20031531 </i>
    <varray name="rec_basis" >
     <v>      -0.15059447       0.15059447       0.15059447 </v>
     <v>       0.15059447      -0.15059447       0.15059447 </v>
     <v>       0.15059447       0.15059447      -0.15059447 </v>
    </varray>
   </crystal>
   <varray name="positions" >
    <v>       0.75000000       0.75000000       0.75000000 </v>
    <v>       0.25000000       0.25000000       0.25000000 </v>
    <v>       0.00000000       0.00000000       0.00000000 </v>
   </varray>
  </structure>
  <varray name="forces" >
   <v>      -0.00000000      -0.00000000      -0.00000000 </v>
   <v>      -0.00000000      -0.00000000      -0.00000000 </v>
   <v>       0.00000000       0.00000000       0.00000000 </v>
  </varray>
  <varray name="stress" >
   <v>    -132.19498583       0.00000000       0.00000000 </v>
   <v>      -0.00000000    -132.19498583       0.00000000 </v>
   <v>       0.00000000      -0.00000000    -132.19498583 </v>
  </varray>
  <energy>
   <i name="e_fr_energy">    -23.63686475 </i>
   <i name="e_wo_entrp">    -23.63677690 </i>
   <i name="e_0_energy">     -0.00017571 </i>
  </energy>
  <time name="totalsc">   22.61   23.30</time>
  <eigenvalues>
   <array>
    <dimension dim="1">band</dimension>
    <dimension dim="2">kpoint</dimension>
    <dimension dim="3">spin</dimension>
    <field>eigene</field>
    <field>occ</field>
    <set>
     <set comment="spin 1">
      <set comment="kpoint 1">
       <r>  -25.1562    1.0000 </r>
       <r>  -25.1562    1.0000 </r>
       <r>  -25.1562    1.0000 </r>
       <r>   -4.4675    1.0000 </r>
       <r>    2.0578    1.0000 </r>
       <r>    2.0578    1.0000 </r>
       <r>    2.0578    1.0000 </r>
       <r>    2.8491    1.0000 </r>
       <r>    2.8491    1.0000 </r>
       <r>    5.6836    1.0000 </r>
       <r>    6.0035    1.0000 </r>
       <r>    6.0035    1.0000 </r>
       <r>    6.0035    1.0000 </r>
       <r>    8.1028    0.0000 </r>
       <r>    8.1028    0.0000 </r>
       <r>    8.1028    0.0000 </r>
      </set>
      <set comment="kpoint 2">
       <r>  -25.1568    1.0000 </r>
       <r>  -25.1562    1.0000 </r>
       <r>  -25.1562    1.0000 </r>
       <r>   -4.4143    1.0000 </r>
       <r>    1.9707    1.0000 </r>
       <r>    2.0418    1.0000 </r>
       <r>    2.0418    1.0000 </r>
       <r>    2.8760    1.0000 </r>
       <r>    2.8760    1.0000 </r>
       <r>    5.2331    1.0000 </r>
       <r>    5.9372    1.0000 </r>
       <r>    5.9372    1.0000 </r>
       <r>    6.2375    1.0000 </r>
       <r>    7.9550    0.0000 </r>
       <r>    7.9550    0.0000 </r>
       <r>    8.3957    0.0000 </r>
      </set>
      <set comment="kpoint 3">
       <r>  -25.1582    1.0000 </r>
       <r>  -25.1562    1.0000 </r>
       <r>  -25.1562    1.0000 </r>
       <r>   -4.2602    1.0000 </r>
       <r>    1.7342    1.0000 </r>
       <r>    2.0068    1.0000 </r>
       <r>    2.0068    1.0000 </r>
       <r>    2.9389    1.0000 </r>
       <r>    2.9389    1.0000 </r>
       <r>    4.5485    1.0000 </r>
       <r>    5.7708    1.0000 </r>
       <r>    5.7708    1.0000 </r>
       <r>    6.4852    1.0000 </r>
       <r>    7.8780    0.0000 </r>
       <r>    7.8780    0.0000 </r>
       <r>    9.0426    0.0000 </r>
      </set>
      <set comment="kpoint 4">
       <r>  -25.1602    1.0000 </r>
       <r>  -25.1562    1.0000 </r>
       <r>  -25.1562    1.0000 </r>
       <r>   -4.0236    1.0000 </r>
       <r>    1.3996    1.0000 </r>
       <r>    1.9750    1.0000 </r>
       <r>    1.9750    1.0000 </r>
       <r>    3.0016    1.0000 </r>
       <r>    3.0016    1.0000 </r>
       <r>    3.9046    1.0000 </r>
       <r>    5.5739    1.0000 </r>
       <r>    5.5739    1.0000 </r>
       <r>    6.7120    1.0000 </r>
       <r>    7.9204    0.0000 </r>
       <r>    7.9204    0.0000 </r>
       <r>    9.6107    0.0000 </r>
      </set>
      <set comment="kpoint 5">
       <r>  -25.1624    1.0000 </r>
       <r>  -25.1562    1.0000 </r>
       <r>  -25.1562    1.0000 </r>
       <r>   -3.7397    1.0000 </r>
       <r>    1.0218    1.0000 </r>
       <r>    1.9592    1.0000 </r>
       <r>    1.9592    1.0000 </r>
       <r>    3.0375    1.0000 </r>
       <r>    3.0375    1.0000 </r>
       <r>    3.4001    1.0000 </r>
       <r>    5.4064    1.0000 </r>
       <r>    5.4064    1.0000 </r>
       <r>    6.9227    1.0000 </r>
       <r>    8.0476    0.0000 </r>
       <r>    8.0476    0.0000 </r>
       <r>    9.2965    0.0000 </r>
      </set>
      <set comment="kpoint 6">
       <r>  -25.1641    1.0000 </r>
       <r>  -25.1562    1.0000 </r>
       <r>  -25.1562    1.0000 </r>
       <r>   -3.4676    1.0000 </r>
       <r>    0.6727    1.0000 </r>
       <r>    1.9586    1.0000 </r>
       <r>    1.9586    1.0000 </r>
       <r>    3.0424    1.0000 </r>
       <r>    3.0424    1.0000 </r>
       <r>    3.0699    1.0000 </r>
       <r>    5.2964    1.0000 </r>
       <r>    5.2964    1.0000 </r>
       <r>    7.1237    1.0000 </r>
       <r>    8.2120    0.0000 </r>
       <r>    8.2120    0.0000 </r>
       <r>    8.6751    0.0000 </r>
      </set>
      <set comment="kpoint 7">
       <r>  -25.1651    1.0000 </r>
       <r>  -25.1562    1.0000 </r>
       <r>  -25.1562    1.0000 </r>
       <r>   -3.2926    1.0000 </r>
       <r>    0.4534    1.0000 </r>
       <r>    1.9633    1.0000 </r>
       <r>    1.9633    1.0000 </r>
       <r>    2.9106    1.0000 </r>
       <r>    3.0346    1.0000 </r>
       <r>    3.0346    1.0000 </r>
       <r>    5.2452    1.0000 </r>
       <r>    5.2452    1.0000 </r>
       <r>    7.2936    1.0000 </r>
       <r>    8.2530    0.0000 </r>
       <r>    8.3372    0.0000 </r>
       <r>    8.3372    0.0000 </r>
      </set>
      <set comment="kpoint 8">
       <r>  -25.1568    1.0000 </r>
       <r>  -25.1563    1.0000 </r>
       <r>  -25.1563    1.0000 </r>
       <r>   -4.3968    1.0000 </r>
       <r>    1.8618    1.0000 </r>
       <r>    2.0844    1.0000 </r>
       <r>    2.0844    1.0000 </r>
       <r>    2.8769    1.0000 </r>
       <r>    2.8818    1.0000 </r>
       <r>    5.2243    1.0000 </r>
       <r>    5.8199    1.0000 </r>
       <r>    5.8199    1.0000 </r>
       <r>    6.3706    1.0000 </r>
       <r>    7.7966    0.0000 </r>
       <r>    8.3010    0.0000 </r>
       <r>    8.3516    0.0000 </r>
      </set>
      <set comment="kpoint 9">
       <r>  -25.1578    1.0000 </r>
       <r>  -25.1564    1.0000 </r>
       <r>  -25.1563    1.0000 </r>
       <r>   -4.2773    1.0000 </r>
       <r>    1.6553    1.0000 </r>
       <r>    2.0675    1.0000 </r>
       <r>    2.0945    1.0000 </r>
       <r>    2.9183    1.0000 </r>
       <r>    2.9255    1.0000 </r>
       <r>    4.7394    1.0000 </r>
       <r>    5.6374    1.0000 </r>
       <r>    5.6616    1.0000 </r>
       <r>    6.6172    1.0000 </r>
       <r>    7.6775    0.0000 </r>
       <r>    8.1012    0.0000 </r>
       <r>    8.7441    0.0000 </r>
      </set>
      <set comment="kpoint 10">
       <r>  -25.1596    1.0000 </r>
       <r>  -25.1565    1.0000 </r>
       <r>  -25.1563    1.0000 </r>
       <r>   -4.0698    1.0000 </r>
       <r>    1.3920    1.0000 </r>
       <r>    2.0027    1.0000 </r>
       <r>    2.0826    1.0000 </r>
       <r>    2.9740    1.0000 </r>
       <r>    2.9907    1.0000 </r>
       <r>    4.1159    1.0000 </r>
       <r>    5.4525    1.0000 </r>
       <r>    5.4803    1.0000 </r>
       <r>    6.8889    1.0000 </r>
       <r>    7.7044    0.0000 </r>
       <r>    8.0206    0.0000 </r>
       <r>    9.2149    0.0000 </r>
      </set>
      <set comment="kpoint 11">
       <r>  -25.1617    1.0000 </r>
       <r>  -25.1565    1.0000 </r>
       <r>  -25.1564    1.0000 </r>
       <r>   -3.8033    1.0000 </r>
       <r>    1.0833    1.0000 </r>
       <r>    1.9464    1.0000 </r>
       <r>    2.0642    1.0000 </r>
       <r>    3.0205    1.0000 </r>
       <r>    3.0360    1.0000 </r>
       <r>    3.5664    1.0000 </r>
       <r>    5.3079    1.0000 </r>
       <r>    5.3104    1.0000 </r>
       <r>    7.0582    1.0000 </r>
       <r>    7.9182    0.0000 </r>
       <r>    8.0527    0.0000 </r>
       <r>    9.3440    0.0000 </r>
      </set>
      <set comment="kpoint 12">
       <r>  -25.1635    1.0000 </r>
       <r>  -25.1564    1.0000 </r>
       <r>  -25.1564    1.0000 </r>
       <r>   -3.5280    1.0000 </r>
       <r>    0.7706    1.0000 </r>
       <r>    1.9226    1.0000 </r>
       <r>    2.0436    1.0000 </r>
       <r>    3.0305    1.0000 </r>
       <r>    3.0494    1.0000 </r>
       <r>    3.1823    1.0000 </r>
       <r>    5.1801    1.0000 </r>
       <r>    5.2208    1.0000 </r>
       <r>    7.1824    1.0000 </r>
       <r>    8.1722    0.0000 </r>
       <r>    8.1934    0.0000 </r>
       <r>    8.8277    0.0000 </r>
      </set>
      <set comment="kpoint 13">
       <r>  -25.1647    1.0000 </r>
       <r>  -25.1565    1.0000 </r>
       <r>  -25.1564    1.0000 </r>
       <r>   -3.3189    1.0000 </r>
       <r>    0.5336    1.0000 </r>
       <r>    1.9313    1.0000 </r>
       <r>    2.0153    1.0000 </r>
       <r>    2.9252    1.0000 </r>
       <r>    3.0481    1.0000 </r>
       <r>    3.0650    1.0000 </r>
       <r>    5.0983    1.0000 </r>
       <r>    5.1871    1.0000 </r>
       <r>    7.3219    0.5956 </r>
       <r>    8.2821    0.0000 </r>
       <r>    8.3115    0.0000 </r>
       <r>    8.4659    0.0000 </r>
      </set>
      <set comment="kpoint 14">
       <r>  -25.1651    1.0000 </r>
       <r>  -25.1567    1.0000 </r>
       <r>  -25.1563    1.0000 </r>
       <r>   -3.2583    1.0000 </r>
       <r>    0.4656    1.0000 </r>
       <r>    1.9631    1.0000 </r>
       <r>    1.9755    1.0000 </r>
       <r>    2.8740    1.0000 </r>
       <r>    3.0537    1.0000 </r>
       <r>    3.0544    1.0000 </r>
       <r>    5.0563    1.0000 </r>
       <r>    5.2001    1.0000 </r>
       <r>    7.3992    0.0000 </r>
       <r>    8.1270    0.0000 </r>
       <r>    8.3595    0.0000 </r>
       <r>    8.5267    0.0000 </r>
      </set>
      <set comment="kpoint 15">
       <r>  -25.1644    1.0000 </r>
       <r>  -25.1567    1.0000 </r>
       <r>  -25.1562    1.0000 </r>
       <r>   -3.3754    1.0000 </r>
       <r>    0.6008    1.0000 </r>
       <r>    1.9320    1.0000 </r>
       <r>    2.0064    1.0000 </r>
       <r>    2.9553    1.0000 </r>
       <r>    3.0663    1.0000 </r>
       <r>    3.0796    1.0000 </r>
       <r>    5.0431    1.0000 </r>
       <r>    5.2638    1.0000 </r>
       <r>    7.3034    0.9978 </r>
       <r>    8.2618    0.0000 </r>
       <r>    8.3027    0.0000 </r>
       <r>    8.5419    0.0000 </r>
      </set>
      <set comment="kpoint 16">
       <r>  -25.1629    1.0000 </r>
       <r>  -25.1568    1.0000 </r>
       <r>  -25.1561    1.0000 </r>
       <r>   -3.6161    1.0000 </r>
       <r>    0.8803    1.0000 </r>
       <r>    1.9011    1.0000 </r>
       <r>    2.0523    1.0000 </r>
       <r>    3.0150    1.0000 </r>
       <r>    3.0669    1.0000 </r>
       <r>    3.2951    1.0000 </r>
       <r>    5.0623    1.0000 </r>
       <r>    5.3886    1.0000 </r>
       <r>    7.1784    1.0000 </r>
       <r>    8.0784    0.0000 </r>
       <r>    8.1774    0.0000 </r>
       <r>    9.0232    0.0000 </r>
      </set>
      <set comment="kpoint 17">
       <r>  -25.1610    1.0000 </r>
       <r>  -25.1567    1.0000 </r>
       <r>  -25.1561    1.0000 </r>
       <r>   -3.8956    1.0000 </r>
       <r>    1.2132    1.0000 </r>
       <r>    1.8971    1.0000 </r>
       <r>    2.0941    1.0000 </r>
       <r>    2.9991    1.0000 </r>
       <r>    3.0392    1.0000 </r>
       <r>    3.7366    1.0000 </r>
       <r>    5.1346    1.0000 </r>
       <r>    5.5716    1.0000 </r>
       <r>    7.0454    1.0000 </r>
       <r>    7.8893    0.0000 </r>
       <r>    8.0246    0.0000 </r>
       <r>    9.2319    0.0000 </r>
      </set>
      <set comment="kpoint 18">
       <r>  -25.1590    1.0000 </r>
       <r>  -25.1566    1.0000 </r>
       <r>  -25.1561    1.0000 </r>
       <r>   -4.1470    1.0000 </r>
       <r>    1.5335    1.0000 </r>
       <r>    1.9255    1.0000 </r>
       <r>    2.1206    1.0000 </r>
       <r>    2.9503    1.0000 </r>
       <r>    2.9843    1.0000 </r>
       <r>    4.3129    1.0000 </r>
       <r>    5.2912    1.0000 </r>
       <r>    5.7760    1.0000 </r>
       <r>    6.8291    1.0000 </r>
       <r>    7.7590    0.0000 </r>
       <r>    7.9969    0.0000 </r>
       <r>    8.8323    0.0000 </r>
      </set>
      <set comment="kpoint 19">
       <r>  -25.1575    1.0000 </r>
       <r>  -25.1564    1.0000 </r>
       <r>  -25.1562    1.0000 </r>
       <r>   -4.3277    1.0000 </r>
       <r>    1.8011    1.0000 </r>
       <r>    1.9801    1.0000 </r>
       <r>    2.1067    1.0000 </r>
       <r>    2.8998    1.0000 </r>
       <r>    2.9206    1.0000 </r>
       <r>    4.8781    1.0000 </r>
       <r>    5.5849    1.0000 </r>
       <r>    5.9239    1.0000 </r>
       <r>    6.5145    1.0000 </r>
       <r>    7.7602    0.0000 </r>
       <r>    8.0756    0.0000 </r>
       <r>    8.4674    0.0000 </r>
      </set>
      <set comment="kpoint 20">
       <r>  -25.1582    1.0000 </r>
       <r>  -25.1566    1.0000 </r>
       <r>  -25.1566    1.0000 </r>
       <r>   -4.1963    1.0000 </r>
       <r>    1.4386    1.0000 </r>
       <r>    2.1608    1.0000 </r>
       <r>    2.1608    1.0000 </r>
       <r>    2.8946    1.0000 </r>
       <r>    2.9564    1.0000 </r>
       <r>    4.6741    1.0000 </r>
       <r>    5.4471    1.0000 </r>
       <r>    5.4471    1.0000 </r>
       <r>    6.6755    1.0000 </r>
       <r>    7.5871    0.0000 </r>
       <r>    8.1570    0.0000 </r>
       <r>    8.8619    0.0000 </r>
      </set>
      <set comment="kpoint 21">
       <r>  -25.1595    1.0000 </r>
       <r>  -25.1567    1.0000 </r>
       <r>  -25.1567    1.0000 </r>
       <r>   -4.0274    1.0000 </r>
       <r>    1.2126    1.0000 </r>
       <r>    2.1584    1.0000 </r>
       <r>    2.1922    1.0000 </r>
       <r>    2.9057    1.0000 </r>
       <r>    3.0169    1.0000 </r>
       <r>    4.2699    1.0000 </r>
       <r>    5.2333    1.0000 </r>
       <r>    5.2651    1.0000 </r>
       <r>    6.9415    1.0000 </r>
       <r>    7.5319    0.0000 </r>
       <r>    8.0541    0.0000 </r>
       <r>    9.1361    0.0000 </r>
      </set>
      <set comment="kpoint 22">
       <r>  -25.1612    1.0000 </r>
       <r>  -25.1568    1.0000 </r>
       <r>  -25.1568    1.0000 </r>
       <r>   -3.7951    1.0000 </r>
       <r>    0.9981    1.0000 </r>
       <r>    2.0821    1.0000 </r>
       <r>    2.1941    1.0000 </r>
       <r>    2.9525    1.0000 </r>
       <r>    3.0692    1.0000 </r>
       <r>    3.7529    1.0000 </r>
       <r>    5.0233    1.0000 </r>
       <r>    5.1327    1.0000 </r>
       <r>    7.2234    1.0000 </r>
       <r>    7.6958    0.0000 </r>
       <r>    8.0162    0.0000 </r>
       <r>    9.2515    0.0000 </r>
      </set>
      <set comment="kpoint 23">
       <r>  -25.1629    1.0000 </r>
       <r>  -25.1571    1.0000 </r>
       <r>  -25.1568    1.0000 </r>
       <r>   -3.5411    1.0000 </r>
       <r>    0.8041    1.0000 </r>
       <r>    1.9911    1.0000 </r>
       <r>    2.1718    1.0000 </r>
       <r>    2.9924    1.0000 </r>
       <r>    3.0909    1.0000 </r>
       <r>    3.3127    1.0000 </r>
       <r>    4.8595    1.0000 </r>
       <r>    5.0632    1.0000 </r>
       <r>    7.2620    1.0000 </r>
       <r>    8.0929    0.0000 </r>
       <r>    8.1731    0.0000 </r>
       <r>    8.9071    0.0000 </r>
      </set>
      <set comment="kpoint 24">
       <r>  -25.1641    1.0000 </r>
       <r>  -25.1574    1.0000 </r>
       <r>  -25.1567    1.0000 </r>
       <r>   -3.3271    1.0000 </r>
       <r>    0.6501    1.0000 </r>
       <r>    1.9302    1.0000 </r>
       <r>    2.1232    1.0000 </r>
       <r>    2.9238    1.0000 </r>
       <r>    3.0946    1.0000 </r>
       <r>    3.1165    1.0000 </r>
       <r>    4.7459    1.0000 </r>
       <r>    5.0454    1.0000 </r>
       <r>    7.3235    0.5055 </r>
       <r>    8.2527    0.0000 </r>
       <r>    8.4097    0.0000 </r>
       <r>    8.6020    0.0000 </r>
      </set>
      <set comment="kpoint 25">
       <r>  -25.1645    1.0000 </r>
       <r>  -25.1577    1.0000 </r>
       <r>  -25.1565    1.0000 </r>
       <r>   -3.2242    1.0000 </r>
       <r>    0.5785    1.0000 </r>
       <r>    1.9269    1.0000 </r>
       <r>    2.0502    1.0000 </r>
       <r>    2.8212    1.0000 </r>
       <r>    3.1024    1.0000 </r>
       <r>    3.1147    1.0000 </r>
       <r>    4.6697    1.0000 </r>
       <r>    5.0683    1.0000 </r>
       <r>    7.4444    0.0000 </r>
       <r>    8.0952    0.0000 </r>
       <r>    8.3754    0.0000 </r>
       <r>    8.8482    0.0000 </r>
      </set>
      <set comment="kpoint 26">
       <r>  -25.1642    1.0000 </r>
       <r>  -25.1578    1.0000 </r>
       <r>  -25.1563    1.0000 </r>
       <r>   -3.2750    1.0000 </r>
       <r>    0.6259    1.0000 </r>
       <r>    1.9683    1.0000 </r>
       <r>    1.9871    1.0000 </r>
       <r>    2.8489    1.0000 </r>
       <r>    3.1150    1.0000 </r>
       <r>    3.1499    1.0000 </r>
       <r>    4.6092    1.0000 </r>
       <r>    5.1374    1.0000 </r>
       <r>    7.4924    0.0000 </r>
       <r>    8.1590    0.0000 </r>
       <r>    8.3372    0.0000 </r>
       <r>    8.8595    0.0000 </r>
      </set>
      <set comment="kpoint 27">
       <r>  -25.1631    1.0000 </r>
       <r>  -25.1578    1.0000 </r>
       <r>  -25.1562    1.0000 </r>
       <r>   -3.4580    1.0000 </r>
       <r>    0.7823    1.0000 </r>
       <r>    1.9006    1.0000 </r>
       <r>    2.0851    1.0000 </r>
       <r>    2.9479    1.0000 </r>
       <r>    3.1151    1.0000 </r>
       <r>    3.2814    1.0000 </r>
       <r>    4.5627    1.0000 </r>
       <r>    5.2650    1.0000 </r>
       <r>    7.4775    0.0000 </r>
       <r>    8.1733    0.0000 </r>
       <r>    8.4113    0.0000 </r>
       <r>    8.8128    0.0000 </r>
      </set>
      <set comment="kpoint 28">
       <r>  -25.1617    1.0000 </r>
       <r>  -25.1576    1.0000 </r>
       <r>  -25.1561    1.0000 </r>
       <r>   -3.7064    1.0000 </r>
       <r>    1.0078    1.0000 </r>
       <r>    1.8661    1.0000 </r>
       <r>    2.1690    1.0000 </r>
       <r>    2.9863    1.0000 </r>
       <r>    3.0896    1.0000 </r>
       <r>    3.6127    1.0000 </r>
       <r>    4.5794    1.0000 </r>
       <r>    5.4469    1.0000 </r>
       <r>    7.4854    0.0000 </r>
       <r>    7.9736    0.0000 </r>
       <r>    8.1850    0.0000 </r>
       <r>    8.9626    0.0000 </r>
      </set>
      <set comment="kpoint 29">
       <r>  -25.1602    1.0000 </r>
       <r>  -25.1572    1.0000 </r>
       <r>  -25.1560    1.0000 </r>
       <r>   -3.9524    1.0000 </r>
       <r>    1.2683    1.0000 </r>
       <r>    1.8747    1.0000 </r>
       <r>    2.1899    1.0000 </r>
       <r>    2.9709    1.0000 </r>
       <r>    3.0412    1.0000 </r>
       <r>    4.0193    1.0000 </r>
       <r>    4.7879    1.0000 </r>
       <r>    5.6434    1.0000 </r>
       <r>    7.2947    1.0000 </r>
       <r>    7.8099    0.0000 </r>
       <r>    8.0092    0.0000 </r>
       <r>    8.8171    0.0000 </r>
      </set>
      <set comment="kpoint 30">
       <r>  -25.1603    1.0000 </r>
       <r>  -25.1570    1.0000 </r>
       <r>  -25.1570    1.0000 </r>
       <r>   -3.9031    1.0000 </r>
       <r>    1.0167    1.0000 </r>
       <r>    2.2754    1.0000 </r>
       <r>    2.2754    1.0000 </r>
       <r>    2.8328    1.0000 </r>
       <r>    3.0753    1.0000 </r>
       <r>    4.1624    1.0000 </r>
       <r>    5.0774    1.0000 </r>
       <r>    5.0774    1.0000 </r>
       <r>    6.8193    1.0000 </r>
       <r>    7.5485    0.0000 </r>
       <r>    7.9732    0.0000 </r>
       <r>    9.2329    0.0000 </r>
      </set>
      <set comment="kpoint 31">
       <r>  -25.1616    1.0000 </r>
       <r>  -25.1572    1.0000 </r>
       <r>  -25.1571    1.0000 </r>
       <r>   -3.7169    1.0000 </r>
       <r>    0.8608    1.0000 </r>
       <r>    2.2686    1.0000 </r>
       <r>    2.3179    1.0000 </r>
       <r>    2.8341    1.0000 </r>
       <r>    3.1354    1.0000 </r>
       <r>    3.8188    1.0000 </r>
       <r>    4.8535    1.0000 </r>
       <r>    4.9394    1.0000 </r>
       <r>    7.0048    1.0000 </r>
       <r>    7.6291    0.0000 </r>
       <r>    7.8986    0.0000 </r>
       <r>    9.2422    0.0000 </r>
      </set>
      <set comment="kpoint 32">
       <r>  -25.1628    1.0000 </r>
       <r>  -25.1576    1.0000 </r>
       <r>  -25.1571    1.0000 </r>
       <r>   -3.5036    1.0000 </r>
       <r>    0.7662    1.0000 </r>
       <r>    2.1573    1.0000 </r>
       <r>    2.3165    1.0000 </r>
       <r>    2.9058    1.0000 </r>
       <r>    3.1658    1.0000 </r>
       <r>    3.4063    1.0000 </r>
       <r>    4.6018    1.0000 </r>
       <r>    4.8719    1.0000 </r>
       <r>    7.1493    1.0000 </r>
       <r>    7.9335    0.0000 </r>
       <r>    8.0328    0.0000 </r>
       <r>    8.9685    0.0000 </r>
      </set>
      <set comment="kpoint 33">
       <r>  -25.1637    1.0000 </r>
       <r>  -25.1582    1.0000 </r>
       <r>  -25.1570    1.0000 </r>
       <r>   -3.3115    1.0000 </r>
       <r>    0.7356    1.0000 </r>
       <r>    2.0195    1.0000 </r>
       <r>    2.2676    1.0000 </r>
       <r>    2.8992    1.0000 </r>
       <r>    3.1483    1.0000 </r>
       <r>    3.1711    1.0000 </r>
       <r>    4.4040    1.0000 </r>
       <r>    4.8622    1.0000 </r>
       <r>    7.2005    1.0000 </r>
       <r>    8.1084    0.0000 </r>
       <r>    8.5165    0.0000 </r>
       <r>    8.6250    0.0000 </r>
      </set>
      <set comment="kpoint 34">
       <r>  -25.1639    1.0000 </r>
       <r>  -25.1588    1.0000 </r>
       <r>  -25.1568    1.0000 </r>
       <r>   -3.1943    1.0000 </r>
       <r>    0.7471    1.0000 </r>
       <r>    1.9142    1.0000 </r>
       <r>    2.1752    1.0000 </r>
       <r>    2.7471    1.0000 </r>
       <r>    3.1747    1.0000 </r>
       <r>    3.1812    1.0000 </r>
       <r>    4.2694    1.0000 </r>
       <r>    4.8915    1.0000 </r>
       <r>    7.3084    0.9839 </r>
       <r>    8.1803    0.0000 </r>
       <r>    8.3459    0.0000 </r>
       <r>    8.9604    0.0000 </r>
      </set>
      <set comment="kpoint 35">
       <r>  -25.1636    1.0000 </r>
       <r>  -25.1592    1.0000 </r>
       <r>  -25.1566    1.0000 </r>
       <r>   -3.1903    1.0000 </r>
       <r>    0.7625    1.0000 </r>
       <r>    1.9096    1.0000 </r>
       <r>    2.0618    1.0000 </r>
       <r>    2.7240    1.0000 </r>
       <r>    3.1792    1.0000 </r>
       <r>    3.2554    1.0000 </r>
       <r>    4.1816    1.0000 </r>
       <r>    4.9628    1.0000 </r>
       <r>    7.4777    0.0000 </r>
       <r>    8.0355    0.0000 </r>
       <r>    8.4241    0.0000 </r>
       <r>    8.9713    0.0000 </r>
      </set>
      <set comment="kpoint 36">
       <r>  -25.1630    1.0000 </r>
       <r>  -25.1592    1.0000 </r>
       <r>  -25.1564    1.0000 </r>
       <r>   -3.3016    1.0000 </r>
       <r>    0.7847    1.0000 </r>
       <r>    1.9578    1.0000 </r>
       <r>    2.0117    1.0000 </r>
       <r>    2.8245    1.0000 </r>
       <r>    3.1696    1.0000 </r>
       <r>    3.3504    1.0000 </r>
       <r>    4.1380    1.0000 </r>
       <r>    5.0886    1.0000 </r>
       <r>    7.5730    0.0000 </r>
       <r>    8.2615    0.0000 </r>
       <r>    8.3093    0.0000 </r>
       <r>    8.8918    0.0000 </r>
      </set>
      <set comment="kpoint 37">
       <r>  -25.1623    1.0000 </r>
       <r>  -25.1586    1.0000 </r>
       <r>  -25.1562    1.0000 </r>
       <r>   -3.4917    1.0000 </r>
       <r>    0.8588    1.0000 </r>
       <r>    1.8878    1.0000 </r>
       <r>    2.1295    1.0000 </r>
       <r>    2.9392    1.0000 </r>
       <r>    3.1377    1.0000 </r>
       <r>    3.4865    1.0000 </r>
       <r>    4.2226    1.0000 </r>
       <r>    5.2630    1.0000 </r>
       <r>    7.6041    0.0000 </r>
       <r>    8.1339    0.0000 </r>
       <r>    8.5468    0.0000 </r>
       <r>    8.8393    0.0000 </r>
      </set>
      <set comment="kpoint 38">
       <r>  -25.1625    1.0000 </r>
       <r>  -25.1573    1.0000 </r>
       <r>  -25.1573    1.0000 </r>
       <r>   -3.5843    1.0000 </r>
       <r>    0.7568    1.0000 </r>
       <r>    2.4070    1.0000 </r>
       <r>    2.4070    1.0000 </r>
       <r>    2.7165    1.0000 </r>
       <r>    3.2117    1.0000 </r>
       <r>    3.6387    1.0000 </r>
       <r>    4.7824    1.0000 </r>
       <r>    4.7824    1.0000 </r>
       <r>    6.8412    1.0000 </r>
       <r>    7.6432    0.0000 </r>
       <r>    7.7673    0.0000 </r>
       <r>    9.1982    0.0000 </r>
      </set>
      <set comment="kpoint 39">
       <r>  -25.1635    1.0000 </r>
       <r>  -25.1576    1.0000 </r>
       <r>  -25.1574    1.0000 </r>
       <r>   -3.4250    1.0000 </r>
       <r>    0.7264    1.0000 </r>
       <r>    2.3522    1.0000 </r>
       <r>    2.4442    1.0000 </r>
       <r>    2.7606    1.0000 </r>
       <r>    3.2593    1.0000 </r>
       <r>    3.3236    1.0000 </r>
       <r>    4.5693    1.0000 </r>
       <r>    4.6978    1.0000 </r>
       <r>    6.9294    1.0000 </r>
       <r>    7.7296    0.0000 </r>
       <r>    7.8280    0.0000 </r>
       <r>    8.9892    0.0000 </r>
      </set>
      <set comment="kpoint 40">
       <r>  -25.1641    1.0000 </r>
       <r>  -25.1583    1.0000 </r>
       <r>  -25.1574    1.0000 </r>
       <r>   -3.2751    1.0000 </r>
       <r>    0.7805    1.0000 </r>
       <r>    2.1857    1.0000 </r>
       <r>    2.4179    1.0000 </r>
       <r>    2.8253    1.0000 </r>
       <r>    3.0711    1.0000 </r>
       <r>    3.2675    1.0000 </r>
       <r>    4.2782    1.0000 </r>
       <r>    4.6835    1.0000 </r>
       <r>    7.0173    1.0000 </r>
       <r>    7.8605    0.0000 </r>
       <r>    8.3283    0.0000 </r>
       <r>    8.6679    0.0000 </r>
      </set>
      <set comment="kpoint 41">
       <r>  -25.1640    1.0000 </r>
       <r>  -25.1592    1.0000 </r>
       <r>  -25.1572    1.0000 </r>
       <r>   -3.1709    1.0000 </r>
       <r>    0.8884    1.0000 </r>
       <r>    1.9981    1.0000 </r>
       <r>    2.3276    1.0000 </r>
       <r>    2.6420    1.0000 </r>
       <r>    3.1746    1.0000 </r>
       <r>    3.2598    1.0000 </r>
       <r>    4.0336    1.0000 </r>
       <r>    4.7157    1.0000 </r>
       <r>    7.1098    1.0000 </r>
       <r>    8.1694    0.0000 </r>
       <r>    8.2990    0.0000 </r>
       <r>    8.8708    0.0000 </r>
      </set>
      <set comment="kpoint 42">
       <r>  -25.1634    1.0000 </r>
       <r>  -25.1601    1.0000 </r>
       <r>  -25.1570    1.0000 </r>
       <r>   -3.1382    1.0000 </r>
       <r>    0.9486    1.0000 </r>
       <r>    1.8594    1.0000 </r>
       <r>    2.1970    1.0000 </r>
       <r>    2.5833    1.0000 </r>
       <r>    3.2459    1.0000 </r>
       <r>    3.3305    1.0000 </r>
       <r>    3.8810    1.0000 </r>
       <r>    4.7907    1.0000 </r>
       <r>    7.2788    1.0000 </r>
       <r>    8.0764    0.0000 </r>
       <r>    8.4870    0.0000 </r>
       <r>    8.8344    0.0000 </r>
      </set>
      <set comment="kpoint 43">
       <r>  -25.1628    1.0000 </r>
       <r>  -25.1603    1.0000 </r>
       <r>  -25.1566    1.0000 </r>
       <r>   -3.1854    1.0000 </r>
       <r>    0.8763    1.0000 </r>
       <r>    1.8925    1.0000 </r>
       <r>    2.0633    1.0000 </r>
       <r>    2.6757    1.0000 </r>
       <r>    3.2166    1.0000 </r>
       <r>    3.4051    1.0000 </r>
       <r>    3.8903    1.0000 </r>
       <r>    4.9179    1.0000 </r>
       <r>    7.4909    0.0000 </r>
       <r>    8.0304    0.0000 </r>
       <r>    8.4474    0.0000 </r>
       <r>    8.7899    0.0000 </r>
      </set>
      <set comment="kpoint 44">
       <r>  -25.1644    1.0000 </r>
       <r>  -25.1577    1.0000 </r>
       <r>  -25.1577    1.0000 </r>
       <r>   -3.3252    1.0000 </r>
       <r>    0.7403    1.0000 </r>
       <r>    2.5251    1.0000 </r>
       <r>    2.5251    1.0000 </r>
       <r>    2.5951    1.0000 </r>
       <r>    3.0819    1.0000 </r>
       <r>    3.3345    1.0000 </r>
       <r>    4.5842    1.0000 </r>
       <r>    4.5842    1.0000 </r>
       <r>    6.8166    1.0000 </r>
       <r>    7.5864    0.0000 </r>
       <r>    7.7088    0.0000 </r>
       <r>    8.9453    0.0000 </r>
      </set>
      <set comment="kpoint 45">
       <r>  -25.1649    1.0000 </r>
       <r>  -25.1580    1.0000 </r>
       <r>  -25.1577    1.0000 </r>
       <r>   -3.2290    1.0000 </r>
       <r>    0.8247    1.0000 </r>
       <r>    2.3748    1.0000 </r>
       <r>    2.5380    1.0000 </r>
       <r>    2.6924    1.0000 </r>
       <r>    2.8604    1.0000 </r>
       <r>    3.3589    1.0000 </r>
       <r>    4.3992    1.0000 </r>
       <r>    4.5493    1.0000 </r>
       <r>    6.8596    1.0000 </r>
       <r>    7.6053    0.0000 </r>
       <r>    7.9001    0.0000 </r>
       <r>    8.7476    0.0000 </r>
      </set>
      <set comment="kpoint 46">
       <r>  -25.1648    1.0000 </r>
       <r>  -25.1587    1.0000 </r>
       <r>  -25.1576    1.0000 </r>
       <r>   -3.1585    1.0000 </r>
       <r>    0.9507    1.0000 </r>
       <r>    2.1838    1.0000 </r>
       <r>    2.4732    1.0000 </r>
       <r>    2.5224    1.0000 </r>
       <r>    3.0147    1.0000 </r>
       <r>    3.3414    1.0000 </r>
       <r>    4.1064    1.0000 </r>
       <r>    4.5778    1.0000 </r>
       <r>    6.9407    1.0000 </r>
       <r>    7.8338    0.0000 </r>
       <r>    8.3148    0.0000 </r>
       <r>    8.6289    0.0000 </r>
      </set>
      <set comment="kpoint 47">
       <r>  -25.1640    1.0000 </r>
       <r>  -25.1596    1.0000 </r>
       <r>  -25.1573    1.0000 </r>
       <r>   -3.1269    1.0000 </r>
       <r>    1.0301    1.0000 </r>
       <r>    1.9606    1.0000 </r>
       <r>    2.3469    1.0000 </r>
       <r>    2.4818    1.0000 </r>
       <r>    3.2279    1.0000 </r>
       <r>    3.3021    1.0000 </r>
       <r>    3.8775    1.0000 </r>
       <r>    4.6579    1.0000 </r>
       <r>    7.0750    1.0000 </r>
       <r>    8.2206    0.0000 </r>
       <r>    8.2391    0.0000 </r>
       <r>    8.6744    0.0000 </r>
      </set>
      <set comment="kpoint 48">
       <r>  -25.1655    1.0000 </r>
       <r>  -25.1578    1.0000 </r>
       <r>  -25.1578    1.0000 </r>
       <r>   -3.1879    1.0000 </r>
       <r>    0.8870    1.0000 </r>
       <r>    2.5010    1.0000 </r>
       <r>    2.5957    1.0000 </r>
       <r>    2.5957    1.0000 </r>
       <r>    2.6484    1.0000 </r>
       <r>    3.4085    1.0000 </r>
       <r>    4.4864    1.0000 </r>
       <r>    4.4864    1.0000 </r>
       <r>    6.7941    1.0000 </r>
       <r>    7.4794    0.0000 </r>
       <r>    7.6827    0.0000 </r>
       <r>    8.7561    0.0000 </r>
      </set>
      <set comment="kpoint 49">
       <r>  -25.1654    1.0000 </r>
       <r>  -25.1581    1.0000 </r>
       <r>  -25.1578    1.0000 </r>
       <r>   -3.1631    1.0000 </r>
       <r>    0.9421    1.0000 </r>
       <r>    2.4014    1.0000 </r>
       <r>    2.4650    1.0000 </r>
       <r>    2.5725    1.0000 </r>
       <r>    2.8000    1.0000 </r>
       <r>    3.3985    1.0000 </r>
       <r>    4.3434    1.0000 </r>
       <r>    4.4985    1.0000 </r>
       <r>    6.8334    1.0000 </r>
       <r>    7.5604    0.0000 </r>
       <r>    7.8861    0.0000 </r>
       <r>    8.6660    0.0000 </r>
      </set>
      <set comment="kpoint 50">
       <r>  -25.1589    1.0000 </r>
       <r>  -25.1567    1.0000 </r>
       <r>  -25.1563    1.0000 </r>
       <r>   -4.1321    1.0000 </r>
       <r>    1.4229    1.0000 </r>
       <r>    2.0227    1.0000 </r>
       <r>    2.1694    1.0000 </r>
       <r>    2.9342    1.0000 </r>
       <r>    2.9810    1.0000 </r>
       <r>    4.4076    1.0000 </r>
       <r>    5.1875    1.0000 </r>
       <r>    5.6337    1.0000 </r>
       <r>    6.9263    1.0000 </r>
       <r>    7.6021    0.0000 </r>
       <r>    8.0758    0.0000 </r>
       <r>    8.8168    0.0000 </r>
      </set>
      <set comment="kpoint 51">
       <r>  -25.1605    1.0000 </r>
       <r>  -25.1570    1.0000 </r>
       <r>  -25.1563    1.0000 </r>
       <r>   -3.9114    1.0000 </r>
       <r>    1.1717    1.0000 </r>
       <r>    1.9655    1.0000 </r>
       <r>    2.1819    1.0000 </r>
       <r>    2.9718    1.0000 </r>
       <r>    3.0396    1.0000 </r>
       <r>    3.9234    1.0000 </r>
       <r>    4.9090    1.0000 </r>
       <r>    5.4860    1.0000 </r>
       <r>    7.2600    1.0000 </r>
       <r>    7.6794    0.0000 </r>
       <r>    8.0418    0.0000 </r>
       <r>    9.0461    0.0000 </r>
      </set>
      <set comment="kpoint 52">
       <r>  -25.1623    1.0000 </r>
       <r>  -25.1572    1.0000 </r>
       <r>  -25.1563    1.0000 </r>
       <r>   -3.6506    1.0000 </r>
       <r>    0.9204    1.0000 </r>
       <r>    1.9295    1.0000 </r>
       <r>    2.1438    1.0000 </r>
       <r>    3.0003    1.0000 </r>
       <r>    3.0751    1.0000 </r>
       <r>    3.4521    1.0000 </r>
       <r>    4.8035    1.0000 </r>
       <r>    5.3142    1.0000 </r>
       <r>    7.3343    0.0643 </r>
       <r>    7.9783    0.0000 </r>
       <r>    8.1708    0.0000 </r>
       <r>    9.0756    0.0000 </r>
      </set>
      <set comment="kpoint 53">
       <r>  -25.1638    1.0000 </r>
       <r>  -25.1573    1.0000 </r>
       <r>  -25.1564    1.0000 </r>
       <r>   -3.4065    1.0000 </r>
       <r>    0.6980    1.0000 </r>
       <r>    1.9206    1.0000 </r>
       <r>    2.0853    1.0000 </r>
       <r>    2.9604    1.0000 </r>
       <r>    3.0818    1.0000 </r>
       <r>    3.1687    1.0000 </r>
       <r>    4.7768    1.0000 </r>
       <r>    5.1852    1.0000 </r>
       <r>    7.3692    0.0000 </r>
       <r>    8.1775    0.0000 </r>
       <r>    8.4233    0.0000 </r>
       <r>    8.6472    0.0000 </r>
      </set>
      <set comment="kpoint 54">
       <r>  -25.1646    1.0000 </r>
       <r>  -25.1574    1.0000 </r>
       <r>  -25.1564    1.0000 </r>
       <r>   -3.2534    1.0000 </r>
       <r>    0.5591    1.0000 </r>
       <r>    1.9292    1.0000 </r>
       <r>    2.0371    1.0000 </r>
       <r>    2.8548    1.0000 </r>
       <r>    3.0707    1.0000 </r>
       <r>    3.1154    1.0000 </r>
       <r>    4.7747    1.0000 </r>
       <r>    5.1214    1.0000 </r>
       <r>    7.4512    0.0000 </r>
       <r>    8.1085    0.0000 </r>
       <r>    8.3714    0.0000 </r>
       <r>    8.7387    0.0000 </r>
      </set>
      <set comment="kpoint 55">
       <r>  -25.1607    1.0000 </r>
       <r>  -25.1572    1.0000 </r>
       <r>  -25.1567    1.0000 </r>
       <r>   -3.8481    1.0000 </r>
       <r>    1.0138    1.0000 </r>
       <r>    2.1372    1.0000 </r>
       <r>    2.2612    1.0000 </r>
       <r>    2.9049    1.0000 </r>
       <r>    3.0734    1.0000 </r>
       <r>    3.9796    1.0000 </r>
       <r>    4.8356    1.0000 </r>
       <r>    5.2281    1.0000 </r>
       <r>    7.1826    1.0000 </r>
       <r>    7.5438    0.0000 </r>
       <r>    7.9981    0.0000 </r>
       <r>    9.1595    0.0000 </r>
      </set>
      <set comment="kpoint 56">
       <r>  -25.1621    1.0000 </r>
       <r>  -25.1576    1.0000 </r>
       <r>  -25.1567    1.0000 </r>
       <r>   -3.6241    1.0000 </r>
       <r>    0.8563    1.0000 </r>
       <r>    2.0705    1.0000 </r>
       <r>    2.2629    1.0000 </r>
       <r>    2.9482    1.0000 </r>
       <r>    3.1072    1.0000 </r>
       <r>    3.5858    1.0000 </r>
       <r>    4.5833    1.0000 </r>
       <r>    5.1128    1.0000 </r>
       <r>    7.3415    0.0056 </r>
       <r>    7.7890    0.0000 </r>
       <r>    8.0966    0.0000 </r>
       <r>    9.1094    0.0000 </r>
      </set>
      <set comment="kpoint 57">
       <r>  -25.1632    1.0000 </r>
       <r>  -25.1580    1.0000 </r>
       <r>  -25.1568    1.0000 </r>
       <r>   -3.4019    1.0000 </r>
       <r>    0.7511    1.0000 </r>
       <r>    1.9855    1.0000 </r>
       <r>    2.2217    1.0000 </r>
       <r>    2.9632    1.0000 </r>
       <r>    3.0938    1.0000 </r>
       <r>    3.2671    1.0000 </r>
       <r>    4.4633    1.0000 </r>
       <r>    5.0142    1.0000 </r>
       <r>    7.3428    0.0033 </r>
       <r>    8.0242    0.0000 </r>
       <r>    8.5087    0.0000 </r>
       <r>    8.6833    0.0000 </r>
      </set>
      <set comment="kpoint 58">
       <r>  -25.1639    1.0000 </r>
       <r>  -25.1583    1.0000 </r>
       <r>  -25.1568    1.0000 </r>
       <r>   -3.2408    1.0000 </r>
       <r>    0.6980    1.0000 </r>
       <r>    1.9094    1.0000 </r>
       <r>    2.1656    1.0000 </r>
       <r>    2.8281    1.0000 </r>
       <r>    3.0950    1.0000 </r>
       <r>    3.1976    1.0000 </r>
       <r>    4.3942    1.0000 </r>
       <r>    4.9747    1.0000 </r>
       <r>    7.3998    0.0000 </r>
       <r>    8.1333    0.0000 </r>
       <r>    8.3421    0.0000 </r>
       <r>    8.8817    0.0000 </r>
      </set>
      <set comment="kpoint 59">
       <r>  -25.1640    1.0000 </r>
       <r>  -25.1586    1.0000 </r>
       <r>  -25.1567    1.0000 </r>
       <r>   -3.1945    1.0000 </r>
       <r>    0.6903    1.0000 </r>
       <r>    1.8871    1.0000 </r>
       <r>    2.1113    1.0000 </r>
       <r>    2.7648    1.0000 </r>
       <r>    3.1128    1.0000 </r>
       <r>    3.2076    1.0000 </r>
       <r>    4.3475    1.0000 </r>
       <r>    4.9903    1.0000 </r>
       <r>    7.5096    0.0000 </r>
       <r>    7.9829    0.0000 </r>
       <r>    8.3917    0.0000 </r>
       <r>    9.0032    0.0000 </r>
      </set>
      <set comment="kpoint 60">
       <r>  -25.1635    1.0000 </r>
       <r>  -25.1586    1.0000 </r>
       <r>  -25.1565    1.0000 </r>
       <r>   -3.2807    1.0000 </r>
       <r>    0.7273    1.0000 </r>
       <r>    1.9170    1.0000 </r>
       <r>    2.0950    1.0000 </r>
       <r>    2.8398    1.0000 </r>
       <r>    3.1252    1.0000 </r>
       <r>    3.2510    1.0000 </r>
       <r>    4.3153    1.0000 </r>
       <r>    5.0610    1.0000 </r>
       <r>    7.5309    0.0000 </r>
       <r>    8.1168    0.0000 </r>
       <r>    8.3468    0.0000 </r>
       <r>    8.9586    0.0000 </r>
      </set>
      <set comment="kpoint 61">
       <r>  -25.1626    1.0000 </r>
       <r>  -25.1584    1.0000 </r>
       <r>  -25.1563    1.0000 </r>
       <r>   -3.4677    1.0000 </r>
       <r>    0.8189    1.0000 </r>
       <r>    1.9241    1.0000 </r>
       <r>    2.1577    1.0000 </r>
       <r>    2.9527    1.0000 </r>
       <r>    3.1156    1.0000 </r>
       <r>    3.4073    1.0000 </r>
       <r>    4.3203    1.0000 </r>
       <r>    5.1916    1.0000 </r>
       <r>    7.5503    0.0000 </r>
       <r>    8.0196    0.0000 </r>
       <r>    8.5131    0.0000 </r>
       <r>    8.8548    0.0000 </r>
      </set>
      <set comment="kpoint 62">
       <r>  -25.1616    1.0000 </r>
       <r>  -25.1578    1.0000 </r>
       <r>  -25.1562    1.0000 </r>
       <r>   -3.6968    1.0000 </r>
       <r>    0.9703    1.0000 </r>
       <r>    1.9303    1.0000 </r>
       <r>    2.2135    1.0000 </r>
       <r>    2.9803    1.0000 </r>
       <r>    3.0864    1.0000 </r>
       <r>    3.6905    1.0000 </r>
       <r>    4.4748    1.0000 </r>
       <r>    5.3581    1.0000 </r>
       <r>    7.5804    0.0000 </r>
       <r>    7.7864    0.0000 </r>
       <r>    8.1729    0.0000 </r>
       <r>    8.9891    0.0000 </r>
      </set>
      <set comment="kpoint 63">
       <r>  -25.1626    1.0000 </r>
       <r>  -25.1576    1.0000 </r>
       <r>  -25.1571    1.0000 </r>
       <r>   -3.5427    1.0000 </r>
       <r>    0.7675    1.0000 </r>
       <r>    2.2412    1.0000 </r>
       <r>    2.3754    1.0000 </r>
       <r>    2.8433    1.0000 </r>
       <r>    3.1806    1.0000 </r>
       <r>    3.5440    1.0000 </r>
       <r>    4.5563    1.0000 </r>
       <r>    4.8830    1.0000 </r>
       <r>    7.0887    1.0000 </r>
       <r>    7.7215    0.0000 </r>
       <r>    7.9466    0.0000 </r>
       <r>    9.1071    0.0000 </r>
      </set>
      <set comment="kpoint 64">
       <r>  -25.1634    1.0000 </r>
       <r>  -25.1582    1.0000 </r>
       <r>  -25.1572    1.0000 </r>
       <r>   -3.3623    1.0000 </r>
       <r>    0.7552    1.0000 </r>
       <r>    2.1223    1.0000 </r>
       <r>    2.3789    1.0000 </r>
       <r>    2.9155    1.0000 </r>
       <r>    3.1223    1.0000 </r>
       <r>    3.2954    1.0000 </r>
       <r>    4.2865    1.0000 </r>
       <r>    4.8283    1.0000 </r>
       <r>    7.1773    1.0000 </r>
       <r>    7.8119    0.0000 </r>
       <r>    8.3791    0.0000 </r>
       <r>    8.7307    0.0000 </r>
      </set>
      <set comment="kpoint 65">
       <r>  -25.1637    1.0000 </r>
       <r>  -25.1589    1.0000 </r>
       <r>  -25.1572    1.0000 </r>
       <r>   -3.2194    1.0000 </r>
       <r>    0.8138    1.0000 </r>
       <r>    1.9724    1.0000 </r>
       <r>    2.3331    1.0000 </r>
       <r>    2.7857    1.0000 </r>
       <r>    3.1025    1.0000 </r>
       <r>    3.2563    1.0000 </r>
       <r>    4.0872    1.0000 </r>
       <r>    4.8163    1.0000 </r>
       <r>    7.2385    1.0000 </r>
       <r>    8.0428    0.0000 </r>
       <r>    8.3206    0.0000 </r>
       <r>    8.8243    0.0000 </r>
      </set>
      <set comment="kpoint 66">
       <r>  -25.1636    1.0000 </r>
       <r>  -25.1596    1.0000 </r>
       <r>  -25.1570    1.0000 </r>
       <r>   -3.1524    1.0000 </r>
       <r>    0.8786    1.0000 </r>
       <r>    1.8517    1.0000 </r>
       <r>    2.2492    1.0000 </r>
       <r>    2.6504    1.0000 </r>
       <r>    3.1733    1.0000 </r>
       <r>    3.2857    1.0000 </r>
       <r>    3.9609    1.0000 </r>
       <r>    4.8448    1.0000 </r>
       <r>    7.3676    0.0000 </r>
       <r>    8.0427    0.0000 </r>
       <r>    8.3186    0.0000 </r>
       <r>    8.8503    0.0000 </r>
      </set>
      <set comment="kpoint 67">
       <r>  -25.1631    1.0000 </r>
       <r>  -25.1600    1.0000 </r>
       <r>  -25.1568    1.0000 </r>
       <r>   -3.1805    1.0000 </r>
       <r>    0.8623    1.0000 </r>
       <r>    1.8538    1.0000 </r>
       <r>    2.1574    1.0000 </r>
       <r>    2.6882    1.0000 </r>
       <r>    3.1845    1.0000 </r>
       <r>    3.3532    1.0000 </r>
       <r>    3.9211    1.0000 </r>
       <r>    4.9153    1.0000 </r>
       <r>    7.5424    0.0000 </r>
       <r>    7.9729    0.0000 </r>
       <r>    8.3149    0.0000 </r>
       <r>    8.8935    0.0000 </r>
      </set>
      <set comment="kpoint 68">
       <r>  -25.1628    1.0000 </r>
       <r>  -25.1595    1.0000 </r>
       <r>  -25.1565    1.0000 </r>
       <r>   -3.2963    1.0000 </r>
       <r>    0.8092    1.0000 </r>
       <r>    1.9184    1.0000 </r>
       <r>    2.1197    1.0000 </r>
       <r>    2.8295    1.0000 </r>
       <r>    3.1571    1.0000 </r>
       <r>    3.3979    1.0000 </r>
       <r>    4.0160    1.0000 </r>
       <r>    5.0369    1.0000 </r>
       <r>    7.6008    0.0000 </r>
       <r>    8.1123    0.0000 </r>
       <r>    8.3069    0.0000 </r>
       <r>    8.8966    0.0000 </r>
      </set>
      <set comment="kpoint 69">
       <r>  -25.1642    1.0000 </r>
       <r>  -25.1580    1.0000 </r>
       <r>  -25.1576    1.0000 </r>
       <r>   -3.2986    1.0000 </r>
       <r>    0.7664    1.0000 </r>
       <r>    2.2761    1.0000 </r>
       <r>    2.4991    1.0000 </r>
       <r>    2.8049    1.0000 </r>
       <r>    3.0372    1.0000 </r>
       <r>    3.3040    1.0000 </r>
       <r>    4.3364    1.0000 </r>
       <r>    4.6681    1.0000 </r>
       <r>    6.9669    1.0000 </r>
       <r>    7.6482    0.0000 </r>
       <r>    8.1085    0.0000 </r>
       <r>    8.7667    0.0000 </r>
      </set>
      <set comment="kpoint 70">
       <r>  -25.1643    1.0000 </r>
       <r>  -25.1587    1.0000 </r>
       <r>  -25.1576    1.0000 </r>
       <r>   -3.1934    1.0000 </r>
       <r>    0.8824    1.0000 </r>
       <r>    2.1146    1.0000 </r>
       <r>    2.4845    1.0000 </r>
       <r>    2.7145    1.0000 </r>
       <r>    2.9924    1.0000 </r>
       <r>    3.3043    1.0000 </r>
       <r>    4.0387    1.0000 </r>
       <r>    4.6836    1.0000 </r>
       <r>    7.0514    1.0000 </r>
       <r>    7.7489    0.0000 </r>
       <r>    8.4138    0.0000 </r>
       <r>    8.7100    0.0000 </r>
      </set>
      <set comment="kpoint 71">
       <r>  -25.1639    1.0000 </r>
       <r>  -25.1596    1.0000 </r>
       <r>  -25.1574    1.0000 </r>
       <r>   -3.1324    1.0000 </r>
       <r>    1.0118    1.0000 </r>
       <r>    1.9241    1.0000 </r>
       <r>    2.4074    1.0000 </r>
       <r>    2.5328    1.0000 </r>
       <r>    3.1865    1.0000 </r>
       <r>    3.2899    1.0000 </r>
       <r>    3.7974    1.0000 </r>
       <r>    4.7260    1.0000 </r>
       <r>    7.1649    1.0000 </r>
       <r>    8.0264    0.0000 </r>
       <r>    8.2467    0.0000 </r>
       <r>    8.6320    0.0000 </r>
      </set>
      <set comment="kpoint 72">
       <r>  -25.1632    1.0000 </r>
       <r>  -25.1604    1.0000 </r>
       <r>  -25.1571    1.0000 </r>
       <r>   -3.1278    1.0000 </r>
       <r>    1.0145    1.0000 </r>
       <r>    1.8083    1.0000 </r>
       <r>    2.2805    1.0000 </r>
       <r>    2.5507    1.0000 </r>
       <r>    3.2376    1.0000 </r>
       <r>    3.3792    1.0000 </r>
       <r>    3.7037    1.0000 </r>
       <r>    4.7995    1.0000 </r>
       <r>    7.3515    0.0000 </r>
       <r>    8.0048    0.0000 </r>
       <r>    8.3584    0.0000 </r>
       <r>    8.6842    0.0000 </r>
      </set>
      <set comment="kpoint 73">
       <r>  -25.1651    1.0000 </r>
       <r>  -25.1582    1.0000 </r>
       <r>  -25.1578    1.0000 </r>
       <r>   -3.1716    1.0000 </r>
       <r>    0.9246    1.0000 </r>
       <r>    2.2835    1.0000 </r>
       <r>    2.5095    1.0000 </r>
       <r>    2.6481    1.0000 </r>
       <r>    2.8308    1.0000 </r>
       <r>    3.3700    1.0000 </r>
       <r>    4.2017    1.0000 </r>
       <r>    4.5789    1.0000 </r>
       <r>    6.8982    1.0000 </r>
       <r>    7.5624    0.0000 </r>
       <r>    8.1590    0.0000 </r>
       <r>    8.6548    0.0000 </r>
      </set>
      <set comment="kpoint 74">
       <r>  -25.1647    1.0000 </r>
       <r>  -25.1589    1.0000 </r>
       <r>  -25.1577    1.0000 </r>
       <r>   -3.1382    1.0000 </r>
       <r>    1.0128    1.0000 </r>
       <r>    2.1086    1.0000 </r>
       <r>    2.4387    1.0000 </r>
       <r>    2.5811    1.0000 </r>
       <r>    2.9975    1.0000 </r>
       <r>    3.3373    1.0000 </r>
       <r>    3.9355    1.0000 </r>
       <r>    4.6430    1.0000 </r>
       <r>    7.0066    1.0000 </r>
       <r>    7.7115    0.0000 </r>
       <r>    8.4228    0.0000 </r>
       <r>    8.5947    0.0000 </r>
      </set>
      <set comment="kpoint 75">
       <r>  -25.1628    1.0000 </r>
       <r>  -25.1584    1.0000 </r>
       <r>  -25.1568    1.0000 </r>
       <r>   -3.4327    1.0000 </r>
       <r>    0.7882    1.0000 </r>
       <r>    2.0155    1.0000 </r>
       <r>    2.2767    1.0000 </r>
       <r>    2.9663    1.0000 </r>
       <r>    3.0929    1.0000 </r>
       <r>    3.4238    1.0000 </r>
       <r>    4.2219    1.0000 </r>
       <r>    5.0227    1.0000 </r>
       <r>    7.4641    0.0000 </r>
       <r>    7.8080    0.0000 </r>
       <r>    8.4816    0.0000 </r>
       <r>    8.8027    0.0000 </r>
      </set>
      <set comment="kpoint 76">
       <r>  -25.1632    1.0000 </r>
       <r>  -25.1591    1.0000 </r>
       <r>  -25.1569    1.0000 </r>
       <r>   -3.2658    1.0000 </r>
       <r>    0.8003    1.0000 </r>
       <r>    1.9258    1.0000 </r>
       <r>    2.2665    1.0000 </r>
       <r>    2.8516    1.0000 </r>
       <r>    3.0953    1.0000 </r>
       <r>    3.3229    1.0000 </r>
       <r>    4.0385    1.0000 </r>
       <r>    4.9362    1.0000 </r>
       <r>    7.4951    0.0000 </r>
       <r>    7.9531    0.0000 </r>
       <r>    8.2963    0.0000 </r>
       <r>    8.8934    0.0000 </r>
      </set>
      <set comment="kpoint 77">
       <r>  -25.1635    1.0000 </r>
       <r>  -25.1595    1.0000 </r>
       <r>  -25.1570    1.0000 </r>
       <r>   -3.1680    1.0000 </r>
       <r>    0.8493    1.0000 </r>
       <r>    1.8338    1.0000 </r>
       <r>    2.2651    1.0000 </r>
       <r>    2.7039    1.0000 </r>
       <r>    3.1188    1.0000 </r>
       <r>    3.2964    1.0000 </r>
       <r>    3.9621    1.0000 </r>
       <r>    4.8964    1.0000 </r>
       <r>    7.5499    0.0000 </r>
       <r>    7.9099    0.0000 </r>
       <r>    8.2330    0.0000 </r>
       <r>    8.8662    0.0000 </r>
      </set>
      <set comment="kpoint 78">
       <r>  -25.1636    1.0000 </r>
       <r>  -25.1589    1.0000 </r>
       <r>  -25.1573    1.0000 </r>
[...]
       <r>    7.7679    0.0000 </r>
       <r>    8.3435    0.0000 </r>
       <r>    8.7765    0.0000 </r>
      </set>
      <set comment="kpoint 79">
       <r>  -25.1635    1.0000 </r>
       <r>  -25.1597    1.0000 </r>
       <r>  -25.1574    1.0000 </r>
       <r>   -3.1469    1.0000 </r>
       <r>    0.9765    1.0000 </r>
       <r>    1.8615    1.0000 </r>
       <r>    2.4353    1.0000 </r>
       <r>    2.6663    1.0000 </r>
       <r>    3.0960    1.0000 </r>
       <r>    3.3049    1.0000 </r>
       <r>    3.6997    1.0000 </r>
       <r>    4.8186    1.0000 </r>
       <r>    7.4091    0.0000 </r>
       <r>    7.9136    0.0000 </r>
       <r>    8.0625    0.0000 </r>
       <r>    8.6644    0.0000 </r>
      </set>
      <set comment="kpoint 80">
       <r>  -25.1631    1.0000 </r>
       <r>  -25.1603    1.0000 </r>
       <r>  -25.1573    1.0000 </r>
       <r>   -3.1224    1.0000 </r>
       <r>    1.0414    1.0000 </r>
       <r>    1.7714    1.0000 </r>
       <r>    2.4033    1.0000 </r>
       <r>    2.5827    1.0000 </r>
       <r>    3.1661    1.0000 </r>
       <r>    3.3567    1.0000 </r>
       <r>    3.5761    1.0000 </r>
       <r>    4.8379    1.0000 </r>
       <r>    7.5538    0.0000 </r>
       <r>    7.8582    0.0000 </r>
       <r>    8.0995    0.0000 </r>
       <r>    8.5601    0.0000 </r>
      </set>
      <set comment="kpoint 81">
       <r>  -25.1630    1.0000 </r>
       <r>  -25.1601    1.0000 </r>
       <r>  -25.1571    1.0000 </r>
       <r>   -3.1650    1.0000 </r>
       <r>    0.9349    1.0000 </r>
       <r>    1.8255    1.0000 </r>
       <r>    2.3351    1.0000 </r>
       <r>    2.6785    1.0000 </r>
       <r>    3.1429    1.0000 </r>
       <r>    3.3715    1.0000 </r>
       <r>    3.7091    1.0000 </r>
       <r>    4.8715    1.0000 </r>
       <r>    7.6222    0.0000 </r>
       <r>    7.9013    0.0000 </r>
       <r>    8.0304    0.0000 </r>
       <r>    8.8041    0.0000 </r>
      </set>
      <set comment="kpoint 82">
       <r>  -25.1641    1.0000 </r>
       <r>  -25.1592    1.0000 </r>
       <r>  -25.1577    1.0000 </r>
       <r>   -3.1353    1.0000 </r>
       <r>    1.0277    1.0000 </r>
       <r>    1.9752    1.0000 </r>
       <r>    2.4557    1.0000 </r>
       <r>    2.7024    1.0000 </r>
       <r>    2.9887    1.0000 </r>
       <r>    3.2968    1.0000 </r>
       <r>    3.7300    1.0000 </r>
       <r>    4.7454    1.0000 </r>
       <r>    7.1999    1.0000 </r>
       <r>    7.6886    0.0000 </r>
       <r>    8.2979    0.0000 </r>
       <r>    8.5642    0.0000 </r>
      </set>
      <set comment="kpoint 83">
       <r>  -25.1635    1.0000 </r>
       <r>  -25.1599    1.0000 </r>
       <r>  -25.1576    1.0000 </r>
       <r>   -3.1108    1.0000 </r>
       <r>    1.1207    1.0000 </r>
       <r>    1.8271    1.0000 </r>
       <r>    2.4214    1.0000 </r>
       <r>    2.6353    1.0000 </r>
       <r>    3.1489    1.0000 </r>
       <r>    3.2620    1.0000 </r>
       <r>    3.5274    1.0000 </r>
       <r>    4.7965    1.0000 </r>
       <r>    7.3699    0.0000 </r>
       <r>    7.8284    0.0000 </r>
       <r>    8.1419    0.0000 </r>
       <r>    8.4163    0.0000 </r>
      </set>
      <set comment="kpoint 84">
       <r>  -25.1631    1.0000 </r>
       <r>  -25.1603    1.0000 </r>
       <r>  -25.1576    1.0000 </r>
       <r>   -3.1078    1.0000 </r>
       <r>    1.1407    1.0000 </r>
       <r>    1.7641    1.0000 </r>
       <r>    2.4256    1.0000 </r>
       <r>    2.6978    1.0000 </r>
       <r>    3.1142    1.0000 </r>
       <r>    3.2790    1.0000 </r>
       <r>    3.4246    1.0000 </r>
       <r>    4.8359    1.0000 </r>
       <r>    7.6326    0.0000 </r>
       <r>    7.8031    0.0000 </r>
       <r>    7.9082    0.0000 </r>
       <r>    8.4046    0.0000 </r>
      </set>
     </set>
    </set>
   </array>
  </eigenvalues>
  <separator name="orbital magnetization" >
   <v name="MAGDIPOLOUT">      0.00000000      0.00000000      0.00000000</v>
  </separator>
  <dos>
   <i name="efermi">      7.32357488 </i>
   <total>
    <array>
     <dimension dim="1">gridpoints</dimension>
     <dimension dim="2">spin</dimension>
     <field>energy</field>
     <field>total</field>
     <field>integrated</field>
     <set>
      <set comment="spin 1">
       <r>   -26.9043     0.0000     0.0000 </r>
       <r>   -26.7768     0.0000     0.0000 </r>
       <r>   -26.6492     0.0000     0.0000 </r>
       <r>   -26.5217     0.0000     0.0000 </r>
       <r>   -26.3942     0.0000     0.0000 </r>
       <r>   -26.2667     0.0000     0.0000 </r>
       <r>   -26.1392     0.0000     0.0000 </r>
       <r>   -26.0117     0.0000     0.0000 </r>
       <r>   -25.8842     0.0000     0.0000 </r>
       <r>   -25.7567     0.0000     0.0000 </r>
       <r>   -25.6291     0.0000     0.0000 </r>
       <r>   -25.5016     0.0000     0.0000 </r>
       <r>   -25.3741     0.0000     0.0000 </r>
       <r>   -25.2466     0.0000     0.0000 </r>
       <r>   -25.1191    47.0541     6.0000 </r>
       <r>   -24.9916     0.0000     6.0000 </r>
       <r>   -24.8641     0.0000     6.0000 </r>
       <r>   -24.7366     0.0000     6.0000 </r>
       <r>   -24.6090     0.0000     6.0000 </r>
       <r>   -24.4815     0.0000     6.0000 </r>
       <r>   -24.3540     0.0000     6.0000 </r>
       <r>   -24.2265     0.0000     6.0000 </r>
       <r>   -24.0990     0.0000     6.0000 </r>
       <r>   -23.9715     0.0000     6.0000 </r>
       <r>   -23.8440     0.0000     6.0000 </r>
       <r>   -23.7165     0.0000     6.0000 </r>
       <r>   -23.5889     0.0000     6.0000 </r>
       <r>   -23.4614     0.0000     6.0000 </r>
       <r>   -23.3339     0.0000     6.0000 </r>
       <r>   -23.2064     0.0000     6.0000 </r>
       <r>   -23.0789     0.0000     6.0000 </r>
       <r>   -22.9514     0.0000     6.0000 </r>
       <r>   -22.8239     0.0000     6.0000 </r>
       <r>   -22.6963     0.0000     6.0000 </r>
       <r>   -22.5688     0.0000     6.0000 </r>
       <r>   -22.4413     0.0000     6.0000 </r>
       <r>   -22.3138     0.0000     6.0000 </r>
       <r>   -22.1863     0.0000     6.0000 </r>
       <r>   -22.0588     0.0000     6.0000 </r>
       <r>   -21.9313     0.0000     6.0000 </r>
       <r>   -21.8038     0.0000     6.0000 </r>
       <r>   -21.6762     0.0000     6.0000 </r>
       <r>   -21.5487     0.0000     6.0000 </r>
       <r>   -21.4212     0.0000     6.0000 </r>
       <r>   -21.2937     0.0000     6.0000 </r>
       <r>   -21.1662     0.0000     6.0000 </r>
       <r>   -21.0387     0.0000     6.0000 </r>
       <r>   -20.9112     0.0000     6.0000 </r>
       <r>   -20.7837     0.0000     6.0000 </r>
       <r>   -20.6561     0.0000     6.0000 </r>
       <r>   -20.5286     0.0000     6.0000 </r>
       <r>   -20.4011     0.0000     6.0000 </r>
       <r>   -20.2736     0.0000     6.0000 </r>
       <r>   -20.1461     0.0000     6.0000 </r>
       <r>   -20.0186     0.0000     6.0000 </r>
       <r>   -19.8911     0.0000     6.0000 </r>
       <r>   -19.7636     0.0000     6.0000 </r>
       <r>   -19.6360     0.0000     6.0000 </r>
       <r>   -19.5085     0.0000     6.0000 </r>
       <r>   -19.3810     0.0000     6.0000 </r>
       <r>   -19.2535     0.0000     6.0000 </r>
       <r>   -19.1260     0.0000     6.0000 </r>
       <r>   -18.9985     0.0000     6.0000 </r>
       <r>   -18.8710     0.0000     6.0000 </r>
       <r>   -18.7435     0.0000     6.0000 </r>
       <r>   -18.6159     0.0000     6.0000 </r>
       <r>   -18.4884     0.0000     6.0000 </r>
       <r>   -18.3609     0.0000     6.0000 </r>
       <r>   -18.2334     0.0000     6.0000 </r>
       <r>   -18.1059     0.0000     6.0000 </r>
       <r>   -17.9784     0.0000     6.0000 </r>
       <r>   -17.8509     0.0000     6.0000 </r>
       <r>   -17.7234     0.0000     6.0000 </r>
       <r>   -17.5958     0.0000     6.0000 </r>
       <r>   -17.4683     0.0000     6.0000 </r>
       <r>   -17.3408     0.0000     6.0000 </r>
       <r>   -17.2133     0.0000     6.0000 </r>
       <r>   -17.0858     0.0000     6.0000 </r>
       <r>   -16.9583     0.0000     6.0000 </r>
       <r>   -16.8308     0.0000     6.0000 </r>
       <r>   -16.7033     0.0000     6.0000 </r>
       <r>   -16.5757     0.0000     6.0000 </r>
       <r>   -16.4482     0.0000     6.0000 </r>
       <r>   -16.3207     0.0000     6.0000 </r>
       <r>   -16.1932     0.0000     6.0000 </r>
       <r>   -16.0657     0.0000     6.0000 </r>
       <r>   -15.9382     0.0000     6.0000 </r>
       <r>   -15.8107     0.0000     6.0000 </r>
       <r>   -15.6831     0.0000     6.0000 </r>
       <r>   -15.5556     0.0000     6.0000 </r>
       <r>   -15.4281     0.0000     6.0000 </r>
       <r>   -15.3006     0.0000     6.0000 </r>
       <r>   -15.1731     0.0000     6.0000 </r>
       <r>   -15.0456     0.0000     6.0000 </r>
       <r>   -14.9181     0.0000     6.0000 </r>
       <r>   -14.7906     0.0000     6.0000 </r>
       <r>   -14.6630     0.0000     6.0000 </r>
       <r>   -14.5355     0.0000     6.0000 </r>
       <r>   -14.4080     0.0000     6.0000 </r>
       <r>   -14.2805     0.0000     6.0000 </r>
       <r>   -14.1530     0.0000     6.0000 </r>
       <r>   -14.0255     0.0000     6.0000 </r>
       <r>   -13.8980     0.0000     6.0000 </r>
       <r>   -13.7705     0.0000     6.0000 </r>
       <r>   -13.6429     0.0000     6.0000 </r>
       <r>   -13.5154     0.0000     6.0000 </r>
       <r>   -13.3879     0.0000     6.0000 </r>
       <r>   -13.2604     0.0000     6.0000 </r>
       <r>   -13.1329     0.0000     6.0000 </r>
       <r>   -13.0054     0.0000     6.0000 </r>
       <r>   -12.8779     0.0000     6.0000 </r>
       <r>   -12.7504     0.0000     6.0000 </r>
       <r>   -12.6228     0.0000     6.0000 </r>
       <r>   -12.4953     0.0000     6.0000 </r>
       <r>   -12.3678     0.0000     6.0000 </r>
       <r>   -12.2403     0.0000     6.0000 </r>
       <r>   -12.1128     0.0000     6.0000 </r>
       <r>   -11.9853     0.0000     6.0000 </r>
       <r>   -11.8578     0.0000     6.0000 </r>
       <r>   -11.7303     0.0000     6.0000 </r>
       <r>   -11.6027     0.0000     6.0000 </r>
       <r>   -11.4752     0.0000     6.0000 </r>
       <r>   -11.3477     0.0000     6.0000 </r>
       <r>   -11.2202     0.0000     6.0000 </r>
       <r>   -11.0927     0.0000     6.0000 </r>
       <r>   -10.9652     0.0000     6.0000 </r>
       <r>   -10.8377     0.0000     6.0000 </r>
       <r>   -10.7102     0.0000     6.0000 </r>
       <r>   -10.5826     0.0000     6.0000 </r>
       <r>   -10.4551     0.0000     6.0000 </r>
       <r>   -10.3276     0.0000     6.0000 </r>
       <r>   -10.2001     0.0000     6.0000 </r>
       <r>   -10.0726     0.0000     6.0000 </r>
       <r>    -9.9451     0.0000     6.0000 </r>
       <r>    -9.8176     0.0000     6.0000 </r>
       <r>    -9.6901     0.0000     6.0000 </r>
       <r>    -9.5625     0.0000     6.0000 </r>
       <r>    -9.4350     0.0000     6.0000 </r>
       <r>    -9.3075     0.0000     6.0000 </r>
       <r>    -9.1800     0.0000     6.0000 </r>
       <r>    -9.0525     0.0000     6.0000 </r>
       <r>    -8.9250     0.0000     6.0000 </r>
       <r>    -8.7975     0.0000     6.0000 </r>
       <r>    -8.6700     0.0000     6.0000 </r>
       <r>    -8.5424     0.0000     6.0000 </r>
       <r>    -8.4149     0.0000     6.0000 </r>
       <r>    -8.2874     0.0000     6.0000 </r>
       <r>    -8.1599     0.0000     6.0000 </r>
       <r>    -8.0324     0.0000     6.0000 </r>
       <r>    -7.9049     0.0000     6.0000 </r>
       <r>    -7.7774     0.0000     6.0000 </r>
       <r>    -7.6498     0.0000     6.0000 </r>
       <r>    -7.5223     0.0000     6.0000 </r>
       <r>    -7.3948     0.0000     6.0000 </r>
       <r>    -7.2673     0.0000     6.0000 </r>
       <r>    -7.1398     0.0000     6.0000 </r>
       <r>    -7.0123     0.0000     6.0000 </r>
       <r>    -6.8848     0.0000     6.0000 </r>
       <r>    -6.7573     0.0000     6.0000 </r>
       <r>    -6.6297     0.0000     6.0000 </r>
       <r>    -6.5022     0.0000     6.0000 </r>
       <r>    -6.3747     0.0000     6.0000 </r>
       <r>    -6.2472     0.0000     6.0000 </r>
       <r>    -6.1197     0.0000     6.0000 </r>
       <r>    -5.9922     0.0000     6.0000 </r>
       <r>    -5.8647     0.0000     6.0000 </r>
       <r>    -5.7372     0.0000     6.0000 </r>
       <r>    -5.6096     0.0000     6.0000 </r>
       <r>    -5.4821     0.0000     6.0000 </r>
       <r>    -5.3546     0.0000     6.0000 </r>
       <r>    -5.2271     0.0000     6.0000 </r>
       <r>    -5.0996     0.0000     6.0000 </r>
       <r>    -4.9721     0.0000     6.0000 </r>
       <r>    -4.8446     0.0000     6.0000 </r>
       <r>    -4.7171     0.0000     6.0000 </r>
       <r>    -4.5895     0.0000     6.0000 </r>
       <r>    -4.4620     0.0056     6.0007 </r>
       <r>    -4.3345     0.1143     6.0155 </r>
       <r>    -4.2070     0.2312     6.0541 </r>
       <r>    -4.0795     0.3571     6.1047 </r>
       <r>    -3.9520     0.2731     6.1595 </r>
       <r>    -3.8245     0.3857     6.2576 </r>
       <r>    -3.6970     0.4684     6.3610 </r>
       <r>    -3.5694     0.5561     6.4888 </r>
       <r>    -3.4419     0.8440     6.6620 </r>
       <r>    -3.3144     0.9131     6.9075 </r>
       <r>    -3.1869     3.0232     7.4733 </r>
       <r>    -3.0594     1.7991     8.0000 </r>
       <r>    -2.9319     0.0000     8.0000 </r>
       <r>    -2.8044     0.0000     8.0000 </r>
       <r>    -2.6769     0.0000     8.0000 </r>
       <r>    -2.5493     0.0000     8.0000 </r>
       <r>    -2.4218     0.0000     8.0000 </r>
       <r>    -2.2943     0.0000     8.0000 </r>
       <r>    -2.1668     0.0000     8.0000 </r>
       <r>    -2.0393     0.0000     8.0000 </r>
       <r>    -1.9118     0.0000     8.0000 </r>
       <r>    -1.7843     0.0000     8.0000 </r>
       <r>    -1.6568     0.0000     8.0000 </r>
       <r>    -1.5292     0.0000     8.0000 </r>
       <r>    -1.4017     0.0000     8.0000 </r>
       <r>    -1.2742     0.0000     8.0000 </r>
       <r>    -1.1467     0.0000     8.0000 </r>
       <r>    -1.0192     0.0000     8.0000 </r>
       <r>    -0.8917     0.0000     8.0000 </r>
       <r>    -0.7642     0.0000     8.0000 </r>
       <r>    -0.6367     0.0000     8.0000 </r>
       <r>    -0.5091     0.0000     8.0000 </r>
       <r>    -0.3816     0.0000     8.0000 </r>
       <r>    -0.2541     0.0000     8.0000 </r>
       <r>    -0.1266     0.0000     8.0000 </r>
       <r>     0.0009     0.0000     8.0000 </r>
       <r>     0.1284     0.0000     8.0000 </r>
       <r>     0.2559     0.0000     8.0000 </r>
       <r>     0.3835     0.0000     8.0000 </r>
       <r>     0.5110     0.2286     8.0291 </r>
       <r>     0.6385     0.8587     8.1605 </r>
       <r>     0.7660     3.0272     8.5754 </r>
       <r>     0.8935     3.3901     9.2443 </r>
       <r>     1.0210     2.1221     9.6124 </r>
       <r>     1.1485     0.4913     9.7668 </r>
       <r>     1.2760     0.4165     9.8665 </r>
       <r>     1.4036     0.2038     9.8940 </r>
       <r>     1.5311     0.0625     9.9324 </r>
       <r>     1.6586     0.1164     9.9611 </r>
       <r>     1.7861     0.5661    10.0403 </r>
       <r>     1.9136     3.6191    10.5789 </r>
       <r>     2.0411     4.4706    11.7052 </r>
       <r>     2.1686     4.6134    12.6110 </r>
       <r>     2.2961     3.1605    13.2778 </r>
       <r>     2.4237     2.1628    13.6859 </r>
       <r>     2.5512     1.8395    14.0816 </r>
       <r>     2.6787     1.4083    14.3871 </r>
       <r>     2.8062     1.1998    14.7757 </r>
       <r>     2.9337     3.1211    15.4977 </r>
       <r>     3.0612     5.1475    16.6008 </r>
       <r>     3.1887     6.9875    18.1682 </r>
       <r>     3.3162     5.5578    19.0291 </r>
       <r>     3.4438     1.8529    19.5344 </r>
       <r>     3.5713     0.5634    19.6558 </r>
       <r>     3.6988     0.4003    19.8098 </r>
       <r>     3.8263     0.6607    20.0014 </r>
       <r>     3.9538     1.4652    20.1914 </r>
       <r>     4.0813     1.1831    20.4467 </r>
       <r>     4.2088     0.5375    20.5938 </r>
       <r>     4.3363     1.8267    20.8620 </r>
       <r>     4.4639     1.0497    21.0578 </r>
       <r>     4.5914     1.6221    21.3275 </r>
       <r>     4.7189     1.4971    21.5701 </r>
       <r>     4.8464     3.7707    22.1604 </r>
       <r>     4.9739     1.9483    22.5944 </r>
       <r>     5.1014     2.2696    22.9958 </r>
       <r>     5.2289     1.7087    23.3722 </r>
       <r>     5.3564     1.0412    23.6312 </r>
       <r>     5.4840     0.7946    23.7672 </r>
       <r>     5.6115     0.3714    23.8480 </r>
       <r>     5.7390     0.1785    23.9254 </r>
       <r>     5.8665     0.0857    23.9727 </r>
       <r>     5.9940     0.2018    23.9984 </r>
       <r>     6.1215     0.0000    24.0009 </r>
       <r>     6.2490     0.0542    24.0078 </r>
       <r>     6.3765     0.0342    24.0126 </r>
       <r>     6.5041     0.0629    24.0217 </r>
       <r>     6.6316     0.1677    24.0532 </r>
       <r>     6.7591     0.0571    24.0665 </r>
       <r>     6.8866     0.6299    24.1522 </r>
       <r>     7.0141     0.8714    24.3487 </r>
       <r>     7.1416     0.5090    24.5210 </r>
       <r>     7.2691     1.3246    24.8617 </r>
       <r>     7.3966     2.5863    25.3029 </r>
       <r>     7.5242     2.2617    25.6766 </r>
       <r>     7.6517     1.6976    26.1837 </r>
       <r>     7.7792     1.5851    26.5080 </r>
       <r>     7.9067     2.0737    26.9362 </r>
       <r>     8.0342     3.8842    27.6441 </r>
       <r>     8.1617     3.5505    28.4336 </r>
       <r>     8.2892     1.7822    28.9482 </r>
       <r>     8.4168     3.8333    29.7833 </r>
       <r>     8.5443     1.7702    30.1265 </r>
       <r>     8.6718     2.0948    30.4738 </r>
       <r>     8.7993     1.5939    30.8104 </r>
       <r>     8.9268     3.1267    31.4155 </r>
       <r>     9.0543     1.2121    31.7067 </r>
       <r>     9.1818     0.8570    31.8653 </r>
       <r>     9.3093     0.6120    31.9706 </r>
       <r>     9.4369     0.0000    31.9927 </r>
       <r>     9.5644     0.0000    31.9927 </r>
       <r>     9.6919     0.0000    32.0000 </r>
       <r>     9.8194     0.0000    32.0000 </r>
       <r>     9.9469     0.0000    32.0000 </r>
       <r>    10.0744     0.0000    32.0000 </r>
       <r>    10.2019     0.0000    32.0000 </r>
       <r>    10.3294     0.0000    32.0000 </r>
       <r>    10.4570     0.0000    32.0000 </r>
       <r>    10.5845     0.0000    32.0000 </r>
       <r>    10.7120     0.0000    32.0000 </r>
       <r>    10.8395     0.0000    32.0000 </r>
       <r>    10.9670     0.0000    32.0000 </r>
       <r>    11.0945     0.0000    32.0000 </r>
       <r>    11.2220     0.0000    32.0000 </r>
       <r>    11.3495     0.0000    32.0000 </r>
      </set>
     </set>
    </array>
   </total>
  </dos>
 </calculation>
 <structure name="finalpos" >
  <crystal>
   <varray name="basis" >
    <v>       0.00000000       3.32017508       3.32017508 </v>
    <v>       3.32017508       0.00000000       3.32017508 </v>
    <v>       3.32017508       3.32017508       0.00000000 </v>
   </varray>
   <i name="volume">     73.20031531 </i>
   <varray name="rec_basis" >
    <v>      -0.15059447       0.15059447       0.15059447 </v>
    <v>       0.15059447      -0.15059447       0.15059447 </v>
    <v>       0.15059447       0.15059447      -0.15059447 </v>
   </varray>
  </crystal>
  <varray name="positions" >
   <v>       0.75000000       0.75000000       0.75000000 </v>
   <v>       0.25000000       0.25000000       0.25000000 </v>
   <v>       0.00000000       0.00000000       0.00000000 </v>
  </varray>
 </structure>
</modeling>
