   2   2   0   0
  0.2906733E+02  0.4348272E-09  0.4348272E-09  0.4348272E-09  0.0000000E+00
  1.000000000000000E-004
  CAR 
 unknown system                          
     14.46174106     -6.89092719  301      4.79076173      1.00000000
     -6.891  0.0000E+00  0.0000E+00
     -6.820  0.0000E+00  0.0000E+00
     -6.749  0.0000E+00  0.0000E+00
     -6.677  0.0000E+00  0.0000E+00
     -6.606  0.0000E+00  0.0000E+00
     -6.535  0.0000E+00  0.0000E+00
     -6.464  0.0000E+00  0.0000E+00
     -6.393  0.0000E+00  0.0000E+00
     -6.322  0.0000E+00  0.0000E+00
     -6.250  0.0000E+00  0.0000E+00
     -6.179  0.0000E+00  0.0000E+00
     -6.108  0.0000E+00  0.0000E+00
     -6.037  0.0000E+00  0.0000E+00
     -5.966  0.0000E+00  0.0000E+00
     -5.894  0.8859E-01  0.7643E-03
     -5.823  0.1781E+00  0.1016E-01
     -5.752  0.2410E+00  0.2479E-01
     -5.681  0.2878E+00  0.4368E-01
     -5.610  0.3418E+00  0.6609E-01
     -5.539  0.3814E+00  0.9176E-01
     -5.467  0.4278E+00  0.1205E+00
     -5.396  0.4682E+00  0.1524E+00
     -5.325  0.5117E+00  0.1873E+00
     -5.254  0.5575E+00  0.2254E+00
     -5.183  0.6022E+00  0.2666E+00
     -5.112  0.6514E+00  0.3112E+00
     -5.040  0.7042E+00  0.3594E+00
     -4.969  0.7628E+00  0.4116E+00
     -4.898  0.8277E+00  0.4681E+00
     -4.827  0.9008E+00  0.5296E+00
     -4.756  0.9952E+00  0.5969E+00
     -4.684  0.1110E+01  0.6717E+00
     -4.613  0.1261E+01  0.7558E+00
     -4.542  0.1577E+01  0.8552E+00
     -4.471  0.1710E+01  0.9799E+00
     -4.400  0.1721E+01  0.1102E+01
     -4.329  0.1722E+01  0.1225E+01
     -4.257  0.1704E+01  0.1346E+01
     -4.186  0.1733E+01  0.1469E+01
     -4.115  0.1761E+01  0.1593E+01
     -4.044  0.1861E+01  0.1722E+01
     -3.973  0.2201E+01  0.1863E+01
     -3.902  0.1018E+00  0.2000E+01
     -3.830  0.0000E+00  0.2000E+01
     -3.759  0.0000E+00  0.2000E+01
     -3.688  0.0000E+00  0.2000E+01
     -3.617  0.0000E+00  0.2000E+01
     -3.546  0.0000E+00  0.2000E+01
     -3.475  0.0000E+00  0.2000E+01
     -3.403  0.0000E+00  0.2000E+01
     -3.332  0.0000E+00  0.2000E+01
     -3.261  0.0000E+00  0.2000E+01
     -3.190  0.0000E+00  0.2000E+01
     -3.119  0.0000E+00  0.2000E+01
     -3.047  0.0000E+00  0.2000E+01
     -2.976  0.0000E+00  0.2000E+01
     -2.905  0.0000E+00  0.2000E+01
     -2.834  0.0000E+00  0.2000E+01
     -2.763  0.0000E+00  0.2000E+01
     -2.692  0.0000E+00  0.2000E+01
     -2.620  0.0000E+00  0.2000E+01
     -2.549  0.0000E+00  0.2000E+01
     -2.478  0.0000E+00  0.2000E+01
     -2.407  0.0000E+00  0.2000E+01
     -2.336  0.0000E+00  0.2000E+01
     -2.265  0.0000E+00  0.2000E+01
     -2.193  0.0000E+00  0.2000E+01
     -2.122  0.0000E+00  0.2000E+01
     -2.051  0.0000E+00  0.2000E+01
     -1.980  0.0000E+00  0.2000E+01
     -1.909  0.0000E+00  0.2000E+01
     -1.837  0.0000E+00  0.2000E+01
     -1.766  0.0000E+00  0.2000E+01
     -1.695  0.0000E+00  0.2000E+01
     -1.624  0.0000E+00  0.2000E+01
     -1.553  0.0000E+00  0.2000E+01
     -1.482  0.0000E+00  0.2000E+01
     -1.410  0.0000E+00  0.2000E+01
     -1.339  0.0000E+00  0.2000E+01
     -1.268  0.0000E+00  0.2000E+01
     -1.197  0.0000E+00  0.2000E+01
     -1.126  0.0000E+00  0.2000E+01
     -1.055  0.0000E+00  0.2000E+01
     -0.983  0.0000E+00  0.2000E+01
     -0.912  0.0000E+00  0.2000E+01
     -0.841  0.0000E+00  0.2000E+01
     -0.770  0.0000E+00  0.2000E+01
     -0.699  0.3106E+00  0.2007E+01
     -0.627  0.6997E+00  0.2039E+01
     -0.556  0.1672E+01  0.2125E+01
     -0.485  0.3075E+01  0.2301E+01
     -0.414  0.3201E+01  0.2591E+01
     -0.343  0.1986E+01  0.2764E+01
     -0.272  0.1469E+01  0.2885E+01
     -0.200  0.1228E+01  0.2981E+01
     -0.129  0.1049E+01  0.3061E+01
     -0.058  0.8964E+00  0.3130E+01
      0.013  0.8109E+00  0.3191E+01
      0.084  0.7378E+00  0.3246E+01
      0.155  0.6632E+00  0.3296E+01
      0.227  0.5968E+00  0.3341E+01
      0.298  0.5593E+00  0.3382E+01
      0.369  0.5227E+00  0.3420E+01
      0.440  0.4849E+00  0.3456E+01
      0.511  0.4487E+00  0.3490E+01
      0.583  0.4120E+00  0.3520E+01
      0.654  0.3916E+00  0.3549E+01
      0.725  0.3706E+00  0.3576E+01
      0.796  0.3500E+00  0.3601E+01
      0.867  0.3290E+00  0.3626E+01
      0.938  0.3051E+00  0.3648E+01
      1.010  0.2842E+00  0.3669E+01
      1.081  0.2722E+00  0.3689E+01
      1.152  0.2600E+00  0.3708E+01
      1.223  0.2475E+00  0.3726E+01
      1.294  0.2334E+00  0.3743E+01
      1.365  0.2195E+00  0.3759E+01
      1.437  0.3075E+00  0.3775E+01
      1.508  0.7925E+00  0.3819E+01
      1.579  0.1244E+01  0.3890E+01
      1.650  0.1642E+01  0.4001E+01
      1.721  0.1521E+01  0.4115E+01
      1.792  0.1347E+01  0.4213E+01
      1.864  0.1315E+01  0.4308E+01
      1.935  0.1236E+01  0.4400E+01
      2.006  0.1182E+01  0.4486E+01
      2.077  0.1189E+01  0.4570E+01
      2.148  0.1248E+01  0.4657E+01
      2.220  0.1322E+01  0.4749E+01
      2.291  0.1349E+01  0.4845E+01
      2.362  0.1447E+01  0.4943E+01
      2.433  0.1486E+01  0.5047E+01
      2.504  0.1646E+01  0.5160E+01
      2.575  0.1931E+01  0.5288E+01
      2.647  0.1955E+01  0.5427E+01
      2.718  0.1897E+01  0.5564E+01
      2.789  0.1864E+01  0.5697E+01
      2.860  0.1846E+01  0.5829E+01
      2.931  0.1813E+01  0.5960E+01
      3.002  0.1769E+01  0.6087E+01
      3.074  0.1762E+01  0.6212E+01
      3.145  0.1742E+01  0.6337E+01
      3.216  0.1704E+01  0.6460E+01
      3.287  0.1680E+01  0.6580E+01
      3.358  0.1659E+01  0.6699E+01
      3.430  0.1622E+01  0.6816E+01
      3.501  0.1618E+01  0.6931E+01
      3.572  0.1605E+01  0.7046E+01
      3.643  0.1597E+01  0.7160E+01
      3.714  0.1577E+01  0.7273E+01
      3.785  0.1553E+01  0.7384E+01
      3.857  0.1320E+01  0.7491E+01
      3.928  0.1071E+01  0.7576E+01
      3.999  0.9257E+00  0.7647E+01
      4.070  0.8060E+00  0.7708E+01
      4.141  0.7119E+00  0.7762E+01
      4.212  0.6267E+00  0.7809E+01
      4.284  0.5569E+00  0.7852E+01
      4.355  0.4842E+00  0.7889E+01
      4.426  0.4105E+00  0.7920E+01
      4.497  0.3676E+00  0.7948E+01
      4.568  0.2841E+00  0.7971E+01
      4.640  0.1917E+00  0.7988E+01
      4.711  0.1133E+00  0.7998E+01
      4.782  0.0000E+00  0.8000E+01
      4.853  0.0000E+00  0.8000E+01
      4.924  0.0000E+00  0.8000E+01
      4.995  0.0000E+00  0.8000E+01
      5.067  0.0000E+00  0.8000E+01
      5.138  0.0000E+00  0.8000E+01
      5.209  0.0000E+00  0.8000E+01
      5.280  0.0000E+00  0.8000E+01
      5.351  0.0000E+00  0.8000E+01
      5.422  0.0000E+00  0.8000E+01
      5.494  0.0000E+00  0.8000E+01
      5.565  0.0000E+00  0.8000E+01
      5.636  0.0000E+00  0.8000E+01
      5.707  0.0000E+00  0.8000E+01
      5.778  0.0000E+00  0.8000E+01
      5.849  0.0000E+00  0.8000E+01
      5.921  0.0000E+00  0.8000E+01
      5.992  0.4172E-01  0.8000E+01
      6.063  0.1700E+00  0.8008E+01
      6.134  0.2684E+00  0.8024E+01
      6.205  0.3695E+00  0.8046E+01
      6.277  0.5056E+00  0.8077E+01
      6.348  0.6553E+00  0.8119E+01
      6.419  0.7442E+00  0.8169E+01
      6.490  0.8419E+00  0.8225E+01
      6.561  0.9461E+00  0.8289E+01
      6.632  0.1059E+01  0.8360E+01
      6.704  0.1186E+01  0.8440E+01
      6.775  0.1344E+01  0.8530E+01
      6.846  0.1558E+01  0.8633E+01
      6.917  0.1834E+01  0.8753E+01
      6.988  0.2153E+01  0.8895E+01
      7.059  0.2379E+01  0.9058E+01
      7.131  0.2148E+01  0.9218E+01
      7.202  0.2185E+01  0.9370E+01
      7.273  0.1714E+01  0.9514E+01
      7.344  0.1594E+01  0.9631E+01
      7.415  0.1478E+01  0.9741E+01
      7.487  0.1412E+01  0.9847E+01
      7.558  0.1101E+01  0.9938E+01
      7.629  0.8985E+00  0.1001E+02
      7.700  0.8932E+00  0.1007E+02
      7.771  0.9715E+00  0.1014E+02
      7.842  0.9685E+00  0.1021E+02
      7.914  0.1048E+01  0.1028E+02
      7.985  0.1220E+01  0.1036E+02
      8.056  0.1361E+01  0.1045E+02
      8.127  0.1215E+01  0.1055E+02
      8.198  0.1237E+01  0.1064E+02
      8.269  0.1748E+01  0.1074E+02
      8.341  0.3597E+01  0.1095E+02
      8.412  0.2358E+01  0.1113E+02
      8.483  0.2254E+01  0.1130E+02
      8.554  0.1871E+01  0.1145E+02
      8.625  0.1761E+01  0.1158E+02
      8.697  0.1721E+01  0.1170E+02
      8.768  0.1485E+01  0.1181E+02
      8.839  0.1414E+01  0.1192E+02
      8.910  0.1349E+01  0.1202E+02
      8.981  0.1344E+01  0.1211E+02
      9.052  0.1331E+01  0.1220E+02
      9.124  0.1441E+01  0.1230E+02
      9.195  0.1684E+01  0.1241E+02
      9.266  0.1804E+01  0.1254E+02
      9.337  0.2230E+01  0.1268E+02
      9.408  0.1847E+01  0.1282E+02
      9.479  0.1535E+01  0.1294E+02
      9.551  0.1630E+01  0.1305E+02
      9.622  0.1705E+01  0.1317E+02
      9.693  0.1663E+01  0.1329E+02
      9.764  0.1605E+01  0.1340E+02
      9.835  0.1481E+01  0.1351E+02
      9.907  0.1371E+01  0.1361E+02
      9.978  0.1310E+01  0.1371E+02
     10.049  0.1291E+01  0.1380E+02
     10.120  0.1328E+01  0.1389E+02
     10.191  0.1323E+01  0.1399E+02
     10.262  0.1253E+01  0.1408E+02
     10.334  0.1307E+01  0.1417E+02
     10.405  0.1222E+01  0.1426E+02
     10.476  0.9386E+00  0.1434E+02
     10.547  0.9909E+00  0.1440E+02
     10.618  0.1085E+01  0.1448E+02
     10.689  0.1115E+01  0.1456E+02
     10.761  0.1167E+01  0.1464E+02
     10.832  0.1273E+01  0.1473E+02
     10.903  0.1272E+01  0.1482E+02
     10.974  0.1285E+01  0.1491E+02
     11.045  0.1264E+01  0.1500E+02
     11.116  0.1141E+01  0.1508E+02
     11.188  0.1049E+01  0.1516E+02
     11.259  0.9725E+00  0.1523E+02
     11.330  0.9464E+00  0.1530E+02
     11.401  0.9452E+00  0.1537E+02
     11.472  0.9866E+00  0.1544E+02
     11.544  0.9543E+00  0.1551E+02
     11.615  0.8578E+00  0.1557E+02
     11.686  0.6934E+00  0.1563E+02
     11.757  0.4992E+00  0.1567E+02
     11.828  0.3880E+00  0.1570E+02
     11.899  0.3711E+00  0.1573E+02
     11.971  0.3526E+00  0.1575E+02
     12.042  0.3338E+00  0.1578E+02
     12.113  0.3133E+00  0.1580E+02
     12.184  0.2911E+00  0.1582E+02
     12.255  0.2669E+00  0.1584E+02
     12.326  0.2492E+00  0.1586E+02
     12.398  0.2402E+00  0.1588E+02
     12.469  0.2324E+00  0.1590E+02
     12.540  0.2068E+00  0.1591E+02
     12.611  0.1779E+00  0.1593E+02
     12.682  0.1548E+00  0.1594E+02
     12.754  0.1371E+00  0.1595E+02
     12.825  0.1225E+00  0.1596E+02
     12.896  0.1103E+00  0.1596E+02
     12.967  0.1020E+00  0.1597E+02
     13.038  0.9343E-01  0.1598E+02
     13.109  0.9439E-01  0.1599E+02
     13.181  0.8337E-01  0.1599E+02
     13.252  0.4199E-01  0.1600E+02
     13.323  0.2073E-01  0.1600E+02
     13.394  0.6901E-02  0.1600E+02
     13.465  0.4907E-03  0.1600E+02
     13.536  0.0000E+00  0.1600E+02
     13.608  0.0000E+00  0.1600E+02
     13.679  0.0000E+00  0.1600E+02
     13.750  0.0000E+00  0.1600E+02
     13.821  0.0000E+00  0.1600E+02
     13.892  0.0000E+00  0.1600E+02
     13.964  0.0000E+00  0.1600E+02
     14.035  0.0000E+00  0.1600E+02
     14.106  0.0000E+00  0.1600E+02
     14.177  0.0000E+00  0.1600E+02
     14.248  0.0000E+00  0.1600E+02
     14.319  0.0000E+00  0.1600E+02
     14.391  0.0000E+00  0.1600E+02
     14.462  0.0000E+00  0.1600E+02
