    2    2    1    1
  0.2906733E+02  0.4348272E-09  0.4348272E-09  0.4348272E-09  0.0000000E+00
  1.000000000000000E-004
  CAR 
 unknown system                          
      8    195      8
 
  0.0000000E+00  0.0000000E+00  0.0000000E+00  0.1714678E-03
    1       -5.920351   1.000000
    2        4.756974   1.000000
    3        4.756974   1.000000
    4        4.756974   1.000000
    5        6.352378   0.000000
    6        7.853612   0.000000
    7        7.853612   0.000000
    8        7.853612   0.000000
 
  0.5555556E-01  0.0000000E+00  0.0000000E+00  0.1371742E-02
    1       -5.891783   1.000000
    2        4.334949   1.000000
    3        4.715202   1.000000
    4        4.715202   1.000000
    5        6.625952   0.000000
    6        7.918117   0.000000
    7        7.918117   0.000000
    8        7.938473   0.000000
 
  0.1111111E+00  0.0000000E+00  0.0000000E+00  0.1371742E-02
    1       -5.806849   1.000000
    2        3.536149   1.000000
    3        4.603879   1.000000
    4        4.603880   1.000000
    5        6.844878   0.000000
    6        8.087659   0.000000
    7        8.087659   0.000000
    8        8.360603   0.000000
 
  0.1666667E+00  0.0000000E+00  0.0000000E+00  0.1371742E-02
    1       -5.668470   1.000000
    2        2.679099   1.000000
    3        4.453527   1.000000
    4        4.453527   1.000000
    5        6.775988   0.000000
    6        8.300537   0.000000
    7        8.300537   0.000000
    8        9.100235   0.000000
 
  0.2222222E+00  0.0000000E+00  0.0000000E+00  0.1371742E-02
    1       -5.482278   1.000000
    2        1.846124   1.000000
    3        4.293362   1.000000
    4        4.293362   1.000000
    5        6.611375   0.000000
    6        8.479659   0.000000
    7        8.479659   0.000000
    8        9.939047   0.000000
 
  0.2777778E+00  0.0000000E+00  0.0000000E+00  0.1371742E-02
    1       -5.258298   1.000000
    2        1.074610   1.000000
    3        4.144133   1.000000
    4        4.144133   1.000000
    5        6.440735   0.000000
    6        8.569386   0.000000
    7        8.569386   0.000000
    8       10.768697   0.000000
 
  0.3333333E+00  0.0000000E+00  0.0000000E+00  0.1371742E-02
    1       -5.014079   1.000000
    2        0.395389   1.000000
    3        4.018853   1.000000
    4        4.018853   1.000000
    5        6.294972   0.000000
    6        8.572386   0.000000
    7        8.572387   0.000000
    8       11.359316   0.000000
 
  0.3888889E+00  0.0000000E+00  0.0000000E+00  0.1371742E-02
    1       -4.779449   1.000000
    2       -0.154174   1.000000
    3        3.925217   1.000000
    4        3.925217   1.000000
    5        6.186208   0.000000
    6        8.532631   0.000000
    7        8.532631   0.000000
    8       11.416558   0.000000
 
  0.4444444E+00  0.0000000E+00  0.0000000E+00  0.1371742E-02
    1       -4.600833   1.000000
    2       -0.523248   1.000000
    3        3.867587   1.000000
    4        3.867588   1.000000
    5        6.119587   0.000000
    6        8.492558   0.000000
    7        8.492558   0.000000
    8       11.348866   0.000000
 
  0.5000000E+00  0.0000000E+00  0.0000000E+00  0.6858711E-03
    1       -4.532394   1.000000
    2       -0.655443   1.000000
    3        3.848154   1.000000
    4        3.848154   1.000000
    5        6.097199   0.000000
    6        8.476673   0.000000
    7        8.476673   0.000000
    8       11.319344   0.000000
 
  0.5555556E-01  0.5555556E-01  0.0000000E+00  0.1028807E-02
    1       -5.882226   1.000000
    2        4.338404   1.000000
    3        4.624964   1.000000
    4        4.624964   1.000000
    5        6.757878   0.000000
    6        7.738206   0.000000
    7        8.039500   0.000000
    8        8.039501   0.000000
 
  0.1111111E+00  0.5555556E-01  0.0000000E+00  0.4115226E-02
    1       -5.815994   1.000000
    2        3.723612   1.000000
    3        4.478465   1.000000
    4        4.554011   1.000000
    5        7.037816   0.000000
    6        7.728634   0.000000
    7        8.256647   0.000000
    8        8.356681   0.000000
 
  0.1666667E+00  0.5555556E-01  0.0000000E+00  0.4115226E-02
    1       -5.695266   1.000000
    2        2.917924   1.000000
    3        4.308943   1.000000
    4        4.443048   1.000000
    5        7.042927   0.000000
    6        7.898436   0.000000
    7        8.507987   0.000000
    8        8.952542   0.000000
 
  0.2222222E+00  0.5555556E-01  0.0000000E+00  0.4115226E-02
    1       -5.524620   1.000000
    2        2.096679   1.000000
    3        4.143252   1.000000
    4        4.284281   1.000000
    5        6.900920   0.000000
    6        8.127108   0.000000
    7        8.718512   0.000000
    8        9.628976   0.000000
 
  0.2777778E+00  0.5555556E-01  0.0000000E+00  0.4115226E-02
    1       -5.312400   1.000000
    2        1.316292   1.000000
    3        3.999167   1.000000
    4        4.109786   1.000000
    5        6.733793   0.000000
    6        8.301787   0.000000
    7        8.826233   0.000000
    8       10.237486   0.000000
 
  0.3333333E+00  0.5555556E-01  0.0000000E+00  0.4115226E-02
    1       -5.073200   1.000000
    2        0.612416   1.000000
    3        3.887378   1.000000
    4        3.943323   1.000000
    5        6.582515   0.000000
    6        8.377932   0.000000
    7        8.823627   0.000000
    8       10.784494   0.000000
 
  0.3888889E+00  0.5555556E-01  0.0000000E+00  0.4115226E-02
    1       -4.832073   1.000000
    2        0.021298   1.000000
    3        3.799690   1.000000
    4        3.813818   1.000000
    5        6.463052   0.000000
    6        8.387527   0.000000
    7        8.754403   0.000000
    8       11.256257   0.000000
 
  0.4444444E+00  0.5555556E-01  0.0000000E+00  0.4115226E-02
    1       -4.629750   1.000000
    2       -0.410087   1.000000
    3        3.687923   1.000000
    4        3.781257   1.000000
    5        6.382540   0.000000
    6        8.383295   0.000000
    7        8.668238   0.000000
    8       11.446610   0.000000
 
  0.5000000E+00  0.5555556E-01  0.0000000E+00  0.4115226E-02
    1       -4.520033   1.000000
    2       -0.624461   1.000000
    3        3.613647   1.000000
    4        3.790300   1.000000
    5        6.344228   0.000000
    6        8.399311   0.000000
    7        8.597134   0.000000
    8       11.468036   0.000000
 
 -0.4444444E+00  0.5555556E-01  0.0000000E+00  0.4115226E-02
    1       -4.543194   1.000000
    2       -0.580123   1.000000
    3        3.580420   1.000000
    4        3.839827   1.000000
    5        6.349380   0.000000
    6        8.448968   0.000000
    7        8.554926   0.000000
    8       11.482413   0.000000
 
 -0.3888889E+00  0.5555556E-01  0.0000000E+00  0.4115226E-02
    1       -4.689973   1.000000
    2       -0.286714   1.000000
    3        3.590335   1.000000
    4        3.927127   1.000000
    5        6.397914   0.000000
    6        8.529229   0.000000
    7        8.539998   0.000000
    8       11.488416   0.000000
 
 -0.3333333E+00  0.5555556E-01  0.0000000E+00  0.4115226E-02
    1       -4.910859   1.000000
    2        0.204194   1.000000
    3        3.644172   1.000000
    4        4.047656   1.000000
    5        6.488283   0.000000
    6        8.534594   0.000000
    7        8.619702   0.000000
    8       11.312498   0.000000
 
 -0.2777778E+00  0.5555556E-01  0.0000000E+00  0.4115226E-02
    1       -5.155003   1.000000
    2        0.837144   1.000000
    3        3.741252   1.000000
    4        4.194336   1.000000
    5        6.616409   0.000000
    6        8.503352   0.000000
    7        8.675826   0.000000
    8       10.781170   0.000000
 
 -0.2222222E+00  0.5555556E-01  0.0000000E+00  0.4115226E-02
    1       -5.387330   1.000000
    2        1.568844   1.000000
    3        3.879032   1.000000
    4        4.356146   1.000000
    5        6.772632   0.000000
    6        8.405848   0.000000
    7        8.627359   0.000000
    8       10.123749   0.000000
 
 -0.1666667E+00  0.5555556E-01  0.0000000E+00  0.4115226E-02
    1       -5.586859   1.000000
    2        2.362776   1.000000
    3        4.052660   1.000000
    4        4.515994   1.000000
    5        6.932588   0.000000
    6        8.237051   0.000000
    7        8.422163   0.000000
    8        9.457522   0.000000
 
 -0.1111111E+00  0.5555556E-01  0.0000000E+00  0.4115226E-02
    1       -5.741513   1.000000
    2        3.173407   1.000000
    3        4.255768   1.000000
    4        4.648744   1.000000
    5        7.025235   0.000000
    6        8.051037   0.000000
    7        8.117853   0.000000
    8        8.822565   0.000000
 
 -0.5555556E-01  0.5555556E-01  0.0000000E+00  0.2057613E-02
    1       -5.844364   1.000000
    2        3.903038   1.000000
    3        4.489332   1.000000
    4        4.723280   1.000000
    5        6.887727   0.000000
    6        7.922758   0.000000
    7        7.925789   0.000000
    8        8.291323   0.000000
 
  0.1111111E+00  0.1111111E+00  0.0000000E+00  0.1028807E-02
    1       -5.768656   1.000000
    2        3.570977   1.000000
    3        4.305437   1.000000
    4        4.305437   1.000000
    5        7.237735   0.000000
    6        7.674590   0.000000
    7        8.519263   0.000000
    8        8.519263   0.000000
 
  0.1666667E+00  0.1111111E+00  0.0000000E+00  0.4115226E-02
    1       -5.666328   1.000000
    2        2.992817   1.000000
    3        4.118991   1.000000
    4        4.164633   1.000000
    5        7.213194   0.000000
    6        7.811831   0.000000
    7        8.816399   0.000000
    8        8.946329   0.000000
 
  0.2222222E+00  0.1111111E+00  0.0000000E+00  0.4115226E-02
    1       -5.512767   1.000000
    2        2.263802   1.000000
    3        3.944536   1.000000
    4        4.005938   1.000000
    5        7.210296   0.000000
    6        7.901703   0.000000
    7        9.075800   0.000000
    8        9.365215   0.000000
 
  0.2777778E+00  0.1111111E+00  0.0000000E+00  0.4115226E-02
    1       -5.314912   1.000000
    2        1.521985   1.000000
    3        3.798475   1.000000
    4        3.807581   1.000000
    5        7.143171   0.000000
    6        8.077953   0.000000
    7        9.227183   0.000000
    8        9.587930   0.000000
 
  0.3333333E+00  0.1111111E+00  0.0000000E+00  0.4115226E-02
    1       -5.084966   1.000000
    2        0.825697   1.000000
    3        3.599726   1.000000
    4        3.690601   1.000000
    5        7.030467   0.000000
    6        8.237591   0.000000
    7        9.245658   0.000000
    8        9.865261   0.000000
 
  0.3888889E+00  0.1111111E+00  0.0000000E+00  0.4115226E-02
    1       -4.843901   1.000000
    2        0.217621   1.000000
    3        3.406839   1.000000
    4        3.626303   1.000000
    5        6.921118   0.000000
    6        8.299021   0.000000
    7        9.168866   0.000000
    8       10.346540   0.000000
 
  0.4444444E+00  0.1111111E+00  0.0000000E+00  0.4115226E-02
    1       -4.626599   1.000000
    2       -0.255785   1.000000
    3        3.244009   1.000000
    4        3.607937   1.000000
    5        6.839373   0.000000
    6        8.310482   0.000000
    7        9.053226   0.000000
    8       10.961451   0.000000
 
  0.5000000E+00  0.1111111E+00  0.0000000E+00  0.4115226E-02
    1       -4.483052   1.000000
    2       -0.538131   1.000000
    3        3.120548   1.000000
    4        3.635571   1.000000
    5        6.795390   0.000000
    6        8.328988   0.000000
    7        8.938975   0.000000
    8       11.526241   0.000000
 
 -0.4444444E+00  0.1111111E+00  0.0000000E+00  0.4115226E-02
    1       -4.461300   1.000000
    2       -0.578586   1.000000
    3        3.042646   1.000000
    4        3.707287   1.000000
    5        6.792759   0.000000
    6        8.380865   0.000000
    7        8.846030   0.000000
    8       11.782374   0.000000
 
 -0.3888889E+00  0.1111111E+00  0.0000000E+00  0.4115226E-02
    1       -4.569888   1.000000
    2       -0.368449   1.000000
    3        3.014842   1.000000
    4        3.819115   1.000000
    5        6.831549   0.000000
    6        8.471356   0.000000
    7        8.777614   0.000000
    8       11.691942   0.000000
 
 -0.3333333E+00  0.1111111E+00  0.0000000E+00  0.4115226E-02
    1       -4.769438   1.000000
    2        0.050031   1.000000
    3        3.040938   1.000000
    4        3.964642   1.000000
    5        6.909312   0.000000
    6        8.587761   0.000000
    7        8.720657   0.000000
    8       11.223298   0.000000
 
 -0.2777778E+00  0.1111111E+00  0.0000000E+00  0.4115226E-02
    1       -5.007353   1.000000
    2        0.617232   1.000000
    3        3.124954   1.000000
    4        4.134072   1.000000
    5        7.020373   0.000000
    6        8.644574   0.000000
    7        8.688045   0.000000
    8       10.596340   0.000000
 
 -0.2222222E+00  0.1111111E+00  0.0000000E+00  0.4115226E-02
    1       -5.243615   1.000000
    2        1.278705   1.000000
    3        3.272986   1.000000
    4        4.312600   1.000000
    5        7.151670   0.000000
    6        8.513430   0.000000
    7        8.672793   0.000000
    8       10.058348   0.000000
 
 -0.1666667E+00  0.1111111E+00  0.0000000E+00  0.4115226E-02
    1       -5.453400   1.000000
    2        1.979407   1.000000
    3        3.497754   1.000000
    4        4.478284   1.000000
    5        7.267123   0.000000
    6        8.327599   0.000000
    7        8.443749   0.000000
    8        9.698942   0.000000
 
 -0.1111111E+00  0.1111111E+00  0.0000000E+00  0.2057613E-02
    1       -5.622137   1.000000
    2        2.642829   1.000000
    3        3.824762   1.000000
    4        4.601083   1.000000
    5        7.257881   0.000000
    6        8.147205   0.000000
    7        8.173144   0.000000
    8        9.334985   0.000000
 
  0.1666667E+00  0.1666667E+00  0.0000000E+00  0.1028807E-02
    1       -5.582585   1.000000
    2        2.754548   1.000000
    3        3.918934   1.000000
    4        3.918934   1.000000
    5        6.970605   0.000000
    6        8.103609   0.000000
    7        9.168289   0.000000
    8        9.168289   0.000000
 
  0.2222222E+00  0.1666667E+00  0.0000000E+00  0.4115226E-02
    1       -5.447040   1.000000
    2        2.237113   1.000000
    3        3.730620   1.000000
    4        3.734288   1.000000
    5        6.902955   0.000000
    6        8.121387   0.000000
    7        9.443217   0.000000
    8        9.494284   0.000000
 
  0.2777778E+00  0.1666667E+00  0.0000000E+00  0.4115226E-02
    1       -5.265501   1.000000
    2        1.610343   1.000000
    3        3.506901   1.000000
    4        3.581343   1.000000
    5        6.975015   0.000000
    6        8.137701   0.000000
    7        9.429080   0.000000
    8        9.716411   0.000000
 
  0.3333333E+00  0.1666667E+00  0.0000000E+00  0.4115226E-02
    1       -5.048314   1.000000
    2        0.974750   1.000000
    3        3.253407   1.000000
    4        3.469924   1.000000
    5        7.024758   0.000000
    6        8.327870   0.000000
    7        9.355462   0.000000
    8        9.786345   0.000000
 
  0.3888889E+00  0.1666667E+00  0.0000000E+00  0.4115226E-02
    1       -4.813148   1.000000
    2        0.389465   1.000000
    3        3.004388   1.000000
    4        3.405505   1.000000
    5        7.004247   0.000000
    6        8.579856   0.000000
    7        9.474075   0.000000
    8        9.727205   0.000000
 
  0.4444444E+00  0.1666667E+00  0.0000000E+00  0.4115226E-02
    1       -4.589580   1.000000
    2       -0.094041   1.000000
    3        2.784287   1.000000
    4        3.390618   1.000000
    5        6.969706   0.000000
    6        8.658146   0.000000
    7        9.601128   0.000000
    8        9.967773   0.000000
 
  0.5000000E+00  0.1666667E+00  0.0000000E+00  0.4115226E-02
    1       -4.422097   1.000000
    2       -0.419220   1.000000
    3        2.607567   1.000000
    4        3.425413   1.000000
    5        6.960958   0.000000
    6        8.650319   0.000000
    7        9.458540   0.000000
    8       10.689881   0.000000
 
 -0.4444444E+00  0.1666667E+00  0.0000000E+00  0.4115226E-02
    1       -4.360582   1.000000
    2       -0.530361   1.000000
    3        2.483539   1.000000
    4        3.507945   1.000000
    5        6.992308   0.000000
    6        8.653129   0.000000
    7        9.326156   0.000000
    8       11.475816   0.000000
 
 -0.3888889E+00  0.1666667E+00  0.0000000E+00  0.4115226E-02
    1       -4.428058   1.000000
    2       -0.403592   1.000000
    3        2.419689   1.000000
    4        3.633932   1.000000
    5        7.064987   0.000000
    6        8.693878   0.000000
    7        9.210794   0.000000
    8       11.812796   0.000000
 
 -0.3333333E+00  0.1666667E+00  0.0000000E+00  0.4115226E-02
    1       -4.599131   1.000000
    2       -0.069101   1.000000
    3        2.424164   1.000000
    4        3.796167   1.000000
    5        7.172529   0.000000
    6        8.774406   0.000000
    7        9.100668   0.000000
    8       11.142640   0.000000
 
 -0.2777778E+00  0.1666667E+00  0.0000000E+00  0.4115226E-02
    1       -4.823690   1.000000
    2        0.409856   1.000000
    3        2.509099   1.000000
    4        3.983279   1.000000
    5        7.300854   0.000000
    6        8.868316   0.000000
    7        8.964714   0.000000
    8       10.419595   0.000000
 
 -0.2222222E+00  0.1666667E+00  0.0000000E+00  0.4115226E-02
    1       -5.058171   1.000000
    2        0.961623   1.000000
    3        2.696091   1.000000
    4        4.177883   1.000000
    5        7.420292   0.000000
    6        8.769949   0.000000
    7        8.865541   0.000000
    8        9.886937   0.000000
 
 -0.1666667E+00  0.1666667E+00  0.0000000E+00  0.2057613E-02
    1       -5.273800   1.000000
    2        1.507802   1.000000
    3        3.019579   1.000000
    4        4.354262   1.000000
    5        7.454425   0.000000
    6        8.532106   0.000000
    7        8.628680   0.000000
    8        9.732554   0.000000
 
  0.2222222E+00  0.2222222E+00  0.0000000E+00  0.1028807E-02
    1       -5.329773   1.000000
    2        1.950101   1.000000
    3        3.539300   1.000000
    4        3.539300   1.000000
    5        6.630258   0.000000
    6        8.033803   0.000000
    7        9.907517   0.000000
    8        9.907518   0.000000
 
  0.2777778E+00  0.2222222E+00  0.0000000E+00  0.4115226E-02
    1       -5.165935   1.000000
    2        1.491210   1.000000
    3        3.328778   1.000000
    4        3.376722   1.000000
    5        6.586862   0.000000
    6        7.879580   0.000000
    7       10.044569   0.000000
    8       10.232579   0.000000
 
  0.3333333E+00  0.2222222E+00  0.0000000E+00  0.4115226E-02
    1       -4.964418   1.000000
    2        0.971379   1.000000
    3        3.047864   1.000000
    4        3.256999   1.000000
    5        6.689729   0.000000
    6        7.886574   0.000000
    7        9.927448   0.000000
    8       10.392984   0.000000
 
  0.3888889E+00  0.2222222E+00  0.0000000E+00  0.4115226E-02
    1       -4.740392   1.000000
    2        0.460641   1.000000
    3        2.737632   1.000000
    4        3.186111   1.000000
    5        6.763147   0.000000
    6        8.188923   0.000000
    7        9.776417   0.000000
    8       10.383376   0.000000
 
  0.4444444E+00  0.2222222E+00  0.0000000E+00  0.4115226E-02
    1       -4.519090   1.000000
    2        0.013388   1.000000
    3        2.445583   1.000000
    4        3.166971   1.000000
    5        6.779015   0.000000
    6        8.741133   0.000000
    7        9.662652   0.000000
    8       10.267964   0.000000
 
  0.5000000E+00  0.2222222E+00  0.0000000E+00  0.4115226E-02
    1       -4.339156   1.000000
    2       -0.314669   1.000000
    3        2.200475   1.000000
    4        3.200099   1.000000
    5        6.800107   0.000000
    6        9.263272   0.000000
    7        9.780288   0.000000
    8       10.111320   0.000000
 
 -0.4444444E+00  0.2222222E+00  0.0000000E+00  0.4115226E-02
    1       -4.247831   1.000000
    2       -0.467327   1.000000
    3        2.018950   1.000000
    4        3.283857   1.000000
    5        6.859895   0.000000
    6        9.334548   0.000000
    7        9.949280   0.000000
    8       10.492837   0.000000
 
 -0.3888889E+00  0.2222222E+00  0.0000000E+00  0.4115226E-02
    1       -4.276491   1.000000
    2       -0.412098   1.000000
    3        1.913774   1.000000
    4        3.414200   1.000000
    5        6.966333   0.000000
    6        9.329652   0.000000
    7        9.791105   0.000000
    8       11.367850   0.000000
 
 -0.3333333E+00  0.2222222E+00  0.0000000E+00  0.4115226E-02
    1       -4.414042   1.000000
    2       -0.168895   1.000000
    3        1.900488   1.000000
    4        3.583959   1.000000
    5        7.113490   0.000000
    6        9.354014   0.000000
    7        9.620785   0.000000
    8       11.086750   0.000000
 
 -0.2777778E+00  0.2222222E+00  0.0000000E+00  0.4115226E-02
    1       -4.617621   1.000000
    2        0.195530   1.000000
    3        2.004040   1.000000
    4        3.781525   1.000000
    5        7.281395   0.000000
    6        9.398256   0.000000
    7        9.401208   0.000000
    8       10.295527   0.000000
 
 -0.2222222E+00  0.2222222E+00  0.0000000E+00  0.2057613E-02
    1       -4.842876   1.000000
    2        0.595522   1.000000
    3        2.261115   1.000000
    4        3.988624   1.000000
    5        7.421899   0.000000
    6        9.097482   0.000000
    7        9.279588   0.000000
    8        9.818572   0.000000
 
  0.2777778E+00  0.2777778E+00  0.0000000E+00  0.1028807E-02
    1       -5.020485   1.000000
    2        1.181184   1.000000
    3        3.203344   1.000000
    4        3.203344   1.000000
    5        6.338490   0.000000
    6        7.571359   0.000000
    7       10.695284   0.000000
    8       10.695286   0.000000
 
  0.3333333E+00  0.2777778E+00  0.0000000E+00  0.4115226E-02
    1       -4.837028   1.000000
    2        0.779885   1.000000
    3        2.989949   1.000000
    4        3.072685   1.000000
    5        6.330178   0.000000
    6        7.392900   0.000000
    7       10.817183   0.000000
    8       11.001160   0.000000
 
  0.3888889E+00  0.2777778E+00  0.0000000E+00  0.4115226E-02
    1       -4.629045   1.000000
    2        0.365945   1.000000
    3        2.671596   1.000000
    4        2.991472   1.000000
    5        6.449184   0.000000
    6        7.465693   0.000000
    7       10.698754   0.000000
    8       11.090978   0.000000
 
  0.4444444E+00  0.2777778E+00  0.0000000E+00  0.4115226E-02
    1       -4.418526   1.000000
    2       -0.007796   1.000000
    3        2.318356   1.000000
    4        2.963175   1.000000
    5        6.519984   0.000000
    6        7.883508   0.000000
    7       10.546345   0.000000
    8       11.015567   0.000000
 
  0.5000000E+00  0.2777778E+00  0.0000000E+00  0.4115226E-02
    1       -4.238943   1.000000
    2       -0.293781   1.000000
    3        1.993983   1.000000
    4        2.988806   1.000000
    5        6.561030   0.000000
    6        8.554479   0.000000
    7       10.409458   0.000000
    8       10.860083   0.000000
 
 -0.4444444E+00  0.2777778E+00  0.0000000E+00  0.4115226E-02
    1       -4.132303   1.000000
    2       -0.444956   1.000000
    3        1.738085   1.000000
    4        3.067180   1.000000
    5        6.631372   0.000000
    6        9.363297   0.000000
    7       10.314466   0.000000
    8       10.674841   0.000000
 
 -0.3888889E+00  0.2777778E+00  0.0000000E+00  0.4115226E-02
    1       -4.131236   1.000000
    2       -0.432789   1.000000
    3        1.578630   1.000000
    4        3.194722   1.000000
    5        6.750162   0.000000
    6       10.074263   0.000000
    7       10.448904   0.000000
    8       10.469239   0.000000
 
 -0.3333333E+00  0.2777778E+00  0.0000000E+00  0.4115226E-02
    1       -4.234981   1.000000
    2       -0.276004   1.000000
    3        1.545412   1.000000
    4        3.364782   1.000000
    5        6.915575   0.000000
    6       10.142782   0.000000
    7       10.211665   0.000000
    8       11.037037   0.000000
 
 -0.2777778E+00  0.2777778E+00  0.0000000E+00  0.2057613E-02
    1       -4.410637   1.000000
    2       -0.042024   1.000000
    3        1.677112   1.000000
    4        3.566294   1.000000
    5        7.109428   0.000000
    6        9.848502   0.000000
    7       10.066952   0.000000
    8       10.319203   0.000000
 
  0.3333333E+00  0.3333333E+00  0.0000000E+00  0.1028807E-02
    1       -4.673478   1.000000
    2        0.471454   1.000000
    3        2.929867   1.000000
    4        2.929867   1.000000
    5        6.122431   0.000000
    6        7.063084   0.000000
    7       11.507971   0.000000
    8       11.507973   0.000000
 
  0.3888889E+00  0.3333333E+00  0.0000000E+00  0.4115226E-02
    1       -4.486269   1.000000
    2        0.135593   1.000000
    3        2.728282   1.000000
    4        2.836204   1.000000
    5        6.152774   0.000000
    6        6.931816   0.000000
    7       11.644068   0.000000
    8       11.782205   0.000000
 
  0.4444444E+00  0.3333333E+00  0.0000000E+00  0.4115226E-02
    1       -4.295461   1.000000
    2       -0.167019   1.000000
    3        2.396662   1.000000
    4        2.795845   1.000000
    5        6.274203   0.000000
    6        7.113590   0.000000
    7       11.536861   0.000000
    8       11.801737   0.000000
 
  0.5000000E+00  0.3333333E+00  0.0000000E+00  0.4115226E-02
    1       -4.130583   1.000000
    2       -0.392677   1.000000
    3        2.027646   1.000000
    4        2.810362   1.000000
    5        6.341632   0.000000
    6        7.653294   0.000000
    7       11.389814   0.000000
    8       11.669655   0.000000
 
 -0.4444444E+00  0.3333333E+00  0.0000000E+00  0.4115226E-02
    1       -4.027227   1.000000
    2       -0.507396   1.000000
    3        1.701240   1.000000
    4        2.879103   1.000000
    5        6.415999   0.000000
    6        8.410704   0.000000
    7       11.252301   0.000000
    8       11.462707   0.000000
 
 -0.3888889E+00  0.3333333E+00  0.0000000E+00  0.4115226E-02
    1       -4.013192   1.000000
    2       -0.499491   1.000000
    3        1.476183   1.000000
    4        2.999069   1.000000
    5        6.536866   0.000000
    6        9.293734   0.000000
    7       11.136373   0.000000
    8       11.183354   0.000000
 
 -0.3333333E+00  0.3333333E+00  0.0000000E+00  0.2057613E-02
    1       -4.090398   1.000000
    2       -0.400463   1.000000
    3        1.407336   1.000000
    4        3.164333   1.000000
    5        6.708261   0.000000
    6       10.237083   0.000000
    7       10.769741   0.000000
    8       10.959863   0.000000
 
  0.3888889E+00  0.3888889E+00  0.0000000E+00  0.1028807E-02
    1       -4.324488   1.000000
    2       -0.139955   1.000000
    3        2.729088   1.000000
    4        2.729088   1.000000
    5        5.995265   0.000000
    6        6.633694   0.000000
    7       12.323829   0.000000
    8       12.323831   0.000000
 
  0.4444444E+00  0.3888889E+00  0.0000000E+00  0.4115226E-02
    1       -4.163170   1.000000
    2       -0.386830   1.000000
    3        2.550890   1.000000
    4        2.675070   1.000000
    5        6.062391   0.000000
    6        6.575034   0.000000
    7       12.470008   0.000000
    8       12.550428   0.000000
 
  0.5000000E+00  0.3888889E+00  0.0000000E+00  0.4115226E-02
    1       -4.028978   1.000000
    2       -0.556644   1.000000
    3        2.230272   1.000000
    4        2.676341   1.000000
    5        6.170214   0.000000
    6        6.889175   0.000000
    7       12.368542   0.000000
    8       12.488478   0.000000
 
 -0.4444444E+00  0.3888889E+00  0.0000000E+00  0.4115226E-02
    1       -3.950702   1.000000
    2       -0.621821   1.000000
    3        1.880104   1.000000
    4        2.732810   1.000000
    5        6.248129   0.000000
    6        7.535565   0.000000
    7       12.200856   0.000000
    8       12.249242   0.000000
 
 -0.3888889E+00  0.3888889E+00  0.0000000E+00  0.2057613E-02
    1       -3.946435   1.000000
    2       -0.586420   1.000000
    3        1.600047   1.000000
    4        2.842098   1.000000
    5        6.365800   0.000000
    6        8.361027   0.000000
    7       11.820179   0.000000
    8       11.902643   0.000000
 
  0.4444444E+00  0.4444444E+00  0.0000000E+00  0.1028807E-02
    1       -4.041398   1.000000
    2       -0.582091   1.000000
    3        2.606682   1.000000
    4        2.606682   1.000000
    5        5.960652   0.000000
    6        6.324195   0.000000
    7       13.083462   0.000000
    8       13.083463   0.000000
 
  0.5000000E+00  0.4444444E+00  0.0000000E+00  0.4115226E-02
    1       -3.954388   1.000000
    2       -0.696468   1.000000
    3        2.461414   1.000000
    4        2.593548   1.000000
    5        6.047702   0.000000
    6        6.361669   0.000000
    7       13.175656   0.000000
    8       13.191071   0.000000
 
 -0.4444444E+00  0.4444444E+00  0.0000000E+00  0.2057613E-02
    1       -3.922432   1.000000
    2       -0.704918   1.000000
    3        2.174666   1.000000
    4        2.636170   1.000000
    5        6.136086   0.000000
    6        6.812373   0.000000
    7       12.888171   0.000000
    8       12.907650   0.000000
 
  0.5000000E+00  0.5000000E+00  0.0000000E+00  0.5144033E-03
    1       -3.926637   1.000000
    2       -0.750167   1.000000
    3        2.565583   1.000000
    4        2.565583   1.000000
    5        5.980148   0.000000
    6        6.188669   0.000000
    7       13.491165   0.000000
    8       13.491165   0.000000
 