 running on   48 total cores
 distrk:  each k-point on   12 cores,    4 groups
 distr:  one band on   12 cores,    1 groups
 using from now: INCAR     
 vasp.5.4.4.18Apr17-6-g9f103f2a35 (build Nov 04 2020 14:40:39) complex          
  
 POSCAR found type information on POSCAR  Al Sb
 POSCAR found :  2 types and       2 ions
 scaLAPACK will be used

 ----------------------------------------------------------------------------- 
|                                                                             |
|           W    W    AA    RRRRR   N    N  II  N    N   GGGG   !!!           |
|           W    W   A  A   R    R  NN   N  II  NN   N  G    G  !!!           |
|           W    W  A    A  R    R  N N  N  II  N N  N  G       !!!           |
|           W WW W  AAAAAA  RRRRR   N  N N  II  N  N N  G  GGG   !            |
|           WW  WW  A    A  R   R   N   NN  II  N   NN  G    G                |
|           W    W  A    A  R    R  N    N  II  N    N   GGGG   !!!           |
|                                                                             |
|      You have enabled k-point parallelism (KPAR>1).                         |
|      This developmental code was originally  written by Paul Kent at ORNL,  |
|      and carefully double checked in Vienna.                                |
|      GW as well as linear response parallelism added by Martijn Marsman     |
|      and Georg Kresse.                                                      |
|      Carefully verify results versus KPAR=1.                                |
|      Report problems to Paul Kent and Vienna.                               |
|                                                                             |
 ----------------------------------------------------------------------------- 

 LDA part: xc-table for Pade appr. of Perdew
 POSCAR found type information on POSCAR  Al Sb
 POSCAR found :  2 types and       2 ions
 generate k-points for:   18   18   18
 POSCAR, INCAR and KPOINTS ok, starting setup
 FFT: planning ...
 WAVECAR not read
 entering main loop
       N       E                     dE             d eps       ncg     rms          rms(c)
DAV:   1     0.131201558087E+02    0.13120E+02   -0.28353E+03  3120   0.735E+02
DAV:   2    -0.780530374208E+01   -0.20925E+02   -0.20651E+02  4272   0.841E+01
DAV:   3    -0.826360427819E+01   -0.45830E+00   -0.45830E+00  4248   0.140E+01
DAV:   4    -0.826604670526E+01   -0.24424E-02   -0.24424E-02  4648   0.126E+00
DAV:   5    -0.826605604344E+01   -0.93382E-05   -0.93382E-05  4296   0.674E-02    0.211E+00
RMM:   6    -0.820180654558E+01    0.64249E-01   -0.52797E-02  3122   0.132E+00    0.127E+00
RMM:   7    -0.818133533301E+01    0.20471E-01   -0.69303E-02  3188   0.161E+00    0.207E-01
RMM:   8    -0.818203412055E+01   -0.69879E-03   -0.34739E-03  3260   0.425E-01    0.515E-02
RMM:   9    -0.818239279091E+01   -0.35867E-03   -0.60307E-04  3308   0.171E-01    0.155E-02
RMM:  10    -0.818239491558E+01   -0.21247E-05   -0.50832E-05  3675   0.520E-02    0.477E-03
RMM:  11    -0.818239768204E+01   -0.27665E-05   -0.10105E-05  3518   0.243E-02    0.209E-03
RMM:  12    -0.818239813306E+01   -0.45102E-06   -0.52413E-07  2610   0.656E-03
   1 F= -.81823981E+01 E0= -.81823981E+01  d E =0.000000E+00
