   2   2   0   0
  0.2312162E+02  0.4028912E-09  0.4028912E-09  0.4028912E-09  0.1000000E-16
   1.0000000000000000E-004
  CAR 
 unknown system                          
     67.36747846    -26.05449109  301     -0.48022692      1.00000000
    -26.054  0.0000E+00  0.0000E+00
    -25.743  0.0000E+00  0.0000E+00
    -25.432  0.0000E+00  0.0000E+00
    -25.120  0.0000E+00  0.0000E+00
    -24.809  0.0000E+00  0.0000E+00
    -24.497  0.0000E+00  0.0000E+00
    -24.186  0.0000E+00  0.0000E+00
    -23.875  0.0000E+00  0.0000E+00
    -23.563  0.0000E+00  0.0000E+00
    -23.252  0.0000E+00  0.0000E+00
    -22.940  0.0000E+00  0.0000E+00
    -22.629  0.0000E+00  0.0000E+00
    -22.318  0.0000E+00  0.0000E+00
    -22.006  0.4157E-09  0.1294E-09
    -21.695  0.3148E+00  0.9803E-01
    -21.383  0.9105E-05  0.9836E-01
    -21.072  0.0000E+00  0.9836E-01
    -20.761  0.0000E+00  0.9836E-01
    -20.449  0.0000E+00  0.9836E-01
    -20.138  0.0000E+00  0.9836E-01
    -19.826  0.0000E+00  0.9836E-01
    -19.515  0.0000E+00  0.9836E-01
    -19.204  0.0000E+00  0.9836E-01
    -18.892  0.0000E+00  0.9836E-01
    -18.581  0.0000E+00  0.9836E-01
    -18.269  0.0000E+00  0.9836E-01
    -17.958  0.0000E+00  0.9836E-01
    -17.647  0.0000E+00  0.9836E-01
    -17.335  0.0000E+00  0.9836E-01
    -17.024  0.0000E+00  0.9836E-01
    -16.712  0.0000E+00  0.9836E-01
    -16.401  0.0000E+00  0.9836E-01
    -16.089  0.0000E+00  0.9836E-01
    -15.778  0.0000E+00  0.9836E-01
    -15.467  0.0000E+00  0.9836E-01
    -15.155  0.0000E+00  0.9836E-01
    -14.844  0.0000E+00  0.9836E-01
    -14.532  0.0000E+00  0.9836E-01
    -14.221  0.0000E+00  0.9836E-01
    -13.910  0.0000E+00  0.9836E-01
    -13.598  0.3302E-06  0.9836E-01
    -13.287  0.1858E-01  0.1041E+00
    -12.975  0.8670E-01  0.1311E+00
    -12.664  0.0000E+00  0.1311E+00
    -12.353  0.0000E+00  0.1311E+00
    -12.041  0.0000E+00  0.1311E+00
    -11.730  0.0000E+00  0.1311E+00
    -11.418  0.0000E+00  0.1311E+00
    -11.107  0.0000E+00  0.1311E+00
    -10.796  0.0000E+00  0.1311E+00
    -10.484  0.0000E+00  0.1311E+00
    -10.173  0.0000E+00  0.1311E+00
     -9.861  0.0000E+00  0.1311E+00
     -9.550  0.0000E+00  0.1311E+00
     -9.239  0.0000E+00  0.1311E+00
     -8.927  0.0000E+00  0.1311E+00
     -8.616  0.0000E+00  0.1311E+00
     -8.304  0.0000E+00  0.1311E+00
     -7.993  0.0000E+00  0.1311E+00
     -7.682  0.0000E+00  0.1311E+00
     -7.370  0.0000E+00  0.1311E+00
     -7.059  0.0000E+00  0.1311E+00
     -6.747  0.0000E+00  0.1311E+00
     -6.436  0.0000E+00  0.1311E+00
     -6.124  0.0000E+00  0.1311E+00
     -5.813  0.0000E+00  0.1311E+00
     -5.502  0.0000E+00  0.1311E+00
     -5.190  0.0000E+00  0.1311E+00
     -4.879  0.0000E+00  0.1311E+00
     -4.567  0.0000E+00  0.1311E+00
     -4.256  0.0000E+00  0.1311E+00
     -3.945  0.0000E+00  0.1311E+00
     -3.633  0.0000E+00  0.1311E+00
     -3.322  0.0000E+00  0.1311E+00
     -3.010  0.2128E-19  0.1311E+00
     -2.699  0.9615E-03  0.1314E+00
     -2.388  0.2868E-01  0.1404E+00
     -2.076  0.5997E-01  0.1591E+00
     -1.765  0.2863E-01  0.1680E+00
     -1.453  0.5512E-01  0.1851E+00
     -1.142  0.1051E+00  0.2179E+00
     -0.831  0.3728E-01  0.2295E+00
     -0.519  0.2620E-05  0.2295E+00
     -0.208  0.0000E+00  0.2295E+00
      0.104  0.0000E+00  0.2295E+00
      0.415  0.0000E+00  0.2295E+00
      0.726  0.0000E+00  0.2295E+00
      1.038  0.0000E+00  0.2295E+00
      1.349  0.0000E+00  0.2295E+00
      1.661  0.0000E+00  0.2295E+00
      1.972  0.0000E+00  0.2295E+00
      2.284  0.0000E+00  0.2295E+00
      2.595  0.0000E+00  0.2295E+00
      2.906  0.0000E+00  0.2295E+00
      3.218  0.0000E+00  0.2295E+00
      3.529  0.0000E+00  0.2295E+00
      3.841  0.6712E-16  0.2295E+00
      4.152  0.4632E-04  0.2295E+00
      4.463  0.6727E-03  0.2297E+00
      4.775  0.1659E-02  0.2302E+00
      5.086  0.9153E-03  0.2305E+00
      5.398  0.3448E-02  0.2316E+00
      5.709  0.2325E-02  0.2323E+00
      6.020  0.6159E-02  0.2342E+00
      6.332  0.8234E-02  0.2368E+00
      6.643  0.1189E-01  0.2405E+00
      6.955  0.2052E-01  0.2469E+00
      7.266  0.1922E-01  0.2529E+00
      7.577  0.2049E-01  0.2593E+00
      7.889  0.1977E-01  0.2654E+00
      8.200  0.1783E-01  0.2710E+00
      8.512  0.2770E-01  0.2796E+00
      8.823  0.3014E-01  0.2890E+00
      9.134  0.4010E-01  0.3015E+00
      9.446  0.3559E-01  0.3126E+00
      9.757  0.1975E-01  0.3187E+00
     10.069  0.1565E-01  0.3236E+00
     10.380  0.1873E-01  0.3294E+00
     10.691  0.2636E-01  0.3377E+00
     11.003  0.3270E-01  0.3478E+00
     11.314  0.2089E-01  0.3543E+00
     11.626  0.1824E-01  0.3600E+00
     11.937  0.1362E-01  0.3643E+00
     12.249  0.1366E-01  0.3685E+00
     12.560  0.1462E-01  0.3731E+00
     12.871  0.1869E-01  0.3789E+00
     13.183  0.3319E-01  0.3892E+00
     13.494  0.1767E-01  0.3947E+00
     13.806  0.1663E-01  0.3999E+00
     14.117  0.1641E-01  0.4050E+00
     14.428  0.1627E-01  0.4101E+00
     14.740  0.3031E-01  0.4195E+00
     15.051  0.2375E-01  0.4269E+00
     15.363  0.2030E-01  0.4333E+00
     15.674  0.2870E-01  0.4422E+00
     15.985  0.3564E-01  0.4533E+00
     16.297  0.2951E-01  0.4625E+00
     16.608  0.3092E-01  0.4721E+00
     16.920  0.2270E-01  0.4792E+00
     17.231  0.3737E-01  0.4908E+00
     17.542  0.2578E-01  0.4989E+00
     17.854  0.2950E-01  0.5081E+00
     18.165  0.3605E-01  0.5193E+00
     18.477  0.3391E-01  0.5298E+00
     18.788  0.1489E-01  0.5345E+00
     19.099  0.2995E-01  0.5438E+00
     19.411  0.3297E-01  0.5541E+00
     19.722  0.3459E-01  0.5648E+00
     20.034  0.1308E-01  0.5689E+00
     20.345  0.2267E-01  0.5760E+00
     20.656  0.3277E-01  0.5862E+00
     20.968  0.2634E-01  0.5944E+00
     21.279  0.1532E-01  0.5992E+00
     21.591  0.3694E-01  0.6107E+00
     21.902  0.2346E-01  0.6180E+00
     22.214  0.2975E-01  0.6272E+00
     22.525  0.2025E-01  0.6336E+00
     22.836  0.1514E-01  0.6383E+00
     23.148  0.1919E-01  0.6442E+00
     23.459  0.3417E-01  0.6549E+00
     23.771  0.2938E-01  0.6640E+00
     24.082  0.3026E-01  0.6735E+00
     24.393  0.2737E-01  0.6820E+00
     24.705  0.2422E-01  0.6895E+00
     25.016  0.2956E-01  0.6987E+00
     25.328  0.3720E-01  0.7103E+00
     25.639  0.2802E-01  0.7190E+00
     25.950  0.2656E-01  0.7273E+00
     26.262  0.3030E-01  0.7368E+00
     26.573  0.3044E-01  0.7462E+00
     26.885  0.2941E-01  0.7554E+00
     27.196  0.3258E-01  0.7656E+00
     27.507  0.4222E-01  0.7787E+00
     27.819  0.3333E-01  0.7891E+00
     28.130  0.2559E-01  0.7971E+00
     28.442  0.2783E-01  0.8057E+00
     28.753  0.2702E-01  0.8141E+00
     29.064  0.3118E-01  0.8238E+00
     29.376  0.2653E-01  0.8321E+00
     29.687  0.2896E-01  0.8411E+00
     29.999  0.2302E-01  0.8483E+00
     30.310  0.3818E-01  0.8602E+00
     30.622  0.2761E-01  0.8688E+00
     30.933  0.3333E-01  0.8792E+00
     31.244  0.3605E-01  0.8904E+00
     31.556  0.3802E-01  0.9023E+00
     31.867  0.3208E-01  0.9122E+00
     32.179  0.4782E-01  0.9271E+00
     32.490  0.4796E-01  0.9421E+00
     32.801  0.3906E-01  0.9542E+00
     33.113  0.3358E-01  0.9647E+00
     33.424  0.2288E-01  0.9718E+00
     33.736  0.3146E-01  0.9816E+00
     34.047  0.3755E-01  0.9933E+00
     34.358  0.2975E-01  0.1003E+01
     34.670  0.2433E-01  0.1010E+01
     34.981  0.2528E-01  0.1018E+01
     35.293  0.2765E-01  0.1027E+01
     35.604  0.3158E-01  0.1036E+01
     35.915  0.3176E-01  0.1046E+01
     36.227  0.1801E-01  0.1052E+01
     36.538  0.4100E-01  0.1065E+01
     36.850  0.6145E-01  0.1084E+01
     37.161  0.1273E+00  0.1124E+01
     37.472  0.3470E-01  0.1134E+01
     37.784  0.2142E-01  0.1141E+01
     38.095  0.2398E-01  0.1148E+01
     38.407  0.2569E-01  0.1156E+01
     38.718  0.3409E-01  0.1167E+01
     39.029  0.2961E-01  0.1176E+01
     39.341  0.2470E-01  0.1184E+01
     39.652  0.3470E-01  0.1195E+01
     39.964  0.2921E-01  0.1204E+01
     40.275  0.4985E-01  0.1219E+01
     40.587  0.4925E-01  0.1235E+01
     40.898  0.3420E-01  0.1245E+01
     41.209  0.3189E-01  0.1255E+01
     41.521  0.3477E-01  0.1266E+01
     41.832  0.3560E-01  0.1277E+01
     42.144  0.3373E-01  0.1288E+01
     42.455  0.3137E-01  0.1298E+01
     42.766  0.3769E-01  0.1309E+01
     43.078  0.3153E-01  0.1319E+01
     43.389  0.4175E-01  0.1332E+01
     43.701  0.3927E-01  0.1344E+01
     44.012  0.4236E-01  0.1358E+01
     44.323  0.3965E-01  0.1370E+01
     44.635  0.3915E-01  0.1382E+01
     44.946  0.4479E-01  0.1396E+01
     45.258  0.5116E-01  0.1412E+01
     45.569  0.2990E-01  0.1421E+01
     45.880  0.2780E-01  0.1430E+01
     46.192  0.4949E-01  0.1445E+01
     46.503  0.4756E-01  0.1460E+01
     46.815  0.3725E-01  0.1472E+01
     47.126  0.4658E-01  0.1486E+01
     47.437  0.3187E-01  0.1496E+01
     47.749  0.3732E-01  0.1508E+01
     48.060  0.2359E-01  0.1515E+01
     48.372  0.4337E-01  0.1529E+01
     48.683  0.5727E-01  0.1547E+01
     48.994  0.2717E-01  0.1555E+01
     49.306  0.3322E-01  0.1565E+01
     49.617  0.4252E-01  0.1579E+01
     49.929  0.2903E-01  0.1588E+01
     50.240  0.3692E-01  0.1599E+01
     50.552  0.2822E-01  0.1608E+01
     50.863  0.4289E-01  0.1621E+01
     51.174  0.4080E-01  0.1634E+01
     51.486  0.3554E-01  0.1645E+01
     51.797  0.3998E-01  0.1658E+01
     52.109  0.4295E-01  0.1671E+01
     52.420  0.5101E-01  0.1687E+01
     52.731  0.4625E-01  0.1701E+01
     53.043  0.3565E-01  0.1712E+01
     53.354  0.4181E-01  0.1725E+01
     53.666  0.4114E-01  0.1738E+01
     53.977  0.3910E-01  0.1750E+01
     54.288  0.4495E-01  0.1764E+01
     54.600  0.3983E-01  0.1777E+01
     54.911  0.3736E-01  0.1788E+01
     55.223  0.5331E-01  0.1805E+01
     55.534  0.3408E-01  0.1816E+01
     55.845  0.3814E-01  0.1827E+01
     56.157  0.4463E-01  0.1841E+01
     56.468  0.3262E-01  0.1852E+01
     56.780  0.3584E-01  0.1863E+01
     57.091  0.3423E-01  0.1873E+01
     57.402  0.3989E-01  0.1886E+01
     57.714  0.3774E-01  0.1898E+01
     58.025  0.4830E-01  0.1913E+01
     58.337  0.3551E-01  0.1924E+01
     58.648  0.5670E-01  0.1941E+01
     58.960  0.3643E-01  0.1953E+01
     59.271  0.5517E-01  0.1970E+01
     59.582  0.3443E-01  0.1981E+01
     59.894  0.3210E-01  0.1991E+01
     60.205  0.5013E-01  0.2006E+01
     60.517  0.4160E-01  0.2019E+01
     60.828  0.3858E-01  0.2031E+01
     61.139  0.3914E-01  0.2043E+01
     61.451  0.4810E-01  0.2058E+01
     61.762  0.4708E-01  0.2073E+01
     62.074  0.3416E-01  0.2084E+01
     62.385  0.2298E-01  0.2091E+01
     62.696  0.1832E-01  0.2096E+01
     63.008  0.3970E-02  0.2098E+01
     63.319  0.2107E-02  0.2098E+01
     63.631  0.0000E+00  0.2098E+01
     63.942  0.0000E+00  0.2098E+01
     64.253  0.0000E+00  0.2098E+01
     64.565  0.0000E+00  0.2098E+01
     64.876  0.0000E+00  0.2098E+01
     65.188  0.0000E+00  0.2098E+01
     65.499  0.0000E+00  0.2098E+01
     65.810  0.0000E+00  0.2098E+01
     66.122  0.0000E+00  0.2098E+01
     66.433  0.0000E+00  0.2098E+01
     66.745  0.0000E+00  0.2098E+01
     67.056  0.0000E+00  0.2098E+01
     67.367  0.0000E+00  0.2098E+01
