unknown system                          
            1
     0.000000    2.848871    2.848871
     2.848871    0.000000    2.848871
     2.848871    2.848871    0.000000
   Na   Cl
     1     1
Direct configuration=     1
   0.50000000  0.50000000  0.50000000
   0.00000000  0.00000000  0.00000000
unknown system                          
            1
     0.000000    2.848871    2.848871
     2.905848    0.000000    2.848871
     2.905848    2.848871    0.000000
   Na   Cl
     1     1
Direct configuration=     2
   0.50000000  0.50000000  0.50000000
   0.00000000  0.00000000  0.00000000
unknown system                          
            1
     0.000000    2.848871    2.848871
     2.877360    0.000000    2.848871
     2.877360    2.848871    0.000000
   Na   Cl
     1     1
Direct configuration=     3
   0.50000000  0.50000000  0.50000000
   0.00000000  0.00000000  0.00000000
unknown system                          
            1
     0.000000    2.848871    2.848871
     2.820382    0.000000    2.848871
     2.820382    2.848871    0.000000
   Na   Cl
     1     1
Direct configuration=     4
   0.50000000  0.50000000  0.50000000
   0.00000000  0.00000000  0.00000000
unknown system                          
            1
     0.000000    2.848871    2.848871
     2.791893    0.000000    2.848871
     2.791893    2.848871    0.000000
   Na   Cl
     1     1
Direct configuration=     5
   0.50000000  0.50000000  0.50000000
   0.00000000  0.00000000  0.00000000
unknown system                          
            1
     0.000000    2.905848    2.848871
     2.848871    0.000000    2.848871
     2.848871    2.905848    0.000000
   Na   Cl
     1     1
Direct configuration=     6
   0.50000000  0.50000000  0.50000000
   0.00000000  0.00000000  0.00000000
unknown system                          
            1
     0.000000    2.877360    2.848871
     2.848871    0.000000    2.848871
     2.848871    2.877360    0.000000
   Na   Cl
     1     1
Direct configuration=     7
   0.50000000  0.50000000  0.50000000
   0.00000000  0.00000000  0.00000000
unknown system                          
            1
     0.000000    2.820382    2.848871
     2.848871    0.000000    2.848871
     2.848871    2.820382    0.000000
   Na   Cl
     1     1
Direct configuration=     8
   0.50000000  0.50000000  0.50000000
   0.00000000  0.00000000  0.00000000
unknown system                          
            1
     0.000000    2.791893    2.848871
     2.848871    0.000000    2.848871
     2.848871    2.791893    0.000000
   Na   Cl
     1     1
Direct configuration=     9
   0.50000000  0.50000000  0.50000000
   0.00000000  0.00000000  0.00000000
unknown system                          
            1
     0.000000    2.848871    2.905848
     2.848871    0.000000    2.905848
     2.848871    2.848871    0.000000
   Na   Cl
     1     1
Direct configuration=    10
   0.50000000  0.50000000  0.50000000
   0.00000000  0.00000000  0.00000000
unknown system                          
            1
     0.000000    2.848871    2.877360
     2.848871    0.000000    2.877360
     2.848871    2.848871    0.000000
   Na   Cl
     1     1
Direct configuration=    11
   0.50000000  0.50000000  0.50000000
   0.00000000  0.00000000  0.00000000
unknown system                          
            1
     0.000000    2.848871    2.820382
     2.848871    0.000000    2.820382
     2.848871    2.848871    0.000000
   Na   Cl
     1     1
Direct configuration=    12
   0.50000000  0.50000000  0.50000000
   0.00000000  0.00000000  0.00000000
unknown system                          
            1
     0.000000    2.848871    2.791893
     2.848871    0.000000    2.791893
     2.848871    2.848871    0.000000
   Na   Cl
     1     1
Direct configuration=    13
   0.50000000  0.50000000  0.50000000
   0.00000000  0.00000000  0.00000000
unknown system                          
            1
     0.000000    2.848871    2.848871
     2.848871    0.056977    2.848871
     2.848871    2.905848    0.000000
   Na   Cl
     1     1
Direct configuration=    14
   0.50000000  0.50000000  0.50000000
   0.00000000  0.00000000  0.00000000
unknown system                          
            1
     0.000000    2.848871    2.848871
     2.848871    0.028489    2.848871
     2.848871    2.877360    0.000000
   Na   Cl
     1     1
Direct configuration=    15
   0.50000000  0.50000000  0.50000000
   0.00000000  0.00000000  0.00000000
unknown system                          
            1
     0.000000    2.848871    2.848871
     2.848871   -0.028489    2.848871
     2.848871    2.820382    0.000000
   Na   Cl
     1     1
Direct configuration=    16
   0.50000000  0.50000000  0.50000000
   0.00000000  0.00000000  0.00000000
unknown system                          
            1
     0.000000    2.848871    2.848871
     2.848871   -0.056977    2.848871
     2.848871    2.791893    0.000000
   Na   Cl
     1     1
Direct configuration=    17
   0.50000000  0.50000000  0.50000000
   0.00000000  0.00000000  0.00000000
unknown system                          
            1
     0.000000    2.848871    2.905848
     2.848871    0.000000    2.848871
     2.848871    2.848871    0.056977
   Na   Cl
     1     1
Direct configuration=    18
   0.50000000  0.50000000  0.50000000
   0.00000000  0.00000000  0.00000000
unknown system                          
            1
     0.000000    2.848871    2.877360
     2.848871    0.000000    2.848871
     2.848871    2.848871    0.028489
   Na   Cl
     1     1
Direct configuration=    19
   0.50000000  0.50000000  0.50000000
   0.00000000  0.00000000  0.00000000
unknown system                          
            1
     0.000000    2.848871    2.820382
     2.848871    0.000000    2.848871
     2.848871    2.848871   -0.028489
   Na   Cl
     1     1
Direct configuration=    20
   0.50000000  0.50000000  0.50000000
   0.00000000  0.00000000  0.00000000
unknown system                          
            1
     0.000000    2.848871    2.791893
     2.848871    0.000000    2.848871
     2.848871    2.848871   -0.056977
   Na   Cl
     1     1
Direct configuration=    21
   0.50000000  0.50000000  0.50000000
   0.00000000  0.00000000  0.00000000
unknown system                          
            1
     0.056977    2.848871    2.848871
     2.905848    0.000000    2.848871
     2.848871    2.848871    0.000000
   Na   Cl
     1     1
Direct configuration=    22
   0.50000000  0.50000000  0.50000000
   0.00000000  0.00000000  0.00000000
unknown system                          
            1
     0.028489    2.848871    2.848871
     2.877360    0.000000    2.848871
     2.848871    2.848871    0.000000
   Na   Cl
     1     1
Direct configuration=    23
   0.50000000  0.50000000  0.50000000
   0.00000000  0.00000000  0.00000000
unknown system                          
            1
    -0.028489    2.848871    2.848871
     2.820382    0.000000    2.848871
     2.848871    2.848871    0.000000
   Na   Cl
     1     1
Direct configuration=    24
   0.50000000  0.50000000  0.50000000
   0.00000000  0.00000000  0.00000000
unknown system                          
            1
    -0.056977    2.848871    2.848871
     2.791893    0.000000    2.848871
     2.848871    2.848871    0.000000
   Na   Cl
     1     1
Direct configuration=    25
   0.50000000  0.50000000  0.50000000
   0.00000000  0.00000000  0.00000000
unknown system                          
            1
     0.000000    2.848871    2.848871
     2.848871    0.000000    2.848871
     2.848871    2.848871    0.000000
   Na   Cl
     1     1
Direct configuration=    26
   0.49648984  0.50351016  0.50351016
   0.00000000  0.00000000  0.00000000
unknown system                          
            1
     0.000000    2.848871    2.848871
     2.848871    0.000000    2.848871
     2.848871    2.848871    0.000000
   Na   Cl
     1     1
Direct configuration=    27
   0.49824492  0.50175508  0.50175508
   0.00000000  0.00000000  0.00000000
unknown system                          
            1
     0.000000    2.848871    2.848871
     2.848871    0.000000    2.848871
     2.848871    2.848871    0.000000
   Na   Cl
     1     1
Direct configuration=    28
   0.50175508  0.49824492  0.49824492
   0.00000000  0.00000000  0.00000000
unknown system                          
            1
     0.000000    2.848871    2.848871
     2.848871    0.000000    2.848871
     2.848871    2.848871    0.000000
   Na   Cl
     1     1
Direct configuration=    29
   0.50351016  0.49648984  0.49648984
   0.00000000  0.00000000  0.00000000
unknown system                          
            1
     0.000000    2.848871    2.848871
     2.848871    0.000000    2.848871
     2.848871    2.848871    0.000000
   Na   Cl
     1     1
Direct configuration=    30
   0.50000000  0.50000000  0.50000000
  -0.00351016  0.00351016  0.00351016
unknown system                          
            1
     0.000000    2.848871    2.848871
     2.848871    0.000000    2.848871
     2.848871    2.848871    0.000000
   Na   Cl
     1     1
Direct configuration=    31
   0.50000000  0.50000000  0.50000000
  -0.00175508  0.00175508  0.00175508
unknown system                          
            1
     0.000000    2.848871    2.848871
     2.848871    0.000000    2.848871
     2.848871    2.848871    0.000000
   Na   Cl
     1     1
Direct configuration=    32
   0.50000000  0.50000000  0.50000000
   0.00175508 -0.00175508 -0.00175508
unknown system                          
            1
     0.000000    2.848871    2.848871
     2.848871    0.000000    2.848871
     2.848871    2.848871    0.000000
   Na   Cl
     1     1
Direct configuration=    33
   0.50000000  0.50000000  0.50000000
   0.00351016 -0.00351016 -0.00351016
