 running  128 mpi-ranks, with    1 threads/rank, on    1 nodes
 distrk:  each k-point on   32 cores,    4 groups
 distr:  one band on   16 cores,    2 groups
 vasp.6.4.3 19Mar24 (build Jun  3 2025 16:21:13) complex                         
 POSCAR found type information on POSCAR NiO 
 POSCAR found :  2 types and       2 ions
 Reading from existing POTCAR
 scaLAPACK will be used
 Reading from existing POTCAR
 LDA part: xc-table for (Slater+PW92), standard interpolation
 -----------------------------------------------------------------------------
|                                                                             |
|           W    W    AA    RRRRR   N    N  II  N    N   GGGG   !!!           |
|           W    W   A  A   R    R  NN   N  II  NN   N  G    G  !!!           |
|           W    W  A    A  R    R  N N  N  II  N N  N  G       !!!           |
|           W WW W  AAAAAA  RRRRR   N  N N  II  N  N N  G  GGG   !            |
|           WW  WW  A    A  R   R   N   NN  II  N   NN  G    G                |
|           W    W  A    A  R    R  N    N  II  N    N   GGGG   !!!           |
|                                                                             |
|     The requested file  could not be found or opened for reading            |
|     k-point information. Automatic k-point generation is used as a          |
|     fallback, which may lead to unwanted results.                           |
|                                                                             |
 -----------------------------------------------------------------------------

 INCAR ok, starting setup
 POSCAR ok, starting setup
 FFT: planning ... GRIDC
 FFT: planning ... GRID_SOFT
 FFT: planning ... GRID
 WAVECAR not read
 entering main loop
       N       E                     dE             d eps       ncg     rms          rms(c)
DAV:   1     0.108127766316E+03    0.10813E+03   -0.62086E+03 28464   0.640E+02
DAV:   2     0.466049388050E+00   -0.10766E+03   -0.94382E+02 25856   0.188E+02
DAV:   3    -0.700710737992E+01   -0.74732E+01   -0.72379E+01 30864   0.436E+01
DAV:   4    -0.706820289163E+01   -0.61096E-01   -0.61049E-01 28680   0.396E+00
DAV:   5    -0.706830783006E+01   -0.10494E-03   -0.10494E-03 30008   0.161E-01    0.237E+01
DAV:   6    -0.111916927357E+02   -0.41234E+01   -0.26328E+01 28536   0.523E+01    0.220E+01
DAV:   7    -0.894737623642E+01    0.22443E+01   -0.46136E+00 28488   0.331E+01    0.923E+00
DAV:   8    -0.992046874173E+01   -0.97309E+00   -0.69093E-01 27848   0.903E+00    0.682E+00
DAV:   9    -0.101120934440E+02   -0.19162E+00   -0.11514E-01 28232   0.756E+00    0.274E+00
DAV:  10    -0.101392532035E+02   -0.27160E-01   -0.54752E-02 29552   0.424E+00    0.686E-01
DAV:  11    -0.101389635324E+02    0.28967E-03   -0.15178E-02 28408   0.101E+00    0.324E-01
DAV:  12    -0.101394535106E+02   -0.48998E-03   -0.11149E-03 30424   0.331E-01    0.148E-01
DAV:  13    -0.101396233752E+02   -0.16986E-03   -0.28932E-04 29392   0.229E-01    0.797E-02
DAV:  14    -0.101396267822E+02   -0.34070E-05   -0.52757E-05 30704   0.752E-02    0.305E-02
DAV:  15    -0.101396352727E+02   -0.84905E-05   -0.70592E-06 29600   0.453E-02    0.200E-02
DAV:  16    -0.101396371114E+02   -0.18387E-05   -0.16405E-06 31376   0.462E-02    0.691E-03
DAV:  17    -0.101396372890E+02   -0.17756E-06   -0.70975E-07 30528   0.126E-02    0.285E-03
DAV:  18    -0.101396375526E+02   -0.26360E-06   -0.23776E-07 31392   0.689E-03    0.269E-03
DAV:  19    -0.101396375133E+02    0.39338E-07   -0.10470E-07 24872   0.496E-03
   1 F= -.10139638E+02 E0= -.10139638E+02  d E =-.101396E+02  mag=     2.0000
 summed vel is now    0.000000000000000         0.000000000000000      
    0.000000000000000     
quench:  g(F)=  0.961E-61 g(S)=  0.895E-05 dE (1.order)=-0.179E-04
 bond charge predicted
       N       E                     dE             d eps       ncg     rms          rms(c)
DAV:   1    -0.101397182560E+02   -0.80703E-04   -0.29277E-04 26032   0.280E-01    0.621E-02
DAV:   2    -0.101396554332E+02    0.62823E-04   -0.41850E-05 27304   0.129E-01    0.379E-02
DAV:   3    -0.101396511455E+02    0.42877E-05   -0.50587E-06 28736   0.154E-02    0.240E-02
DAV:   4    -0.101396506117E+02    0.53383E-06   -0.46025E-07 29408   0.462E-03    0.966E-03
DAV:   5    -0.101396498860E+02    0.72568E-06   -0.20195E-07 28128   0.400E-03    0.181E-03
DAV:   6    -0.101396498395E+02    0.46457E-07   -0.64705E-08 22880   0.194E-03
   2 F= -.10139650E+02 E0= -.10139650E+02  d E =-.123263E-04  mag=     2.0000
 summed vel is now    0.000000000000000         0.000000000000000      
    0.000000000000000     
quench:  g(F)=  0.241E-60 g(S)=  0.191E-05 dE (1.order)=-0.121E-04
 reached required accuracy - stopping structural energy minimisation
 PROFILE, used timers:     430
