unknown system                          
            1
     0.000000    2.097018    2.097018
     2.097018    0.000000    2.097018
     2.097018    2.097018    0.000000
   Ni   O 
     1     1
Direct configuration=     1
   0.00000000  0.00000000  0.00000000
   0.50000000  0.50000000  0.50000000
unknown system                          
            1
     0.000000    2.097521    2.097521
     2.097521    0.000000    2.097521
     2.097521    2.097521    0.000000
   Ni   O 
     1     1
Direct configuration=     2
   0.00000000  0.00000000 -0.00000000
   0.50000000  0.50000000  0.50000000
