   3   3   0   0
  0.2225975E+02  0.4553921E-09  0.4553921E-09  0.4553921E-09  0.5000000E-15
  1.000000000000000E-004
  CAR
 unknown system
     12.80938022    -25.61919041  301      8.47345162      1.00000000
    -25.619  0.0000E+00  0.0000E+00
    -25.491  0.0000E+00  0.0000E+00
    -25.363  0.0000E+00  0.0000E+00
    -25.235  0.0000E+00  0.0000E+00
    -25.107  0.0000E+00  0.0000E+00
    -24.979  0.0000E+00  0.0000E+00
    -24.851  0.0000E+00  0.0000E+00
    -24.723  0.0000E+00  0.0000E+00
    -24.594  0.0000E+00  0.0000E+00
    -24.466  0.0000E+00  0.0000E+00
    -24.338  0.0000E+00  0.0000E+00
    -24.210  0.0000E+00  0.0000E+00
    -24.082  0.0000E+00  0.0000E+00
    -23.954  0.0000E+00  0.0000E+00
    -23.826  0.4684E+02  0.6000E+01
    -23.698  0.0000E+00  0.6000E+01
    -23.570  0.0000E+00  0.6000E+01
    -23.442  0.0000E+00  0.6000E+01
    -23.313  0.0000E+00  0.6000E+01
    -23.185  0.0000E+00  0.6000E+01
    -23.057  0.0000E+00  0.6000E+01
    -22.929  0.0000E+00  0.6000E+01
    -22.801  0.0000E+00  0.6000E+01
    -22.673  0.0000E+00  0.6000E+01
    -22.545  0.0000E+00  0.6000E+01
    -22.417  0.0000E+00  0.6000E+01
    -22.289  0.0000E+00  0.6000E+01
    -22.161  0.0000E+00  0.6000E+01
    -22.033  0.0000E+00  0.6000E+01
    -21.904  0.0000E+00  0.6000E+01
    -21.776  0.0000E+00  0.6000E+01
    -21.648  0.0000E+00  0.6000E+01
    -21.520  0.0000E+00  0.6000E+01
    -21.392  0.0000E+00  0.6000E+01
    -21.264  0.0000E+00  0.6000E+01
    -21.136  0.0000E+00  0.6000E+01
    -21.008  0.0000E+00  0.6000E+01
    -20.880  0.0000E+00  0.6000E+01
    -20.752  0.0000E+00  0.6000E+01
    -20.623  0.0000E+00  0.6000E+01
    -20.495  0.0000E+00  0.6000E+01
    -20.367  0.0000E+00  0.6000E+01
    -20.239  0.0000E+00  0.6000E+01
    -20.111  0.0000E+00  0.6000E+01
    -19.983  0.0000E+00  0.6000E+01
    -19.855  0.0000E+00  0.6000E+01
    -19.727  0.0000E+00  0.6000E+01
    -19.599  0.0000E+00  0.6000E+01
    -19.471  0.0000E+00  0.6000E+01
    -19.343  0.0000E+00  0.6000E+01
    -19.214  0.0000E+00  0.6000E+01
    -19.086  0.0000E+00  0.6000E+01
    -18.958  0.0000E+00  0.6000E+01
    -18.830  0.0000E+00  0.6000E+01
    -18.702  0.0000E+00  0.6000E+01
    -18.574  0.0000E+00  0.6000E+01
    -18.446  0.0000E+00  0.6000E+01
    -18.318  0.0000E+00  0.6000E+01
    -18.190  0.0000E+00  0.6000E+01
    -18.062  0.0000E+00  0.6000E+01
    -17.933  0.0000E+00  0.6000E+01
    -17.805  0.0000E+00  0.6000E+01
    -17.677  0.0000E+00  0.6000E+01
    -17.549  0.0000E+00  0.6000E+01
    -17.421  0.0000E+00  0.6000E+01
    -17.293  0.0000E+00  0.6000E+01
    -17.165  0.0000E+00  0.6000E+01
    -17.037  0.0000E+00  0.6000E+01
    -16.909  0.0000E+00  0.6000E+01
    -16.781  0.0000E+00  0.6000E+01
    -16.653  0.0000E+00  0.6000E+01
    -16.524  0.0000E+00  0.6000E+01
    -16.396  0.0000E+00  0.6000E+01
    -16.268  0.0000E+00  0.6000E+01
    -16.140  0.0000E+00  0.6000E+01
    -16.012  0.0000E+00  0.6000E+01
    -15.884  0.0000E+00  0.6000E+01
    -15.756  0.0000E+00  0.6000E+01
    -15.628  0.0000E+00  0.6000E+01
    -15.500  0.0000E+00  0.6000E+01
    -15.372  0.0000E+00  0.6000E+01
    -15.243  0.0000E+00  0.6000E+01
    -15.115  0.0000E+00  0.6000E+01
    -14.987  0.0000E+00  0.6000E+01
    -14.859  0.0000E+00  0.6000E+01
    -14.731  0.0000E+00  0.6000E+01
    -14.603  0.0000E+00  0.6000E+01
    -14.475  0.0000E+00  0.6000E+01
    -14.347  0.0000E+00  0.6000E+01
    -14.219  0.0000E+00  0.6000E+01
    -14.091  0.0000E+00  0.6000E+01
    -13.963  0.0000E+00  0.6000E+01
    -13.834  0.0000E+00  0.6000E+01
    -13.706  0.0000E+00  0.6000E+01
    -13.578  0.0000E+00  0.6000E+01
    -13.450  0.0000E+00  0.6000E+01
    -13.322  0.0000E+00  0.6000E+01
    -13.194  0.0000E+00  0.6000E+01
    -13.066  0.0000E+00  0.6000E+01
    -12.938  0.0000E+00  0.6000E+01
    -12.810  0.0000E+00  0.6000E+01
    -12.682  0.0000E+00  0.6000E+01
    -12.553  0.0000E+00  0.6000E+01
    -12.425  0.0000E+00  0.6000E+01
    -12.297  0.0000E+00  0.6000E+01
    -12.169  0.0000E+00  0.6000E+01
    -12.041  0.0000E+00  0.6000E+01
    -11.913  0.0000E+00  0.6000E+01
    -11.785  0.0000E+00  0.6000E+01
    -11.657  0.0000E+00  0.6000E+01
    -11.529  0.0000E+00  0.6000E+01
    -11.401  0.0000E+00  0.6000E+01
    -11.273  0.0000E+00  0.6000E+01
    -11.144  0.0000E+00  0.6000E+01
    -11.016  0.0000E+00  0.6000E+01
    -10.888  0.0000E+00  0.6000E+01
    -10.760  0.0000E+00  0.6000E+01
    -10.632  0.0000E+00  0.6000E+01
    -10.504  0.0000E+00  0.6000E+01
    -10.376  0.0000E+00  0.6000E+01
    -10.248  0.0000E+00  0.6000E+01
    -10.120  0.0000E+00  0.6000E+01
     -9.992  0.0000E+00  0.6000E+01
     -9.863  0.0000E+00  0.6000E+01
     -9.735  0.0000E+00  0.6000E+01
     -9.607  0.0000E+00  0.6000E+01
     -9.479  0.0000E+00  0.6000E+01
     -9.351  0.0000E+00  0.6000E+01
     -9.223  0.0000E+00  0.6000E+01
     -9.095  0.0000E+00  0.6000E+01
     -8.967  0.0000E+00  0.6000E+01
     -8.839  0.0000E+00  0.6000E+01
     -8.711  0.0000E+00  0.6000E+01
     -8.583  0.0000E+00  0.6000E+01
     -8.454  0.0000E+00  0.6000E+01
     -8.326  0.0000E+00  0.6000E+01
     -8.198  0.0000E+00  0.6000E+01
     -8.070  0.0000E+00  0.6000E+01
     -7.942  0.0000E+00  0.6000E+01
     -7.814  0.0000E+00  0.6000E+01
     -7.686  0.0000E+00  0.6000E+01
     -7.558  0.0000E+00  0.6000E+01
     -7.430  0.0000E+00  0.6000E+01
     -7.302  0.0000E+00  0.6000E+01
     -7.173  0.0000E+00  0.6000E+01
     -7.045  0.0000E+00  0.6000E+01
     -6.917  0.0000E+00  0.6000E+01
     -6.789  0.0000E+00  0.6000E+01
     -6.661  0.0000E+00  0.6000E+01
     -6.533  0.0000E+00  0.6000E+01
     -6.405  0.0000E+00  0.6000E+01
     -6.277  0.0000E+00  0.6000E+01
     -6.149  0.0000E+00  0.6000E+01
     -6.021  0.0000E+00  0.6000E+01
     -5.893  0.0000E+00  0.6000E+01
     -5.764  0.0000E+00  0.6000E+01
     -5.636  0.0000E+00  0.6000E+01
     -5.508  0.0000E+00  0.6000E+01
     -5.380  0.0000E+00  0.6000E+01
     -5.252  0.0000E+00  0.6000E+01
     -5.124  0.0000E+00  0.6000E+01
     -4.996  0.0000E+00  0.6000E+01
     -4.868  0.0000E+00  0.6000E+01
     -4.740  0.0000E+00  0.6000E+01
     -4.612  0.0000E+00  0.6000E+01
     -4.483  0.0000E+00  0.6000E+01
     -4.355  0.0000E+00  0.6000E+01
     -4.227  0.0000E+00  0.6000E+01
     -4.099  0.5207E-16  0.6000E+01
     -3.971  0.6773E-01  0.6009E+01
     -3.843  0.8658E-01  0.6025E+01
     -3.715  0.4236E-01  0.6059E+01
     -3.587  0.2502E+00  0.6113E+01
     -3.459  0.2378E+00  0.6155E+01
     -3.331  0.6359E+00  0.6246E+01
     -3.203  0.3692E+00  0.6305E+01
     -3.074  0.4467E+00  0.6431E+01
     -2.946  0.4959E+00  0.6552E+01
     -2.818  0.1072E+01  0.6724E+01
     -2.690  0.9472E+00  0.6978E+01
     -2.562  0.3005E+01  0.7517E+01
     -2.434  0.1279E+01  0.8000E+01
     -2.306  0.0000E+00  0.8000E+01
     -2.178  0.0000E+00  0.8000E+01
     -2.050  0.0000E+00  0.8000E+01
     -1.922  0.0000E+00  0.8000E+01
     -1.793  0.0000E+00  0.8000E+01
     -1.665  0.0000E+00  0.8000E+01
     -1.537  0.0000E+00  0.8000E+01
     -1.409  0.0000E+00  0.8000E+01
     -1.281  0.0000E+00  0.8000E+01
     -1.153  0.0000E+00  0.8000E+01
     -1.025  0.0000E+00  0.8000E+01
     -0.897  0.0000E+00  0.8000E+01
     -0.769  0.0000E+00  0.8000E+01
     -0.641  0.0000E+00  0.8000E+01
     -0.513  0.0000E+00  0.8000E+01
     -0.384  0.0000E+00  0.8000E+01
     -0.256  0.0000E+00  0.8000E+01
     -0.128  0.0000E+00  0.8000E+01
     -0.000  0.0000E+00  0.8000E+01
      0.128  0.0000E+00  0.8000E+01
      0.256  0.0000E+00  0.8000E+01
      0.384  0.0000E+00  0.8000E+01
      0.512  0.0000E+00  0.8000E+01
      0.640  0.0000E+00  0.8000E+01
      0.768  0.0000E+00  0.8000E+01
      0.897  0.0000E+00  0.8000E+01
      1.025  0.1741E+00  0.8022E+01
      1.153  0.6779E+00  0.8116E+01
      1.281  0.1691E+01  0.8377E+01
      1.409  0.2897E+01  0.9008E+01
      1.537  0.2039E+01  0.9417E+01
      1.665  0.1443E+01  0.9718E+01
      1.793  0.8749E+00  0.9838E+01
      1.921  0.8528E-01  0.9868E+01
      2.049  0.2701E+00  0.9924E+01
      2.177  0.1706E+00  0.9946E+01
      2.306  0.5348E+00  0.1004E+02
      2.434  0.3693E+01  0.1062E+02
      2.562  0.4136E+01  0.1162E+02
      2.690  0.4042E+01  0.1233E+02
      2.818  0.2791E+01  0.1299E+02
      2.946  0.1441E+01  0.1345E+02
      3.074  0.1677E+01  0.1384E+02
      3.202  0.8458E+00  0.1403E+02
      3.330  0.9434E+00  0.1426E+02
      3.458  0.2304E+01  0.1476E+02
      3.587  0.4326E+01  0.1554E+02
      3.715  0.4595E+01  0.1666E+02
      3.843  0.5720E+01  0.1791E+02
      3.971  0.3097E+01  0.1854E+02
      4.099  0.2589E+01  0.1921E+02
      4.227  0.1489E+01  0.1955E+02
      4.355  0.7187E+00  0.1967E+02
      4.483  0.4626E+00  0.1980E+02
      4.611  0.7904E+00  0.1997E+02
      4.739  0.8910E+00  0.2010E+02
      4.867  0.7568E+00  0.2037E+02
      4.996  0.8505E+00  0.2055E+02
      5.124  0.5860E+00  0.2064E+02
      5.252  0.1140E+01  0.2093E+02
      5.380  0.8500E+00  0.2112E+02
      5.508  0.1495E+01  0.2138E+02
      5.636  0.1244E+01  0.2164E+02
      5.764  0.3875E+01  0.2231E+02
      5.892  0.1271E+01  0.2266E+02
      6.020  0.2212E+01  0.2307E+02
      6.148  0.1887E+01  0.2342E+02
      6.277  0.9662E+00  0.2363E+02
      6.405  0.8453E+00  0.2379E+02
      6.533  0.5766E+00  0.2387E+02
      6.661  0.1031E-01  0.2393E+02
      6.789  0.8528E-01  0.2397E+02
      6.917  0.2094E-01  0.2400E+02
      7.045  0.0000E+00  0.2400E+02
      7.173  0.0000E+00  0.2400E+02
      7.301  0.7107E-02  0.2400E+02
      7.429  0.0000E+00  0.2400E+02
      7.557  0.3774E-03  0.2400E+02
      7.686  0.4206E-01  0.2401E+02
      7.814  0.2735E-03  0.2401E+02
      7.942  0.5618E+00  0.2411E+02
      8.070  0.6953E+00  0.2422E+02
      8.198  0.9554E+00  0.2442E+02
      8.326  0.9622E+00  0.2463E+02
      8.454  0.1289E+01  0.2492E+02
      8.582  0.2208E+01  0.2537E+02
      8.710  0.3023E+01  0.2588E+02
      8.838  0.1387E+01  0.2619E+02
      8.967  0.1556E+01  0.2654E+02
      9.095  0.2391E+01  0.2701E+02
      9.223  0.4455E+01  0.2772E+02
      9.351  0.2495E+01  0.2837E+02
      9.479  0.2704E+01  0.2890E+02
      9.607  0.3889E+01  0.2961E+02
      9.735  0.7442E+00  0.2987E+02
      9.863  0.1878E+01  0.3022E+02
      9.991  0.1936E+01  0.3052E+02
     10.119  0.1993E+01  0.3091E+02
     10.247  0.2256E+01  0.3133E+02
     10.376  0.1690E+01  0.3168E+02
     10.504  0.8086E+00  0.3185E+02
     10.632  0.7747E+00  0.3197E+02
     10.760  0.1706E+00  0.3199E+02
     10.888  0.0000E+00  0.3199E+02
     11.016  0.1272E-11  0.3199E+02
     11.144  0.0000E+00  0.3200E+02
     11.272  0.0000E+00  0.3200E+02
     11.400  0.0000E+00  0.3200E+02
     11.528  0.0000E+00  0.3200E+02
     11.657  0.0000E+00  0.3200E+02
     11.785  0.0000E+00  0.3200E+02
     11.913  0.0000E+00  0.3200E+02
     12.041  0.0000E+00  0.3200E+02
     12.169  0.0000E+00  0.3200E+02
     12.297  0.0000E+00  0.3200E+02
     12.425  0.0000E+00  0.3200E+02
     12.553  0.0000E+00  0.3200E+02
     12.681  0.0000E+00  0.3200E+02
     12.809  0.0000E+00  0.3200E+02
