    3    3    1    1
  0.2225975E+02  0.4553921E-09  0.4553921E-09  0.4553921E-09  0.5000000E-15
  1.000000000000000E-004
  CAR
 unknown system
     25     84     16

  0.0000000E+00  0.0000000E+00  0.0000000E+00  0.4551661E-03
    1      -23.857225   1.000000
    2      -23.857225   1.000000
    3      -23.857225   1.000000
    4       -4.044809   1.000000
    5        2.631211   1.000000
    6        2.631211   1.000000
    7        2.631211   1.000000
    8        3.443122   1.000000
    9        3.443122   1.000000
   10        6.902146   1.000000
   11        6.902146   1.000000
   12        6.902146   1.000000
   13        7.260254   1.000000
   14        9.308220   0.000000
   15        9.308220   0.000000
   16        9.308220   0.000000

  0.7692308E-01  0.6851239E-18 -0.1526810E-17  0.3641329E-02
    1      -23.858097   1.000000
    2      -23.857207   1.000000
    3      -23.857207   1.000000
    4       -3.983550   1.000000
    5        2.550336   1.000000
    6        2.607537   1.000000
    7        2.607537   1.000000
    8        3.478925   1.000000
    9        3.478925   1.000000
   10        6.309050   1.000000
   11        6.836038   1.000000
   12        6.836038   1.000000
   13        7.574985   1.000000
   14        9.149991   0.000000
   15        9.149991   0.000000
   16        9.658671   0.000000

  0.1538462E+00  0.4095308E-17 -0.5778680E-17  0.3641329E-02
    1      -23.860471   1.000000
    2      -23.857130   1.000000
    3      -23.857130   1.000000
    4       -3.806071   1.000000
    5        2.326712   1.000000
    6        2.556626   1.000000
    7        2.556626   1.000000
    8        3.559716   1.000000
    9        3.559716   1.000000
   10        5.483566   1.000000
   11        6.670271   1.000000
   12        6.670271   1.000000
   13        7.832002   1.000000
   14        9.057910   0.000000
   15        9.057910   0.000000
   16       10.431483   0.000000

  0.2307692E+00 -0.8055657E-18 -0.1719493E-17  0.3641329E-02
    1      -23.863803   1.000000
    2      -23.857035   1.000000
    3      -23.857035   1.000000
    4       -3.532682   1.000000
    5        2.000509   1.000000
    6        2.510664   1.000000
    7        2.510664   1.000000
    8        3.636664   1.000000
    9        3.636664   1.000000
   10        4.733748   1.000000
   11        6.475937   1.000000
   12        6.475937   1.000000
   13        8.033091   1.000000
   14        9.093389   0.000000
   15        9.093389   0.000000
   16       11.062627   0.000000

  0.3076923E+00  0.8190616E-17 -0.1155736E-16  0.3641329E-02
    1      -23.867302   1.000000
    2      -23.856929   1.000000
    3      -23.856929   1.000000
    4       -3.202380   1.000000
    5        1.617614   1.000000
    6        2.486168   1.000000
    7        2.486168   1.000000
    8        3.676609   1.000000
    9        3.676609   1.000000
   10        4.156403   1.000000
   11        6.314823   1.000000
   12        6.314823   1.000000
   13        8.214167   1.000000
   14        9.223419   0.000000
   15        9.223419   0.000000
   16       10.623596   0.000000

  0.3846154E+00  0.8701328E-17 -0.1290976E-16  0.3641329E-02
    1      -23.870184   1.000000
    2      -23.856837   1.000000
    3      -23.856837   1.000000
    4       -2.882134   1.000000
    5        1.249188   1.000000
    6        2.482245   1.000000
    7        2.482245   1.000000
    8        3.677355   1.000000
    9        3.677355   1.000000
   10        3.784184   1.000000
   11        6.213861   1.000000
   12        6.213861   1.000000
   13        8.392826   1.000000
   14        9.398550   0.000000
   15        9.398550   0.000000
   16        9.916131   0.000000

  0.4615385E+00 -0.7003450E-17  0.1953332E-17  0.3641329E-02
    1      -23.871807   1.000000
    2      -23.856791   1.000000
    3      -23.856791   1.000000
    4       -2.673163   1.000000
    5        1.009874   1.000000
    6        2.486572   1.000000
    7        2.486572   1.000000
    8        3.607173   1.000000
    9        3.664286   1.000000
   10        3.664286   1.000000
   11        6.169219   1.000000
   12        6.169219   1.000000
   13        8.556659   0.000000
   14        9.447180   0.000000
   15        9.535029   0.000000
   16        9.535029   0.000000

  0.7692308E-01  0.7692308E-01 -0.5155754E-17  0.2730997E-02
    1      -23.858075   1.000000
    2      -23.857346   1.000000
    3      -23.857346   1.000000
    4       -3.963470   1.000000
    5        2.420774   1.000000
    6        2.660686   1.000000
    7        2.660686   1.000000
    8        3.474648   1.000000
    9        3.491952   1.000000
   10        6.332231   1.000000
   11        6.709736   1.000000
   12        6.709736   1.000000
   13        7.669959   1.000000
   14        9.003294   0.000000
   15        9.540481   0.000000
   16        9.581095   0.000000

  0.1538462E+00  0.7692308E-01 -0.3229450E-17  0.1092399E-01
    1      -23.859840   1.000000
    2      -23.857429   1.000000
    3      -23.857277   1.000000
    4       -3.825833   1.000000
    5        2.211678   1.000000
    6        2.639139   1.000000
    7        2.666403   1.000000
    8        3.533983   1.000000
    9        3.542535   1.000000
   10        5.718179   1.000000
   11        6.520795   1.000000
   12        6.575738   1.000000
   13        7.928328   1.000000
   14        8.866644   0.000000
   15        9.307026   0.000000
   16       10.036691   0.000000

  0.2307692E+00  0.7692308E-01 -0.7462053E-17  0.1092399E-01
    1      -23.862797   1.000000
    2      -23.857423   1.000000
    3      -23.857173   1.000000
    4       -3.586223   1.000000
    5        1.959936   1.000000
    6        2.555835   1.000000
    7        2.642735   1.000000
    8        3.612288   1.000000
    9        3.614315   1.000000
   10        4.979833   1.000000
   11        6.336352   1.000000
   12        6.400145   1.000000
   13        8.204998   1.000000
   14        8.873954   0.000000
   15        9.203998   0.000000
   16       10.575320   0.000000

  0.3076923E+00  0.7692308E-01 -0.3422133E-17  0.1092399E-01
    1      -23.866162   1.000000
    2      -23.857336   1.000000
    3      -23.857136   1.000000
    4       -3.277083   1.000000
    5        1.661920   1.000000
    6        2.478629   1.000000
    7        2.613010   1.000000
    8        3.666128   1.000000
    9        3.667490   1.000000
   10        4.349365   1.000000
   11        6.200544   1.000000
   12        6.226760   1.000000
   13        8.337714   1.000000
   14        9.113369   0.000000
   15        9.224685   0.000000
   16       10.693711   0.000000

  0.3846154E+00  0.7692308E-01 -0.1865232E-16  0.1092399E-01
    1      -23.869171   1.000000
    2      -23.857195   1.000000
    3      -23.857194   1.000000
    4       -2.954743   1.000000
    5        1.345481   1.000000
    6        2.442580   1.000000
    7        2.583383   1.000000
    8        3.678292   1.000000
    9        3.680813   1.000000
   10        3.911104   1.000000
   11        6.096528   1.000000
   12        6.126572   1.000000
   13        8.425504   1.000000
   14        9.346863   0.000000
   15        9.414818   0.000000
   16       10.087722   0.000000

  0.4615385E+00  0.7692308E-01 -0.9200813E-17  0.1092399E-01
    1      -23.871142   1.000000
    2      -23.857311   1.000000
    3      -23.857019   1.000000
    4       -2.706805   1.000000
    5        1.094653   1.000000
    6        2.449565   1.000000
    7        2.546853   1.000000
    8        3.610999   1.000000
    9        3.678433   1.000000
   10        3.723809   1.000000
   11        6.018098   1.000000
   12        6.103062   1.000000
   13        8.552683   0.000000
   14        9.436112   0.000000
   15        9.500821   0.000000
   16        9.752284   0.000000

 -0.4615385E+00  0.7692308E-01  0.1464810E-16  0.1092399E-01
    1      -23.871653   1.000000
    2      -23.857465   1.000000
    3      -23.856853   1.000000
    4       -2.634133   1.000000
    5        1.021037   1.000000
    6        2.486940   1.000000
    7        2.498310   1.000000
    8        3.560817   1.000000
    9        3.688056   1.000000
   10        3.700243   1.000000
   11        5.977106   1.000000
   12        6.118724   1.000000
   13        8.640038   0.000000
   14        9.257009   0.000000
   15        9.561716   0.000000
   16        9.809563   0.000000

 -0.3846154E+00  0.7692308E-01  0.1257878E-16  0.1092399E-01
    1      -23.870599   1.000000
    2      -23.857623   1.000000
    3      -23.856738   1.000000
    4       -2.774092   1.000000
    5        1.167979   1.000000
    6        2.447165   1.000000
    7        2.540214   1.000000
    8        3.617082   1.000000
    9        3.709250   1.000000
   10        3.760131   1.000000
   11        5.958278   1.000000
   12        6.179148   1.000000
   13        8.543862   0.000000
   14        9.460278   0.000000
   15        9.465684   0.000000
   16        9.809822   0.000000

 -0.3076923E+00  0.7692308E-01  0.1122639E-16  0.1092399E-01
    1      -23.868201   1.000000
    2      -23.857730   1.000000
    3      -23.856691   1.000000
    4       -3.058257   1.000000
    5        1.462962   1.000000
    6        2.413058   1.000000
    7        2.599083   1.000000
    8        3.645772   1.000000
    9        3.716894   1.000000
   10        4.039999   1.000000
   11        5.966446   1.000000
   12        6.299729   1.000000
   13        8.444076   0.999984
   14        9.262297   0.000000
   15        9.371709   0.000000
   16       10.307371   0.000000

 -0.2307692E+00  0.7692308E-01  0.9854721E-17  0.1092399E-01
    1      -23.865017   1.000000
    2      -23.857771   1.000000
    3      -23.856738   1.000000
    4       -3.384408   1.000000
    5        1.801171   1.000000
    6        2.412908   1.000000
    7        2.655960   1.000000
    8        3.625341   1.000000
    9        3.688182   1.000000
   10        4.543282   1.000000
   11        6.028854   1.000000
   12        6.481493   1.000000
   13        8.355684   1.000000
   14        9.058742   0.000000
   15        9.204646   0.000000
   16       10.581106   0.000000

 -0.1538462E+00  0.7692308E-01  0.3612060E-19  0.1092399E-01
    1      -23.861768   1.000000
    2      -23.857704   1.000000
    3      -23.856858   1.000000
    4       -3.675412   1.000000
    5        2.116734   1.000000
    6        2.453102   1.000000
    7        2.695868   1.000000
    8        3.566931   1.000000
    9        3.622285   1.000000
   10        5.210458   1.000000
   11        6.180172   1.000000
   12        6.686189   1.000000
   13        8.167402   1.000000
   14        8.922300   0.000000
   15        9.184598   0.000000
   16       10.124012   0.000000

 -0.7692308E-01  0.7692308E-01  0.4076041E-17  0.5461994E-02
    1      -23.859264   1.000000
    2      -23.857499   1.000000
    3      -23.857029   1.000000
    4       -3.883897   1.000000
    5        2.378376   1.000000
    6        2.526093   1.000000
    7        2.685388   1.000000
    8        3.505539   1.000000
    9        3.540640   1.000000
   10        5.886961   1.000000
   11        6.473285   1.000000
   12        6.830594   1.000000
   13        7.849063   1.000000
   14        8.931691   0.000000
   15        9.293103   0.000000
   16        9.709268   0.000000

  0.1538462E+00  0.1538462E+00 -0.1031151E-16  0.2730997E-02
    1      -23.860445   1.000000
    2      -23.857681   1.000000
    3      -23.857681   1.000000
    4       -3.732434   1.000000
    5        1.974633   1.000000
    6        2.744473   1.000000
    7        2.744473   1.000000
    8        3.521792   1.000000
    9        3.564931   1.000000
   10        5.659647   1.000000
   11        6.316592   1.000000
   12        6.316592   1.000000
   13        7.933027   1.000000
   14        8.841256   0.000000
   15        9.362924   0.000000
   16       10.156216   0.000000

  0.2307692E+00  0.1538462E+00 -0.1877134E-16  0.1092399E-01
    1      -23.862622   1.000000
    2      -23.857824   1.000000
    3      -23.857769   1.000000
    4       -3.537538   1.000000
    5        1.744288   1.000000
    6        2.738405   1.000000
    7        2.774075   1.000000
    8        3.538870   1.000000
    9        3.636241   1.000000
   10        5.171068   1.000000
   11        6.120064   1.000000
   12        6.129501   1.000000
   13        8.166467   1.000000
   14        8.807968   0.000000
   15        9.235193   0.000000
   16       10.478476   0.000000

  0.3076923E+00  0.1538462E+00 -0.1185122E-16  0.1092399E-01
    1      -23.865460   1.000000
    2      -23.857913   1.000000
    3      -23.857844   1.000000
    4       -3.268513   1.000000
    5        1.536737   1.000000
    6        2.644281   1.000000
    7        2.766756   1.000000
    8        3.594080   1.000000
    9        3.698584   1.000000
   10        4.573104   1.000000
   11        5.922615   1.000000
   12        6.004098   1.000000
   13        8.409887   1.000000
   14        9.004837   0.000000
   15        9.176793   0.000000
   16       10.601916   0.000000

  0.3846154E+00  0.1538462E+00 -0.1049782E-16  0.1092399E-01
    1      -23.868135   1.000000
    2      -23.858228   1.000000
    3      -23.857711   1.000000
    4       -2.972828   1.000000
    5        1.354401   1.000000
    6        2.530070   1.000000
    7        2.732481   1.000000
    8        3.641101   1.000000
    9        3.724174   1.000000
   10        4.075010   1.000000
   11        5.759543   1.000000
   12        5.949116   1.000000
   13        8.432219   1.000000
   14        9.248764   0.000000
   15        9.499667   0.000000
   16       10.175470   0.000000

  0.4615385E+00  0.1538462E+00 -0.1492411E-16  0.1092399E-01
    1      -23.870049   1.000000
    2      -23.858680   1.000000
    3      -23.857478   1.000000
    4       -2.721719   1.000000
    5        1.208749   1.000000
    6        2.452229   1.000000
    7        2.669471   1.000000
    8        3.601804   1.000000
    9        3.730893   1.000000
   10        3.816162   1.000000
   11        5.645265   1.000000
   12        5.943654   1.000000
   13        8.483628   0.075053
   14        9.424789   0.000000
   15        9.587330   0.000000
   16        9.967443   0.000000

 -0.4615385E+00  0.1538462E+00  0.8924806E-17  0.1092399E-01
    1      -23.870770   1.000000
    2      -23.859130   1.000000
    3      -23.857184   1.000000
    4       -2.599845   1.000000
    5        1.140389   1.000000
    6        2.446159   1.000000
    7        2.580153   1.000000
    8        3.505740   1.000000
    9        3.746156   1.000000
   10        3.791770   1.000000
   11        5.567497   1.000000
   12        5.970855   1.000000
   13        8.618255   0.000000
   14        9.223658   0.000000
   15        9.575892   0.000000
   16       10.224987   0.000000

 -0.3846154E+00  0.1538462E+00 -0.2090008E-16  0.1092399E-01
    1      -23.870201   1.000000
    2      -23.859458   1.000000
    3      -23.856910   1.000000
    4       -2.659748   1.000000
    5        1.191412   1.000000
    6        2.483476   1.000000
    7        2.517974   1.000000
    8        3.521249   1.000000
    9        3.769109   1.000000
   10        3.841960   1.000000
   11        5.500770   1.000000
   12        6.038654   1.000000
   13        8.684869   0.000000
   14        9.284186   0.000000
   15        9.549318   0.000000
   16       10.216563   0.000000

 -0.3076923E+00  0.1538462E+00 -0.5320077E-17  0.1092399E-01
    1      -23.868501   1.000000
    2      -23.859520   1.000000
    3      -23.856705   1.000000
    4       -2.874984   1.000000
    5        1.352607   1.000000
    6        2.406311   1.000000
    7        2.637013   1.000000
    8        3.589447   1.000000
    9        3.776831   1.000000
   10        4.025441   1.000000
   11        5.441635   1.000000
   12        6.165693   1.000000
   13        8.686196   0.000000
   14        9.373696   0.000000
   15        9.627908   0.000000
   16       10.101931   0.000000

 -0.2307692E+00  0.1538462E+00  0.4131428E-17  0.1092399E-01
    1      -23.866127   1.000000
    2      -23.859230   1.000000
    3      -23.856617   1.000000
    4       -3.164989   1.000000
    5        1.581887   1.000000
    6        2.370226   1.000000
    7        2.743059   1.000000
    8        3.609489   1.000000
    9        3.751369   1.000000
   10        4.412717   1.000000
   11        5.444154   1.000000
   12        6.351623   1.000000
   13        8.759214   0.000000
   14        9.154315   0.000000
   15        9.425427   0.000000
   16       10.262428   0.000000

 -0.1538462E+00  0.1538462E+00  0.8190616E-17  0.5461994E-02
    1      -23.863710   1.000000
    2      -23.858578   1.000000
    3      -23.856677   1.000000
    4       -3.450452   1.000000
    5        1.845918   1.000000
    6        2.386128   1.000000
    7        2.775045   1.000000
    8        3.587511   1.000000
    9        3.694213   1.000000
   10        4.875728   1.000000
   11        5.649763   1.000000
   12        6.553946   1.000000
   13        8.658855   0.000000
   14        8.974905   0.000000
   15        9.178884   0.000000
   16       10.096068   0.000000

  0.2307692E+00  0.2307692E+00 -0.1546726E-16  0.2730997E-02
    1      -23.863847   1.000000
    2      -23.858151   1.000000
    3      -23.858151   1.000000
    4       -3.394138   1.000000
    5        1.532285   1.000000
    6        2.868021   1.000000
    7        2.868021   1.000000
    8        3.456943   1.000000
    9        3.700423   1.000000
   10        5.062084   1.000000
   11        5.930141   1.000000
   12        5.930141   1.000000
   13        7.982834   1.000000
   14        8.897966   0.000000
   15        9.133898   0.000000
   16       10.592693   0.000000

  0.3076923E+00  0.2307692E+00 -0.1912109E-16  0.1092399E-01
    1      -23.865962   1.000000
    2      -23.858448   1.000000
    3      -23.858314   1.000000
    4       -3.179120   1.000000
    5        1.375000   1.000000
    6        2.853481   1.000000
    7        2.909105   1.000000
    8        3.459990   1.000000
    9        3.770281   1.000000
   10        4.668977   1.000000
   11        5.716486   1.000000
   12        5.793593   1.000000
   13        8.118485   1.000000
   14        9.028433   0.000000
   15        9.036077   0.000000
   16       10.600350   0.000000

  0.3846154E+00  0.2307692E+00 -0.8123005E-17  0.1092399E-01
    1      -23.868019   1.000000
    2      -23.859040   1.000000
    3      -23.858287   1.000000
    4       -2.932426   1.000000
    5        1.291685   1.000000
    6        2.719057   1.000000
    7        2.897648   1.000000
    8        3.544878   1.000000
    9        3.807099   1.000000
   10        4.204219   1.000000
   11        5.473061   1.000000
   12        5.738577   1.000000
   13        8.251067   1.000000
   14        9.060833   0.000000
   15        9.450974   0.000000
   16       10.261621   0.000000

  0.4615385E+00  0.2307692E+00 -0.1377292E-17  0.1092399E-01
    1      -23.869398   1.000000
    2      -23.859961   1.000000
    3      -23.858079   1.000000
    4       -2.709890   1.000000
    5        1.282638   1.000000
    6        2.557289   1.000000
    7        2.831923   1.000000
    8        3.570745   1.000000
    9        3.818145   1.000000
   10        3.887459   1.000000
   11        5.270983   1.000000
   12        5.741169   1.000000
   13        8.305800   1.000000
   14        9.250025   0.000000
   15        9.752304   0.000000
   16       10.027635   0.000000

 -0.4615385E+00  0.2307692E+00  0.2552624E-16  0.1092399E-01
    1      -23.869789   1.000000
    2      -23.860990   1.000000
    3      -23.857723   1.000000
    4       -2.573298   1.000000
    5        1.317331   1.000000
    6        2.435091   1.000000
    7        2.718701   1.000000
    8        3.434301   1.000000
    9        3.830827   1.000000
   10        3.891984   1.000000
   11        5.126581   1.000000
   12        5.774943   1.000000
   13        8.417985   1.000000
   14        9.349247   0.000000
   15        9.529898   0.000000
   16       10.334493   0.000000

 -0.3846154E+00  0.2307692E+00 -0.1512182E-16  0.1092399E-01
    1      -23.869243   1.000000
    2      -23.861755   1.000000
    3      -23.857310   1.000000
    4       -2.567543   1.000000
    5        1.341025   1.000000
    6        2.429956   1.000000
    7        2.585318   1.000000
    8        3.401805   1.000000
    9        3.845355   1.000000
   10        3.982009   1.000000
   11        5.026660   1.000000
   12        5.845779   1.000000
   13        8.607731   0.000000
   14        9.178819   0.000000
   15        9.647646   0.000000
   16       10.295953   0.000000

 -0.3076923E+00  0.2307692E+00  0.2210452E-16  0.1092399E-01
    1      -23.868185   1.000000
    2      -23.861810   1.000000
    3      -23.856938   1.000000
    4       -2.695702   1.000000
    5        1.356427   1.000000
    6        2.466555   1.000000
    7        2.549329   1.000000
    8        3.487387   1.000000
    9        3.841647   1.000000
   10        4.111132   1.000000
   11        4.971095   1.000000
   12        5.973666   1.000000
   13        8.726730   0.000000
   14        9.433478   0.000000
   15        9.530291   0.000000
   16       10.200795   0.000000

 -0.2307692E+00  0.2307692E+00 -0.1611131E-17  0.5461994E-02
    1      -23.867122   1.000000
    2      -23.860841   1.000000
    3      -23.856691   1.000000
    4       -2.915939   1.000000
    5        1.426855   1.000000
    6        2.389623   1.000000
    7        2.690293   1.000000
    8        3.576652   1.000000
    9        3.808090   1.000000
   10        4.280941   1.000000
   11        5.058075   1.000000
   12        6.156549   1.000000
   13        8.794922   0.000000
   14        9.335155   0.000000
   15        9.873234   0.000000
   16       10.090609   0.000000

  0.3076923E+00  0.3076923E+00 -0.2062302E-16  0.2730997E-02
    1      -23.867532   1.000000
    2      -23.858653   1.000000
    3      -23.858653   1.000000
    4       -3.027085   1.000000
    5        1.264908   1.000000
    6        3.005936   1.000000
    7        3.005936   1.000000
    8        3.322798   1.000000
    9        3.856854   1.000000
   10        4.479111   1.000000
   11        5.631103   1.000000
   12        5.631103   1.000000
   13        7.938208   1.000000
   14        8.877992   0.000000
   15        9.072085   0.000000
   16       10.549081   0.000000

  0.3846154E+00  0.3076923E+00 -0.1925788E-16  0.1092399E-01
    1      -23.869168   1.000000
    2      -23.859112   1.000000
    3      -23.858782   1.000000
    4       -2.844827   1.000000
    5        1.244494   1.000000
    6        2.931646   1.000000
    7        3.039451   1.000000
    8        3.379206   1.000000
    9        3.912891   1.000000
   10        4.129638   1.000000
   11        5.424535   1.000000
   12        5.553715   1.000000
   13        8.001979   1.000000
   14        8.823587   0.000000
   15        9.287807   0.000000
   16       10.299567   0.000000

  0.4615385E+00  0.3076923E+00 -0.2909575E-16  0.1092399E-01
    1      -23.870074   1.000000
    2      -23.860127   1.000000
    3      -23.858666   1.000000
    4       -2.673911   1.000000
    5        1.322042   1.000000
    6        2.739791   1.000000
    7        2.999436   1.000000
    8        3.486618   1.000000
    9        3.822465   1.000000
   10        3.927781   1.000000
   11        5.129393   1.000000
   12        5.549474   1.000000
   13        8.089019   1.000000
   14        8.962109   0.000000
   15        9.750448   0.000000
   16        9.978517   0.000000

 -0.4615385E+00  0.3076923E+00 -0.2488504E-16  0.1092399E-01
    1      -23.869911   1.000000
    2      -23.861614   1.000000
    3      -23.858330   1.000000
    4       -2.554634   1.000000
    5        1.461768   1.000000
    6        2.533687   1.000000
    7        2.888300   1.000000
    8        3.334056   1.000000
    9        3.893072   1.000000
   10        3.928377   1.000000
   11        4.863116   1.000000
   12        5.585111   1.000000
   13        8.187036   1.000000
   14        9.311211   0.000000
   15        9.498471   0.000000
   16       10.149827   0.000000

 -0.3846154E+00  0.3076923E+00 -0.2084512E-16  0.1092399E-01
    1      -23.868848   1.000000
    2      -23.863121   1.000000
    3      -23.857861   1.000000
    4       -2.514983   1.000000
    5        1.546690   1.000000
    6        2.377594   1.000000
    7        2.735648   1.000000
    8        3.262085   1.000000
    9        3.921742   1.000000
   10        4.085502   1.000000
   11        4.678364   1.000000
   12        5.659653   1.000000
   13        8.366920   1.000000
   14        9.244441   0.000000
   15        9.707846   0.000000
   16       10.143089   0.000000

 -0.3076923E+00  0.3076923E+00  0.1638123E-16  0.5461994E-02
    1      -23.867917   1.000000
    2      -23.863504   1.000000
    3      -23.857359   1.000000
    4       -2.565284   1.000000
    5        1.464839   1.000000
    6        2.413124   1.000000
    7        2.583583   1.000000
    8        3.349971   1.000000
    9        3.894070   1.000000
   10        4.188335   1.000000
   11        4.676612   1.000000
   12        5.790927   1.000000
   13        8.602773   0.000000
   14        9.192880   0.000000
   15        9.686351   0.000000
   16       10.078243   0.000000

  0.3846154E+00  0.3846154E+00 -0.2577877E-16  0.2730997E-02
    1      -23.870651   1.000000
    2      -23.859073   1.000000
    3      -23.859073   1.000000
    4       -2.733341   1.000000
    5        1.268396   1.000000
    6        3.124781   1.000000
    7        3.124781   1.000000
    8        3.187693   1.000000
    9        3.861342   1.000000
   10        3.998746   1.000000
   11        5.441606   1.000000
   12        5.441606   1.000000
   13        7.879150   1.000000
   14        8.653571   0.000000
   15        9.178782   0.000000
   16       10.242805   0.000000

  0.4615385E+00  0.3846154E+00 -0.3077962E-16  0.1092399E-01
    1      -23.871481   1.000000
    2      -23.859582   1.000000
    3      -23.859106   1.000000
    4       -2.626057   1.000000
    5        1.374795   1.000000
    6        2.946914   1.000000
    7        3.131529   1.000000
    8        3.340519   1.000000
    9        3.579382   1.000000
   10        4.029888   1.000000
   11        5.260169   1.000000
   12        5.413301   1.000000
   13        7.913053   1.000000
   14        8.668072   0.000000
   15        9.366877   0.000000
   16       10.030367   0.000000

 -0.4615385E+00  0.3846154E+00  0.2539564E-17  0.1092399E-01
    1      -23.871224   1.000000
    2      -23.860784   1.000000
    3      -23.858873   1.000000
    4       -2.546552   1.000000
    5        1.525860   1.000000
    6        2.739616   1.000000
    7        3.051338   1.000000
    8        3.218653   1.000000
    9        3.690220   1.000000
   10        4.018218   1.000000
   11        4.952261   1.000000
   12        5.443046   1.000000
   13        7.999411   1.000000
   14        8.924552   0.000000
   15        9.601435   0.000000
   16       10.030544   0.000000

 -0.3846154E+00  0.3846154E+00  0.1740266E-16  0.5461994E-02
    1      -23.869999   1.000000
    2      -23.862324   1.000000
    3      -23.858420   1.000000
    4       -2.508002   1.000000
    5        1.626036   1.000000
    6        2.499788   1.000000
    7        2.904925   1.000000
    8        3.161237   1.000000
    9        3.949063   1.000000
   10        3.981752   1.000000
   11        4.689368   1.000000
   12        5.521786   1.000000
   13        8.144508   1.000000
   14        9.386083   0.000000
   15        9.410713   0.000000
   16        9.928365   0.000000

  0.4615385E+00  0.4615385E+00 -0.3093452E-16  0.2730997E-02
    1      -23.872437   1.000000
    2      -23.859308   1.000000
    3      -23.859308   1.000000
    4       -2.582303   1.000000
    5        1.452763   1.000000
    6        3.133000   1.000000
    7        3.193064   1.000000
    8        3.193064   1.000000
    9        3.326662   1.000000
   10        4.084849   1.000000
   11        5.354841   1.000000
   12        5.354841   1.000000
   13        7.840503   1.000000
   14        8.520850   0.000000
   15        9.148364   0.000000
   16       10.016559   0.000000

 -0.4615385E+00  0.4615385E+00 -0.1400690E-16  0.5461994E-02
    1      -23.872325   1.000000
    2      -23.859754   1.000000
    3      -23.859221   1.000000
    4       -2.554576   1.000000
    5        1.517646   1.000000
    6        2.973183   1.000000
    7        3.164165   1.000000
    8        3.169315   1.000000
    9        3.426897   1.000000
   10        4.076993   1.000000
   11        5.209251   1.000000
   12        5.366878   1.000000
   13        7.880682   1.000000
   14        8.612063   0.000000
   15        9.335604   0.000000
   16        9.931497   0.000000

  0.2307692E+00  0.1538462E+00  0.7692308E-01  0.1092399E-01
    1      -23.861587   1.000000
    2      -23.857916   1.000000
    3      -23.857128   1.000000
    4       -3.658371   1.000000
    5        1.974653   1.000000
    6        2.578073   1.000000
    7        2.753999   1.000000
    8        3.556636   1.000000
    9        3.608643   1.000000
   10        5.328771   1.000000
   11        6.059460   1.000000
   12        6.537279   1.000000
   13        8.237075   1.000000
   14        8.792776   0.000000
   15        9.269671   0.000000
   16       10.101191   0.000000

  0.3076923E+00  0.1538462E+00  0.7692308E-01  0.2184797E-01
    1      -23.864246   1.000000
    2      -23.858316   1.000000
    3      -23.856995   1.000000
    4       -3.403012   1.000000
    5        1.729209   1.000000
    6        2.502521   1.000000
    7        2.761895   1.000000
    8        3.600166   1.000000