       N       E                     dE             d eps       ncg     rms          rms(c)
DAV:   1     0.137529596606E+03    0.13753E+03   -0.14173E+04  2696   0.173E+03
DAV:   2    -0.201534777704E+02   -0.15768E+03   -0.15615E+03  3384   0.335E+02
DAV:   3    -0.249491792356E+02   -0.47957E+01   -0.47555E+01  3632   0.520E+01
DAV:   4    -0.250211085678E+02   -0.71929E-01   -0.70355E-01  3312   0.664E+00
DAV:   5    -0.250228077442E+02   -0.16992E-02   -0.16986E-02  3704   0.931E-01    0.399E+01
DAV:   6    -0.241926564063E+02    0.83015E+00   -0.18578E+00  3528   0.924E+00    0.246E+01
DAV:   7    -0.240512578298E+02    0.14140E+00   -0.10597E+00  3800   0.582E+00    0.354E+00
DAV:   8    -0.240294335721E+02    0.21824E-01   -0.39904E-01  3496   0.326E+00    0.952E-01
DAV:   9    -0.240185568666E+02    0.10877E-01   -0.62911E-02  2976   0.184E+00    0.283E-01
DAV:  10    -0.240185020295E+02    0.54837E-04   -0.87048E-03  3672   0.460E-01    0.267E-01
DAV:  11    -0.240183662946E+02    0.13573E-03   -0.69974E-04  3360   0.158E-01    0.571E-02
DAV:  12    -0.240183642280E+02    0.20665E-05   -0.76317E-05  3648   0.545E-02    0.146E-02
DAV:  13    -0.240183629384E+02    0.12896E-05   -0.38233E-06  3072   0.140E-02    0.814E-03
DAV:  14    -0.240183629904E+02   -0.52013E-07   -0.18316E-07  2832   0.364E-03
   1 F= -.24018363E+02 E0= -.24018196E+02  d E =-.334134E-03
