<?xml version="1.0" encoding="ISO-8859-1"?>
<modeling>
 <generator>
  <i name="program" type="string">vasp </i>
  <i name="version" type="string">6.0.8  </i>
  <i name="subversion" type="string">29Jun18 (build Jun 13 2019 12:54:44) complex                          parallel </i>
  <i name="platform" type="string">IFC18_CrayMPICH </i>
  <i name="date" type="string">2021 12 05 </i>
  <i name="time" type="string">14:21:50 </i>
 </generator>
 <incar>
  <i type="int" name="KPAR">     4</i>
  <i type="int" name="NPAR">     4</i>
  <i type="int" name="ISTART">     0</i>
  <i type="string" name="PREC"> ACC</i>
  <i type="string" name="ALGO"> Normal</i>
  <i type="logical" name="ADDGRID"> T  </i>
  <i type="int" name="ISPIN">     1</i>
  <i type="int" name="NELMIN">     5</i>
  <i type="int" name="IBRION">    -1</i>
  <i name="EDIFF">      0.00000010</i>
  <i type="int" name="NSW">     0</i>
  <i type="int" name="ISIF">     3</i>
  <i name="ENCUT">    700.00000000</i>
  <i type="logical" name="LREAL"> F  </i>
  <i type="int" name="ISMEAR">     0</i>
  <i name="SIGMA">      0.01000000</i>
  <i type="logical" name="LWAVE"> F  </i>
  <i type="logical" name="LCHARG"> F  </i>
  <i type="logical" name="LVTOT"> F  </i>
  <i type="string" name="ALGO"> Normal</i>
  <i type="string" name="GGA"> PS</i>
  <i name="EDIFF">      0.00000010</i>
  <i type="int" name="ISPIN">     1</i>
 </incar>
 <structure name="primitive_cell" >
  <crystal>
   <varray name="basis" >
    <v>       0.00000000       3.22010832       3.22010832 </v>
    <v>       3.22010832       0.00000000       3.22010832 </v>
    <v>       3.22010832       3.22010832       0.00000000 </v>
   </varray>
   <i name="volume">     66.77923502 </i>
   <varray name="rec_basis" >
    <v>      -0.15527428       0.15527428       0.15527428 </v>
    <v>       0.15527428      -0.15527428       0.15527428 </v>
    <v>       0.15527428       0.15527428      -0.15527428 </v>
   </varray>
  </crystal>
  <varray name="positions" >
   <v>       0.75000000       0.75000000       0.75000000 </v>
   <v>       0.25000000       0.25000000       0.25000000 </v>
   <v>       0.00000000       0.00000000       0.00000000 </v>
  </varray>
 </structure>
 <varray name="primitive_index" >
  <v type="int" >        1 </v>
  <v type="int" >        2 </v>
  <v type="int" >        3 </v>
 </varray>
 <kpoints>
  <generation param="Gamma">
   <v type="int" name="divisions">      13       13       13 </v>
   <v name="usershift">      0.00000000       0.00000000       0.00000000 </v>
   <v name="genvec1">      0.07692308       0.00000000      -0.00000000 </v>
   <v name="genvec2">      0.00000000       0.07692308       0.00000000 </v>
   <v name="genvec3">     -0.00000000      -0.00000000       0.07692308 </v>
   <v name="shift">      0.00000000       0.00000000       0.00000000 </v>
  </generation>
  <varray name="kpointlist" >
   <v>       0.00000000       0.00000000       0.00000000 </v>
   <v>       0.07692308       0.00000000      -0.00000000 </v>
   <v>       0.15384615       0.00000000      -0.00000000 </v>
   <v>       0.23076923      -0.00000000      -0.00000000 </v>
   <v>       0.30769231       0.00000000      -0.00000000 </v>
   <v>       0.38461538       0.00000000      -0.00000000 </v>
   <v>       0.46153846      -0.00000000       0.00000000 </v>
   <v>       0.07692308       0.07692308      -0.00000000 </v>
   <v>       0.15384615       0.07692308      -0.00000000 </v>
   <v>       0.23076923       0.07692308      -0.00000000 </v>
   <v>       0.30769231       0.07692308      -0.00000000 </v>
   <v>       0.38461538       0.07692308      -0.00000000 </v>
   <v>       0.46153846       0.07692308      -0.00000000 </v>
   <v>      -0.46153846       0.07692308       0.00000000 </v>
   <v>      -0.38461538       0.07692308       0.00000000 </v>
   <v>      -0.30769231       0.07692308       0.00000000 </v>
   <v>      -0.23076923       0.07692308       0.00000000 </v>
   <v>      -0.15384615       0.07692308       0.00000000 </v>
   <v>      -0.07692308       0.07692308       0.00000000 </v>
   <v>       0.15384615       0.15384615      -0.00000000 </v>
   <v>       0.23076923       0.15384615      -0.00000000 </v>
   <v>       0.30769231       0.15384615      -0.00000000 </v>
   <v>       0.38461538       0.15384615      -0.00000000 </v>
   <v>       0.46153846       0.15384615      -0.00000000 </v>
   <v>      -0.46153846       0.15384615       0.00000000 </v>
   <v>      -0.38461538       0.15384615      -0.00000000 </v>
   <v>      -0.30769231       0.15384615      -0.00000000 </v>
   <v>      -0.23076923       0.15384615       0.00000000 </v>
   <v>      -0.15384615       0.15384615       0.00000000 </v>
   <v>       0.23076923       0.23076923      -0.00000000 </v>
   <v>       0.30769231       0.23076923      -0.00000000 </v>
   <v>       0.38461538       0.23076923      -0.00000000 </v>
   <v>       0.46153846       0.23076923      -0.00000000 </v>
   <v>      -0.46153846       0.23076923       0.00000000 </v>
   <v>      -0.38461538       0.23076923      -0.00000000 </v>
   <v>      -0.30769231       0.23076923       0.00000000 </v>
   <v>      -0.23076923       0.23076923      -0.00000000 </v>
   <v>       0.30769231       0.30769231      -0.00000000 </v>
   <v>       0.38461538       0.30769231      -0.00000000 </v>
   <v>       0.46153846       0.30769231      -0.00000000 </v>
   <v>      -0.46153846       0.30769231      -0.00000000 </v>
   <v>      -0.38461538       0.30769231      -0.00000000 </v>
   <v>      -0.30769231       0.30769231       0.00000000 </v>
   <v>       0.38461538       0.38461538      -0.00000000 </v>
   <v>       0.46153846       0.38461538      -0.00000000 </v>
   <v>      -0.46153846       0.38461538       0.00000000 </v>
   <v>      -0.38461538       0.38461538       0.00000000 </v>
   <v>       0.46153846       0.46153846      -0.00000000 </v>
   <v>      -0.46153846       0.46153846      -0.00000000 </v>
   <v>       0.23076923       0.15384615       0.07692308 </v>
   <v>       0.30769231       0.15384615       0.07692308 </v>
   <v>       0.38461538       0.15384615       0.07692308 </v>
   <v>       0.46153846       0.15384615       0.07692308 </v>
   <v>      -0.46153846       0.15384615       0.07692308 </v>
   <v>       0.30769231       0.23076923       0.07692308 </v>
   <v>       0.38461538       0.23076923       0.07692308 </v>
   <v>       0.46153846       0.23076923       0.07692308 </v>
   <v>      -0.46153846       0.23076923       0.07692308 </v>
   <v>      -0.38461538       0.23076923       0.07692308 </v>
   <v>      -0.30769231       0.23076923       0.07692308 </v>
   <v>      -0.23076923       0.23076923       0.07692308 </v>
   <v>      -0.15384615       0.23076923       0.07692308 </v>
   <v>       0.38461538       0.30769231       0.07692308 </v>
   <v>       0.46153846       0.30769231       0.07692308 </v>
   <v>      -0.46153846       0.30769231       0.07692308 </v>
   <v>      -0.38461538       0.30769231       0.07692308 </v>
   <v>      -0.30769231       0.30769231       0.07692308 </v>
   <v>      -0.23076923       0.30769231       0.07692308 </v>
   <v>       0.46153846       0.38461538       0.07692308 </v>
   <v>      -0.46153846       0.38461538       0.07692308 </v>
   <v>      -0.38461538       0.38461538       0.07692308 </v>
   <v>      -0.30769231       0.38461538       0.07692308 </v>
   <v>      -0.46153846       0.46153846       0.07692308 </v>
   <v>      -0.38461538       0.46153846       0.07692308 </v>
   <v>       0.46153846       0.30769231       0.15384615 </v>
   <v>      -0.46153846       0.30769231       0.15384615 </v>
   <v>      -0.38461538       0.30769231       0.15384615 </v>
   <v>      -0.46153846       0.38461538       0.15384615 </v>
   <v>      -0.38461538       0.38461538       0.15384615 </v>
   <v>      -0.30769231       0.38461538       0.15384615 </v>
   <v>      -0.23076923       0.38461538       0.15384615 </v>
   <v>      -0.38461538       0.46153846       0.15384615 </v>
   <v>      -0.30769231       0.46153846       0.15384615 </v>
   <v>      -0.30769231       0.46153846       0.23076923 </v>
  </varray>
  <varray name="weights" >
   <v>       0.00045517 </v>
   <v>       0.00364133 </v>
   <v>       0.00364133 </v>
   <v>       0.00364133 </v>
   <v>       0.00364133 </v>
   <v>       0.00364133 </v>
   <v>       0.00364133 </v>
   <v>       0.00273100 </v>
   <v>       0.01092399 </v>
   <v>       0.01092399 </v>
   <v>       0.01092399 </v>
   <v>       0.01092399 </v>
   <v>       0.01092399 </v>
   <v>       0.01092399 </v>
   <v>       0.01092399 </v>
   <v>       0.01092399 </v>
   <v>       0.01092399 </v>
   <v>       0.01092399 </v>
   <v>       0.00546199 </v>
   <v>       0.00273100 </v>
   <v>       0.01092399 </v>
   <v>       0.01092399 </v>
   <v>       0.01092399 </v>
   <v>       0.01092399 </v>
   <v>       0.01092399 </v>
   <v>       0.01092399 </v>
   <v>       0.01092399 </v>
   <v>       0.01092399 </v>
   <v>       0.00546199 </v>
   <v>       0.00273100 </v>
   <v>       0.01092399 </v>
   <v>       0.01092399 </v>
   <v>       0.01092399 </v>
   <v>       0.01092399 </v>
   <v>       0.01092399 </v>
   <v>       0.01092399 </v>
   <v>       0.00546199 </v>
   <v>       0.00273100 </v>
   <v>       0.01092399 </v>
   <v>       0.01092399 </v>
   <v>       0.01092399 </v>
   <v>       0.01092399 </v>
   <v>       0.00546199 </v>
   <v>       0.00273100 </v>
   <v>       0.01092399 </v>
   <v>       0.01092399 </v>
   <v>       0.00546199 </v>
   <v>       0.00273100 </v>
   <v>       0.00546199 </v>
   <v>       0.01092399 </v>
   <v>       0.02184797 </v>
   <v>       0.02184797 </v>
   <v>       0.02184797 </v>
   <v>       0.02184797 </v>
   <v>       0.01092399 </v>
   <v>       0.02184797 </v>
   <v>       0.02184797 </v>
   <v>       0.02184797 </v>
   <v>       0.02184797 </v>
   <v>       0.02184797 </v>
   <v>       0.02184797 </v>
   <v>       0.01092399 </v>
   <v>       0.01092399 </v>
   <v>       0.02184797 </v>
   <v>       0.02184797 </v>
   <v>       0.02184797 </v>
   <v>       0.02184797 </v>
   <v>       0.01092399 </v>
   <v>       0.01092399 </v>
   <v>       0.02184797 </v>
   <v>       0.02184797 </v>
   <v>       0.01092399 </v>
   <v>       0.01092399 </v>
   <v>       0.01092399 </v>
   <v>       0.01092399 </v>
   <v>       0.02184797 </v>
   <v>       0.02184797 </v>
   <v>       0.01092399 </v>
   <v>       0.02184797 </v>
   <v>       0.02184797 </v>
   <v>       0.01092399 </v>
   <v>       0.01092399 </v>
   <v>       0.01092399 </v>
   <v>       0.01092399 </v>
  </varray>
 </kpoints>
 <parameters>
  <separator name="general" >
   <i type="string" name="SYSTEM">unknown system</i>
   <i type="logical" name="LCOMPAT"> F  </i>
  </separator>
  <separator name="electronic" >
   <i type="string" name="PREC">acc</i>
   <i name="ENMAX">    700.00000000</i>
   <i name="ENAUG">    380.87800000</i>
   <i name="EDIFF">      0.00000010</i>
   <i type="int" name="IALGO">    38</i>
   <i type="int" name="IWAVPR">    10</i>
   <i type="int" name="NBANDS">    16</i>
   <i type="int" name="NBANDSLOW">    -1</i>
   <i type="int" name="NBANDSHIGH">    -1</i>
   <i name="NELECT">     25.00000000</i>
   <i type="int" name="TURBO">     0</i>
   <i type="int" name="IRESTART">     0</i>
   <i type="int" name="NREBOOT">     0</i>
   <i type="int" name="NMIN">     0</i>
   <i name="EREF">      0.00000000</i>
   <separator name="electronic smearing" >
    <i type="int" name="ISMEAR">     0</i>
    <i name="SIGMA">      0.01000000</i>
    <i name="KSPACING">      0.50000000</i>
    <i type="logical" name="KGAMMA"> T  </i>
    <i type="logical" name="KBLOWUP"> T  </i>
   </separator>
   <separator name="electronic projectors" >
    <i type="logical" name="LREAL"> F  </i>
    <v name="ROPT">      0.00000000      0.00000000      0.00000000</v>
    <i type="int" name="LMAXPAW">  -100</i>
    <i type="int" name="LMAXMIX">     2</i>
    <i type="logical" name="NLSPLINE"> F  </i>
   </separator>
   <separator name="electronic startup" >
    <i type="int" name="ISTART">     0</i>
    <i type="int" name="ICHARG">     2</i>
    <i type="int" name="INIWAV">     1</i>
   </separator>
   <separator name="electronic spin" >
    <i type="int" name="ISPIN">     1</i>
    <i type="logical" name="LNONCOLLINEAR"> F  </i>
    <v name="MAGMOM">      1.00000000      1.00000000      1.00000000</v>
    <i name="NUPDOWN">     -1.00000000</i>
    <i type="logical" name="LSORBIT"> F  </i>
    <v name="SAXIS">      0.00000000      0.00000000      1.00000000</v>
    <i type="logical" name="LSPIRAL"> F  </i>
    <v name="QSPIRAL">      0.00000000      0.00000000      0.00000000</v>
    <i type="logical" name="LZEROZ"> F  </i>
   </separator>
   <separator name="electronic exchange-correlation" >
    <i type="logical" name="LASPH"> F  </i>
    <i type="logical" name="LMETAGGA"> F  </i>
   </separator>
   <separator name="electronic convergence" >
    <i type="int" name="NELM">    60</i>
    <i type="int" name="NELMDL">    -5</i>
    <i type="int" name="NELMIN">     5</i>
    <i name="ENINI">    700.00000000</i>
    <separator name="electronic convergence detail" >
     <i type="logical" name="LDIAG"> T  </i>
     <i type="logical" name="LSUBROT"> F  </i>
     <i name="WEIMIN">      0.00000000</i>
     <i name="EBREAK">      0.00000000</i>
     <i name="DEPER">      0.30000000</i>
     <i type="int" name="NRMM">     4</i>
     <i name="TIME">      0.40000000</i>
    </separator>
   </separator>
   <separator name="electronic mixer" >
    <i name="AMIX">      0.40000000</i>
    <i name="BMIX">      1.00000000</i>
    <i name="AMIN">      0.10000000</i>
    <i name="AMIX_MAG">      1.60000000</i>
    <i name="BMIX_MAG">      1.00000000</i>
    <separator name="electronic mixer details" >
     <i type="int" name="IMIX">     4</i>
     <i type="logical" name="MIXFIRST"> F  </i>
     <i type="int" name="MAXMIX">   -45</i>
     <i name="WC">    100.00000000</i>
     <i type="int" name="INIMIX">     1</i>
     <i type="int" name="MIXPRE">     1</i>
     <i type="int" name="MREMOVE">     5</i>
    </separator>
   </separator>
   <separator name="electronic dipolcorrection" >
    <i type="logical" name="LDIPOL"> F  </i>
    <i type="logical" name="LMONO"> F  </i>
    <i type="int" name="IDIPOL">     0</i>
    <i name="EPSILON">      1.00000000</i>
    <v name="DIPOL">   -100.00000000   -100.00000000   -100.00000000</v>
    <i name="EFIELD">      0.00000000</i>
   </separator>
  </separator>
  <separator name="grids" >
   <i type="int" name="NGX">    40</i>
   <i type="int" name="NGY">    40</i>
   <i type="int" name="NGZ">    40</i>
   <i type="int" name="NGXF">    80</i>
   <i type="int" name="NGYF">    80</i>
   <i type="int" name="NGZF">    80</i>
   <i type="logical" name="ADDGRID"> T  </i>
  </separator>
  <separator name="ionic" >
   <i type="int" name="NSW">     0</i>
   <i type="int" name="IBRION">    -1</i>
   <i type="int" name="MDALGO">     0</i>
   <i type="int" name="ISIF">     3</i>
   <i name="PSTRESS">      0.00000000</i>
   <i name="EDIFFG">      0.00000100</i>
   <i type="int" name="NFREE">     0</i>
   <i name="POTIM">      0.50000000</i>
   <i name="SMASS">     -3.00000000</i>
   <i name="SCALEE">      1.00000000</i>
  </separator>
  <separator name="ionic md" >
   <i name="TEBEG">      0.00010000</i>
   <i name="TEEND">      0.00010000</i>
   <i type="int" name="NBLOCK">     1</i>
   <i type="int" name="KBLOCK">     1</i>
   <i type="int" name="NPACO">   256</i>
   <i name="APACO">     16.00000000</i>
  </separator>
  <separator name="symmetry" >
   <i type="int" name="ISYM">     2</i>
   <i name="SYMPREC">      0.00001000</i>
  </separator>
  <separator name="dos" >
   <i type="int" name="LORBIT">     0</i>
   <v name="RWIGS">     -1.00000000     -1.00000000     -1.00000000</v>
   <i type="int" name="NEDOS">   301</i>
   <i name="EMIN">     10.00000000</i>
   <i name="EMAX">    -10.00000000</i>
   <i name="EFERMI">      0.00000000</i>
  </separator>
  <separator name="writing" >
   <i type="int" name="NWRITE">     2</i>
   <i type="logical" name="LWAVE"> F  </i>
   <i type="logical" name="LDOWNSAMPLE"> F  </i>
   <i type="logical" name="LCHARG"> F  </i>
   <i type="logical" name="LPARD"> F  </i>
   <i type="logical" name="LVTOT"> F  </i>
   <i type="logical" name="LVHAR"> F  </i>
   <i type="logical" name="LELF"> F  </i>
   <i type="logical" name="LOPTICS"> F  </i>
   <v name="STM">      0.00000000      0.00000000      0.00000000      0.00000000      0.00000000      0.00000000      0.00000000</v>
  </separator>
  <separator name="performance" >
   <i type="int" name="NPAR">     4</i>
   <i type="int" name="NSIM">     4</i>
   <i type="int" name="NBLK">    -1</i>
   <i type="logical" name="LPLANE"> T  </i>
   <i type="logical" name="LSCALAPACK"> T  </i>
   <i type="logical" name="LSCAAWARE"> F  </i>
   <i type="logical" name="LSCALU"> F  </i>
   <i type="logical" name="LASYNC"> F  </i>
   <i type="logical" name="LORBITALREAL"> F  </i>
  </separator>
  <separator name="miscellaneous" >
   <i type="int" name="IDIOT">     3</i>
   <i type="int" name="PHON_NSTRUCT">    -1</i>
   <i type="logical" name="LMUSIC"> F  </i>
   <v name="POMASS">    178.49000000    121.75000000    195.08000000</v>
   <v name="DARWINR">      0.00000000      0.00000000      0.00000000</v>
   <v name="DARWINV">      1.00000000      1.00000000      1.00000000</v>
   <i type="logical" name="LCORR"> T  </i>
  </separator>
  <i type="logical" name="GGA_COMPAT"> T  </i>
  <i type="logical" name="LBERRY"> F  </i>
  <i type="int" name="ICORELEVEL">     0</i>
  <i type="logical" name="LDAU"> F  </i>
  <i type="int" name="I_CONSTRAINED_M">     0</i>
  <separator name="electronic exchange-correlation" >
   <i type="string" name="GGA">PS</i>
   <i type="int" name="VOSKOWN">     0</i>
   <i type="logical" name="LHFCALC"> F  </i>
   <i type="string" name="PRECFOCK"></i>
   <i type="logical" name="LSYMGRAD"> F  </i>
   <i type="logical" name="LHFONE"> F  </i>
   <i type="logical" name="LRHFCALC"> F  </i>
   <i type="logical" name="LTHOMAS"> F  </i>
   <i type="logical" name="LMODELHF"> F  </i>
   <i type="logical" name="LFOCKACE"> F  </i>
   <i name="ENCUT4O">     -1.00000000</i>
   <i type="int" name="EXXOEP">     0</i>
   <i type="int" name="FOURORBIT">     0</i>
   <i name="AEXX">      0.00000000</i>
   <i name="HFALPHA">      0.00000000</i>
   <i name="MCALPHA">      0.00000000</i>
   <i name="ALDAX">      1.00000000</i>
   <i name="AGGAX">      1.00000000</i>
   <i name="ALDAC">      1.00000000</i>
   <i name="AGGAC">      1.00000000</i>
   <i type="int" name="NKREDX">     1</i>
   <i type="int" name="NKREDY">     1</i>
   <i type="int" name="NKREDZ">     1</i>
   <i type="logical" name="SHIFTRED"> F  </i>
   <i type="logical" name="ODDONLY"> F  </i>
   <i type="logical" name="EVENONLY"> F  </i>
   <i type="int" name="LMAXFOCK">     0</i>
   <i type="int" name="NMAXFOCKAE">     0</i>
   <i type="logical" name="LFOCKAEDFT"> F  </i>
   <i name="HFSCREEN">      0.00000000</i>
   <i name="HFSCREENC">      0.00000000</i>
   <i type="int" name="NBANDSGWLOW">     0</i>
  </separator>
  <separator name="vdW DFT" >
   <i type="logical" name="LUSE_VDW"> F  </i>
   <i name="Zab_VDW">     -0.84910000</i>
   <i name="PARAM1">      0.12340000</i>
   <i name="PARAM2">      1.00000000</i>
   <i name="PARAM3">      0.00000000</i>
  </separator>
  <separator name="model GW" >
   <i type="int" name="MODEL_GW">     0</i>
   <i name="MODEL_EPS0">     13.35584700</i>
   <i name="MODEL_ALPHA">      1.00000000</i>
  </separator>
  <separator name="linear response parameters" >
   <i type="logical" name="LEPSILON"> F  </i>
   <i type="logical" name="LRPA"> F  </i>
   <i type="logical" name="LNABLA"> F  </i>
   <i type="logical" name="LVEL"> F  </i>
   <i type="int" name="KINTER">     0</i>
   <i name="CSHIFT">      0.10000000</i>
   <i name="OMEGAMAX">     -1.00000000</i>
   <i name="DEG_THRESHOLD">      0.00200000</i>
   <i name="RTIME">     -0.10000000</i>
   <i name="WPLASMAI">      0.00000000</i>
   <v name="DFIELD">      0.00000000      0.00000000      0.00000000</v>
   <v name="WPLASMA">      0.00000000      0.00000000      0.00000000      0.00000000      0.00000000      0.00000000      0.00000000      0.00000000      0.00000000</v>
  </separator>
  <separator name="orbital magnetization" >
   <i type="logical" name="NUCIND"> F  </i>
   <v name="MAGPOS">      0.00000000      0.00000000      0.00000000</v>
   <i type="logical" name="LNICSALL"> T  </i>
   <i type="logical" name="ORBITALMAG"> F  </i>
   <i type="logical" name="LMAGBLOCH"> F  </i>
   <i type="logical" name="LCHIMAG"> F  </i>
   <i type="logical" name="LGAUGE"> T  </i>
   <i type="int" name="MAGATOM">     0</i>
   <v name="MAGDIPOL">      0.00000000      0.00000000      0.00000000</v>
   <v name="AVECCONST">      0.00000000      0.00000000      0.00000000</v>
  </separator>
  <separator name="response functions" >
   <i type="logical" name="LFINITE_TEMPERATURE"> F  </i>
   <i type="logical" name="LADDER"> F  </i>
   <i type="logical" name="LRPAFORCE"> F  </i>
   <i type="logical" name="LFXC"> F  </i>
   <i type="logical" name="LHARTREE"> T  </i>
   <i type="int" name="IBSE">     0</i>
   <v type="int" name="KPOINT">    -1     0     0     0</v>
   <i type="logical" name="LTCTC"> F  </i>
   <i type="logical" name="LTCTE"> F  </i>
   <i type="logical" name="LTETE"> F  </i>
   <i type="logical" name="LTRIPLET"> F  </i>
   <i type="logical" name="LFXCEPS"> F  </i>
   <i type="logical" name="LFXHEG"> F  </i>
   <i type="int" name="NATURALO">     2</i>
   <i type="logical" name="L2ORDER"> F  </i>
   <i type="logical" name="LDMP1"> F  </i>
   <i type="logical" name="LMP2LT"> F  </i>
   <i type="logical" name="LSMP2LT"> F  </i>
   <i type="logical" name="LUSEW"> F  </i>
   <i name="ENCUTGW">     -2.00000000</i>
   <i name="ENCUTGWSOFT">     -2.00000000</i>
   <i name="ENCUTLF">     -1.00000000</i>
   <i type="int" name="LMAXMP2">    -1</i>
   <i name="SCISSOR">      0.00000000</i>
   <i type="int" name="NOMEGA">     0</i>
   <i type="int" name="NOMEGAR">     0</i>
   <i type="int" name="NBANDSGW">    -1</i>
   <i type="int" name="NBANDSO">    -1</i>
   <i type="int" name="NBANDSV">    -1</i>
   <i type="int" name="NELM">     1</i>
   <i type="int" name="NELMHF">     1</i>
   <i type="int" name="DIM">     3</i>
   <i type="int" name="IESPILON">     4</i>
   <i type="int" name="ANTIRES">     0</i>
   <i name="OMEGAMAX">    -30.00000000</i>
   <i name="OMEGAMIN">    -30.00000000</i>
   <i name="OMEGATL">   -200.00000000</i>
   <i type="int" name="OMEGAGRID">   145</i>
   <i name="CSHIFT">     -0.10000000</i>
   <i type="logical" name="LSELFENERGY"> F  </i>
   <i type="logical" name="LSPECTRAL"> F  </i>
   <i type="logical" name="LSPECTRALGW"> F  </i>
   <i type="logical" name="LSINGLES"> F  </i>
   <i type="logical" name="LFERMIGW"> F  </i>
   <i type="logical" name="ODDONLYGW"> F  </i>
   <i type="logical" name="EVENONLYGW"> F  </i>
   <i type="int" name="NKREDLFX">     1</i>
   <i type="int" name="NKREDLFY">     1</i>
   <i type="int" name="NKREDLFZ">     1</i>
   <i type="int" name="MAXMEM">  2800</i>
   <i type="int" name="TELESCOPE">     0</i>
   <i type="int" name="NTAUPAR">     1</i>
   <i type="int" name="NOMEGAPAR">    -1</i>
   <i name="LAMBDA">      1.00000000</i>
  </separator>
  <separator name="External order field" >
   <i name="OFIELD_KAPPA">      0.00000000</i>
   <v name="OFIELD_K">      0.00000000      0.00000000      0.00000000</v>
   <i name="OFIELD_Q6_NEAR">      0.00000000</i>
   <i name="OFIELD_Q6_FAR">      0.00000000</i>
   <i name="OFIELD_A">      0.00000000</i>
  </separator>
 </parameters>
 <atominfo>
  <atoms>       3 </atoms>
  <types>       3 </types>
  <array name="atoms" >
   <dimension dim="1">ion</dimension>
   <field type="string">element</field>
   <field type="int">atomtype</field>
   <set>
    <rc><c>Hf</c><c>   1</c></rc>
    <rc><c>Sb</c><c>   2</c></rc>
    <rc><c>Pt</c><c>   3</c></rc>
   </set>
  </array>
  <array name="atomtypes" >
   <dimension dim="1">type</dimension>
   <field type="int">atomspertype</field>
   <field type="string">element</field>
   <field>mass</field>
   <field>valence</field>
   <field type="string">pseudopotential</field>
   <set>
    <rc><c>   1</c><c>Hf</c><c>    178.49000000</c><c>     10.00000000</c><c>  PAW_PBE Hf_pv 06Sep2000               </c></rc>
    <rc><c>   1</c><c>Sb</c><c>    121.75000000</c><c>      5.00000000</c><c>  PAW_PBE Sb 06Sep2000                  </c></rc>
    <rc><c>   1</c><c>Pt</c><c>    195.08000000</c><c>     10.00000000</c><c>  PAW_PBE Pt 04Feb2005                  </c></rc>
   </set>
  </array>
 </atominfo>
 <structure name="initialpos" >
  <crystal>
   <varray name="basis" >
    <v>       0.00000000       3.22010832       3.22010832 </v>
    <v>       3.22010832       0.00000000       3.22010832 </v>
    <v>       3.22010832       3.22010832       0.00000000 </v>
   </varray>
   <i name="volume">     66.77923502 </i>
   <varray name="rec_basis" >
    <v>      -0.15527428       0.15527428       0.15527428 </v>
    <v>       0.15527428      -0.15527428       0.15527428 </v>
    <v>       0.15527428       0.15527428      -0.15527428 </v>
   </varray>
  </crystal>
  <varray name="positions" >
   <v>       0.75000000       0.75000000       0.75000000 </v>
   <v>       0.25000000       0.25000000       0.25000000 </v>
   <v>       0.00000000       0.00000000       0.00000000 </v>
  </varray>
 </structure>
 <calculation>
  <scstep>
   <time name="dav">    0.92    0.92</time>
   <time name="total">    1.05    1.14</time>
   <energy>
    <i name="alphaZ">    102.01904114 </i>
    <i name="ewald">  -1544.06593394 </i>
    <i name="hartreedc">   -331.12039440 </i>
    <i name="XCdc">    -19.31483726 </i>
    <i name="pawpsdc">   1514.36848356 </i>
    <i name="pawaedc">  -1421.27055995 </i>
    <i name="eentropy">     -0.00004131 </i>
    <i name="bandstr">     95.80932756 </i>
    <i name="atom">   1741.10451121 </i>
    <i name="e_fr_energy">    137.52959661 </i>
    <i name="e_wo_entrp">    137.52963791 </i>
    <i name="e_0_energy">    137.52961726 </i>
   </energy>
  </scstep>
  <scstep>
   <time name="dav">    1.08    1.10</time>
   <time name="total">    1.08    1.11</time>
   <energy>
    <i name="e_fr_energy">    -20.15347777 </i>
    <i name="e_wo_entrp">    -20.15328167 </i>
    <i name="e_0_energy">    -20.15337972 </i>
   </energy>
  </scstep>
  <scstep>
   <time name="dav">    1.18    1.21</time>
   <time name="total">    1.18    1.21</time>
   <energy>
    <i name="e_fr_energy">    -24.94917924 </i>
    <i name="e_wo_entrp">    -24.94905932 </i>
    <i name="e_0_energy">    -24.94911928 </i>
   </energy>
  </scstep>
  <scstep>
   <time name="dav">    1.08    1.10</time>
   <time name="total">    1.09    1.11</time>
   <energy>
    <i name="e_fr_energy">    -25.02110857 </i>
    <i name="e_wo_entrp">    -25.02092651 </i>
    <i name="e_0_energy">    -25.02101754 </i>
   </energy>
  </scstep>
  <scstep>
   <time name="dav">    1.16    1.19</time>
   <time name="total">    1.39    1.43</time>
   <energy>
    <i name="e_fr_energy">    -25.02280774 </i>
    <i name="e_wo_entrp">    -25.02262292 </i>
    <i name="e_0_energy">    -25.02271533 </i>
   </energy>
  </scstep>
  <scstep>
   <time name="dav">    1.11    1.11</time>
   <time name="total">    1.43    1.45</time>
   <energy>
    <i name="e_fr_energy">    -24.19265641 </i>
    <i name="e_wo_entrp">    -24.19228451 </i>
    <i name="e_0_energy">    -24.19247046 </i>
   </energy>
  </scstep>
  <scstep>
   <time name="dav">    1.17    1.17</time>
   <time name="total">    1.47    1.50</time>
   <energy>
    <i name="e_fr_energy">    -24.05125783 </i>
    <i name="e_wo_entrp">    -24.05096309 </i>
    <i name="e_0_energy">    -24.05111046 </i>
   </energy>
  </scstep>
  <scstep>
   <time name="dav">    1.09    1.09</time>
   <time name="total">    1.43    1.46</time>
   <energy>
    <i name="e_fr_energy">    -24.02943357 </i>
    <i name="e_wo_entrp">    -24.02920052 </i>
    <i name="e_0_energy">    -24.02931705 </i>
   </energy>
  </scstep>
  <scstep>
   <time name="dav">    0.98    0.98</time>
   <time name="total">    1.27    1.29</time>
   <energy>
    <i name="e_fr_energy">    -24.01855687 </i>
    <i name="e_wo_entrp">    -24.01822151 </i>
    <i name="e_0_energy">    -24.01838919 </i>
   </energy>
  </scstep>
  <scstep>
   <time name="dav">    1.14    1.14</time>
   <time name="total">    1.42    1.45</time>
   <energy>
    <i name="e_fr_energy">    -24.01850203 </i>
    <i name="e_wo_entrp">    -24.01816899 </i>
    <i name="e_0_energy">    -24.01833551 </i>
   </energy>
  </scstep>
  <scstep>
   <time name="dav">    1.07    1.07</time>
   <time name="total">    1.36    1.38</time>
   <energy>
    <i name="e_fr_energy">    -24.01836629 </i>
    <i name="e_wo_entrp">    -24.01803225 </i>
    <i name="e_0_energy">    -24.01819927 </i>
   </energy>
  </scstep>
  <scstep>
   <time name="dav">    1.14    1.14</time>
   <time name="total">    1.43    1.46</time>
   <energy>
    <i name="e_fr_energy">    -24.01836423 </i>
    <i name="e_wo_entrp">    -24.01803015 </i>
    <i name="e_0_energy">    -24.01819719 </i>
   </energy>
  </scstep>
  <scstep>
   <time name="dav">    1.00    1.00</time>
   <time name="total">    1.30    1.33</time>
   <energy>
    <i name="e_fr_energy">    -24.01836294 </i>
    <i name="e_wo_entrp">    -24.01802881 </i>
    <i name="e_0_energy">    -24.01819587 </i>
   </energy>
  </scstep>
  <scstep>
   <time name="dav">    0.97    0.97</time>
   <time name="total">    1.11    1.13</time>
   <energy>
    <i name="alphaZ">    102.01904114 </i>
    <i name="ewald">  -1544.06593394 </i>
    <i name="hartreedc">   -309.23159367 </i>
    <i name="XCdc">    -19.98167007 </i>
    <i name="pawpsdc">   2487.16293033 </i>
    <i name="pawaedc">  -2399.23238173 </i>
    <i name="eentropy">     -0.00033413 </i>
    <i name="bandstr">    -81.79293213 </i>
    <i name="atom">   1741.10451121 </i>
    <i name="e_fr_energy">    -24.01836299 </i>
    <i name="e_wo_entrp">    -24.01802886 </i>
    <i name="e_0_energy">    -24.01819592 </i>
   </energy>
  </scstep>
  <structure>
   <crystal>
    <varray name="basis" >
     <v>       0.00000000       3.22010832       3.22010832 </v>
     <v>       3.22010832       0.00000000       3.22010832 </v>
     <v>       3.22010832       3.22010832       0.00000000 </v>
    </varray>
    <i name="volume">     66.77923502 </i>
    <varray name="rec_basis" >
     <v>      -0.15527428       0.15527428       0.15527428 </v>
     <v>       0.15527428      -0.15527428       0.15527428 </v>
     <v>       0.15527428       0.15527428      -0.15527428 </v>
    </varray>
   </crystal>
   <varray name="positions" >
    <v>       0.75000000       0.75000000       0.75000000 </v>
    <v>       0.25000000       0.25000000       0.25000000 </v>
    <v>       0.00000000       0.00000000       0.00000000 </v>
   </varray>
  </structure>
  <varray name="forces" >
   <v>       0.00000000      -0.00000000      -0.00000000 </v>
   <v>       0.00000000      -0.00000000      -0.00000000 </v>
   <v>      -0.00000000       0.00000000       0.00000000 </v>
  </varray>
  <varray name="stress" >
   <v>     -49.40161280      -0.00000000       0.00000000 </v>
   <v>      -0.00000000     -49.40161280       0.00000000 </v>
   <v>       0.00000000      -0.00000000     -49.40161280 </v>
  </varray>
  <energy>
   <i name="e_fr_energy">    -24.01836299 </i>
   <i name="e_wo_entrp">    -24.01819592 </i>
   <i name="e_0_energy">     -0.00033413 </i>
  </energy>
  <time name="totalsc">   20.81   21.89</time>
  <eigenvalues>
   <array>
    <dimension dim="1">band</dimension>
    <dimension dim="2">kpoint</dimension>
    <dimension dim="3">spin</dimension>
    <field>eigene</field>
    <field>occ</field>
    <set>
     <set comment="spin 1">
      <set comment="kpoint 1">
       <r>  -23.8572    1.0000 </r>
       <r>  -23.8572    1.0000 </r>
       <r>  -23.8572    1.0000 </r>
       <r>   -4.0448    1.0000 </r>
       <r>    2.6312    1.0000 </r>
       <r>    2.6312    1.0000 </r>
       <r>    2.6312    1.0000 </r>
       <r>    3.4431    1.0000 </r>
       <r>    3.4431    1.0000 </r>
       <r>    6.9021    1.0000 </r>
       <r>    6.9021    1.0000 </r>
       <r>    6.9021    1.0000 </r>
       <r>    7.2603    1.0000 </r>
       <r>    9.3082    0.0000 </r>
       <r>    9.3082    0.0000 </r>
       <r>    9.3082    0.0000 </r>
      </set>
      <set comment="kpoint 2">
       <r>  -23.8581    1.0000 </r>
       <r>  -23.8572    1.0000 </r>
       <r>  -23.8572    1.0000 </r>
       <r>   -3.9836    1.0000 </r>
       <r>    2.5503    1.0000 </r>
       <r>    2.6075    1.0000 </r>
       <r>    2.6075    1.0000 </r>
       <r>    3.4789    1.0000 </r>
       <r>    3.4789    1.0000 </r>
       <r>    6.3091    1.0000 </r>
       <r>    6.8360    1.0000 </r>
       <r>    6.8360    1.0000 </r>
       <r>    7.5750    1.0000 </r>
       <r>    9.1500    0.0000 </r>
       <r>    9.1500    0.0000 </r>
       <r>    9.6587    0.0000 </r>
      </set>
      <set comment="kpoint 3">
       <r>  -23.8605    1.0000 </r>
       <r>  -23.8571    1.0000 </r>
       <r>  -23.8571    1.0000 </r>
       <r>   -3.8061    1.0000 </r>
       <r>    2.3267    1.0000 </r>
       <r>    2.5566    1.0000 </r>
       <r>    2.5566    1.0000 </r>
       <r>    3.5597    1.0000 </r>
       <r>    3.5597    1.0000 </r>
       <r>    5.4836    1.0000 </r>
       <r>    6.6703    1.0000 </r>
       <r>    6.6703    1.0000 </r>
       <r>    7.8320    1.0000 </r>
       <r>    9.0579    0.0000 </r>
       <r>    9.0579    0.0000 </r>
       <r>   10.4315    0.0000 </r>
      </set>
      <set comment="kpoint 4">
       <r>  -23.8638    1.0000 </r>
       <r>  -23.8570    1.0000 </r>
       <r>  -23.8570    1.0000 </r>
       <r>   -3.5327    1.0000 </r>
       <r>    2.0005    1.0000 </r>
       <r>    2.5107    1.0000 </r>
       <r>    2.5107    1.0000 </r>
       <r>    3.6367    1.0000 </r>
       <r>    3.6367    1.0000 </r>
       <r>    4.7337    1.0000 </r>
       <r>    6.4759    1.0000 </r>
       <r>    6.4759    1.0000 </r>
       <r>    8.0331    1.0000 </r>
       <r>    9.0934    0.0000 </r>
       <r>    9.0934    0.0000 </r>
       <r>   11.0626    0.0000 </r>
      </set>
      <set comment="kpoint 5">
       <r>  -23.8673    1.0000 </r>
       <r>  -23.8569    1.0000 </r>
       <r>  -23.8569    1.0000 </r>
       <r>   -3.2024    1.0000 </r>
       <r>    1.6176    1.0000 </r>
       <r>    2.4862    1.0000 </r>
       <r>    2.4862    1.0000 </r>
       <r>    3.6766    1.0000 </r>
       <r>    3.6766    1.0000 </r>
       <r>    4.1564    1.0000 </r>
       <r>    6.3148    1.0000 </r>
       <r>    6.3148    1.0000 </r>
       <r>    8.2142    1.0000 </r>
       <r>    9.2234    0.0000 </r>
       <r>    9.2234    0.0000 </r>
       <r>   10.6236    0.0000 </r>
      </set>
      <set comment="kpoint 6">
       <r>  -23.8702    1.0000 </r>
       <r>  -23.8568    1.0000 </r>
       <r>  -23.8568    1.0000 </r>
       <r>   -2.8821    1.0000 </r>
       <r>    1.2492    1.0000 </r>
       <r>    2.4822    1.0000 </r>
       <r>    2.4822    1.0000 </r>
       <r>    3.6774    1.0000 </r>
       <r>    3.6774    1.0000 </r>
       <r>    3.7842    1.0000 </r>
       <r>    6.2139    1.0000 </r>
       <r>    6.2139    1.0000 </r>
       <r>    8.3928    1.0000 </r>
       <r>    9.3985    0.0000 </r>
       <r>    9.3985    0.0000 </r>
       <r>    9.9161    0.0000 </r>
      </set>
      <set comment="kpoint 7">
       <r>  -23.8718    1.0000 </r>
       <r>  -23.8568    1.0000 </r>
       <r>  -23.8568    1.0000 </r>
       <r>   -2.6732    1.0000 </r>
       <r>    1.0099    1.0000 </r>
       <r>    2.4866    1.0000 </r>
       <r>    2.4866    1.0000 </r>
       <r>    3.6072    1.0000 </r>
       <r>    3.6643    1.0000 </r>
       <r>    3.6643    1.0000 </r>
       <r>    6.1692    1.0000 </r>
       <r>    6.1692    1.0000 </r>
       <r>    8.5567    0.0000 </r>
       <r>    9.4472    0.0000 </r>
       <r>    9.5350    0.0000 </r>
       <r>    9.5350    0.0000 </r>
      </set>
      <set comment="kpoint 8">
       <r>  -23.8581    1.0000 </r>
       <r>  -23.8573    1.0000 </r>
       <r>  -23.8573    1.0000 </r>
       <r>   -3.9635    1.0000 </r>
       <r>    2.4208    1.0000 </r>
       <r>    2.6607    1.0000 </r>
       <r>    2.6607    1.0000 </r>
       <r>    3.4746    1.0000 </r>
       <r>    3.4920    1.0000 </r>
       <r>    6.3322    1.0000 </r>
       <r>    6.7097    1.0000 </r>
       <r>    6.7097    1.0000 </r>
       <r>    7.6700    1.0000 </r>
       <r>    9.0033    0.0000 </r>
       <r>    9.5405    0.0000 </r>
       <r>    9.5811    0.0000 </r>
      </set>
      <set comment="kpoint 9">
       <r>  -23.8598    1.0000 </r>
       <r>  -23.8574    1.0000 </r>
       <r>  -23.8573    1.0000 </r>
       <r>   -3.8258    1.0000 </r>
       <r>    2.2117    1.0000 </r>
       <r>    2.6391    1.0000 </r>
       <r>    2.6664    1.0000 </r>
       <r>    3.5340    1.0000 </r>
       <r>    3.5425    1.0000 </r>
       <r>    5.7182    1.0000 </r>
       <r>    6.5208    1.0000 </r>
       <r>    6.5757    1.0000 </r>
       <r>    7.9283    1.0000 </r>
       <r>    8.8666    0.0000 </r>
       <r>    9.3070    0.0000 </r>
       <r>   10.0367    0.0000 </r>
      </set>
      <set comment="kpoint 10">
       <r>  -23.8628    1.0000 </r>
       <r>  -23.8574    1.0000 </r>
       <r>  -23.8572    1.0000 </r>
       <r>   -3.5862    1.0000 </r>
       <r>    1.9599    1.0000 </r>
       <r>    2.5558    1.0000 </r>
       <r>    2.6427    1.0000 </r>
       <r>    3.6123    1.0000 </r>
       <r>    3.6143    1.0000 </r>
       <r>    4.9798    1.0000 </r>
       <r>    6.3364    1.0000 </r>
       <r>    6.4001    1.0000 </r>
       <r>    8.2050    1.0000 </r>
       <r>    8.8740    0.0000 </r>
       <r>    9.2040    0.0000 </r>
       <r>   10.5753    0.0000 </r>
      </set>
      <set comment="kpoint 11">
       <r>  -23.8662    1.0000 </r>
       <r>  -23.8573    1.0000 </r>
       <r>  -23.8571    1.0000 </r>
       <r>   -3.2771    1.0000 </r>
       <r>    1.6619    1.0000 </r>
       <r>    2.4786    1.0000 </r>
       <r>    2.6130    1.0000 </r>
       <r>    3.6661    1.0000 </r>
       <r>    3.6675    1.0000 </r>
       <r>    4.3494    1.0000 </r>
       <r>    6.2005    1.0000 </r>
       <r>    6.2268    1.0000 </r>
       <r>    8.3377    1.0000 </r>
       <r>    9.1134    0.0000 </r>
       <r>    9.2247    0.0000 </r>
       <r>   10.6937    0.0000 </r>
      </set>
      <set comment="kpoint 12">
       <r>  -23.8692    1.0000 </r>
       <r>  -23.8572    1.0000 </r>
       <r>  -23.8572    1.0000 </r>
       <r>   -2.9547    1.0000 </r>
       <r>    1.3455    1.0000 </r>
       <r>    2.4426    1.0000 </r>
       <r>    2.5834    1.0000 </r>
       <r>    3.6783    1.0000 </r>
       <r>    3.6808    1.0000 </r>
       <r>    3.9111    1.0000 </r>
       <r>    6.0965    1.0000 </r>
       <r>    6.1266    1.0000 </r>
       <r>    8.4255    1.0000 </r>
       <r>    9.3469    0.0000 </r>
       <r>    9.4148    0.0000 </r>
       <r>   10.0877    0.0000 </r>
      </set>
      <set comment="kpoint 13">
       <r>  -23.8711    1.0000 </r>
       <r>  -23.8573    1.0000 </r>
       <r>  -23.8570    1.0000 </r>
       <r>   -2.7068    1.0000 </r>
       <r>    1.0947    1.0000 </r>
       <r>    2.4496    1.0000 </r>
       <r>    2.5469    1.0000 </r>
       <r>    3.6110    1.0000 </r>
       <r>    3.6784    1.0000 </r>
       <r>    3.7238    1.0000 </r>
       <r>    6.0181    1.0000 </r>
       <r>    6.1031    1.0000 </r>
       <r>    8.5527    0.0000 </r>
       <r>    9.4361    0.0000 </r>
       <r>    9.5008    0.0000 </r>
       <r>    9.7523    0.0000 </r>
      </set>
      <set comment="kpoint 14">
       <r>  -23.8717    1.0000 </r>
       <r>  -23.8575    1.0000 </r>
       <r>  -23.8569    1.0000 </r>
       <r>   -2.6341    1.0000 </r>
       <r>    1.0210    1.0000 </r>
       <r>    2.4869    1.0000 </r>
       <r>    2.4983    1.0000 </r>
       <r>    3.5608    1.0000 </r>
       <r>    3.6881    1.0000 </r>
       <r>    3.7002    1.0000 </r>
       <r>    5.9771    1.0000 </r>
       <r>    6.1187    1.0000 </r>
       <r>    8.6400    0.0000 </r>
       <r>    9.2570    0.0000 </r>
       <r>    9.5617    0.0000 </r>
       <r>    9.8096    0.0000 </r>
      </set>
      <set comment="kpoint 15">
       <r>  -23.8706    1.0000 </r>
       <r>  -23.8576    1.0000 </r>
       <r>  -23.8567    1.0000 </r>
       <r>   -2.7741    1.0000 </r>
       <r>    1.1680    1.0000 </r>
       <r>    2.4472    1.0000 </r>
       <r>    2.5402    1.0000 </r>
       <r>    3.6171    1.0000 </r>
       <r>    3.7093    1.0000 </r>
       <r>    3.7601    1.0000 </r>
       <r>    5.9583    1.0000 </r>
       <r>    6.1791    1.0000 </r>
       <r>    8.5439    0.0000 </r>
       <r>    9.4603    0.0000 </r>
       <r>    9.4657    0.0000 </r>
       <r>    9.8098    0.0000 </r>
      </set>
      <set comment="kpoint 16">
       <r>  -23.8682    1.0000 </r>
       <r>  -23.8577    1.0000 </r>
       <r>  -23.8567    1.0000 </r>
       <r>   -3.0583    1.0000 </r>
       <r>    1.4630    1.0000 </r>
       <r>    2.4131    1.0000 </r>
       <r>    2.5991    1.0000 </r>
       <r>    3.6458    1.0000 </r>
       <r>    3.7169    1.0000 </r>
       <r>    4.0400    1.0000 </r>
       <r>    5.9664    1.0000 </r>
       <r>    6.2997    1.0000 </r>
       <r>    8.4441    1.0000 </r>
       <r>    9.2623    0.0000 </r>
       <r>    9.3717    0.0000 </r>
       <r>   10.3074    0.0000 </r>
      </set>
      <set comment="kpoint 17">
       <r>  -23.8650    1.0000 </r>
       <r>  -23.8578    1.0000 </r>
       <r>  -23.8567    1.0000 </r>
       <r>   -3.3844    1.0000 </r>
       <r>    1.8012    1.0000 </r>
       <r>    2.4129    1.0000 </r>
       <r>    2.6560    1.0000 </r>
       <r>    3.6253    1.0000 </r>
       <r>    3.6882    1.0000 </r>
       <r>    4.5433    1.0000 </r>
       <r>    6.0289    1.0000 </r>
       <r>    6.4815    1.0000 </r>
       <r>    8.3557    1.0000 </r>
       <r>    9.0587    0.0000 </r>
       <r>    9.2046    0.0000 </r>
       <r>   10.5811    0.0000 </r>
      </set>
      <set comment="kpoint 18">
       <r>  -23.8618    1.0000 </r>
       <r>  -23.8577    1.0000 </r>
       <r>  -23.8569    1.0000 </r>
       <r>   -3.6754    1.0000 </r>
       <r>    2.1167    1.0000 </r>
       <r>    2.4531    1.0000 </r>
       <r>    2.6959    1.0000 </r>
       <r>    3.5669    1.0000 </r>
       <r>    3.6223    1.0000 </r>
       <r>    5.2105    1.0000 </r>
       <r>    6.1802    1.0000 </r>
       <r>    6.6862    1.0000 </r>
       <r>    8.1674    1.0000 </r>
       <r>    8.9223    0.0000 </r>
       <r>    9.1846    0.0000 </r>
       <r>   10.1240    0.0000 </r>
      </set>
      <set comment="kpoint 19">
       <r>  -23.8593    1.0000 </r>
       <r>  -23.8575    1.0000 </r>
       <r>  -23.8570    1.0000 </r>
       <r>   -3.8839    1.0000 </r>
       <r>    2.3784    1.0000 </r>
       <r>    2.5261    1.0000 </r>
       <r>    2.6854    1.0000 </r>
       <r>    3.5055    1.0000 </r>
       <r>    3.5406    1.0000 </r>
       <r>    5.8870    1.0000 </r>
       <r>    6.4733    1.0000 </r>
       <r>    6.8306    1.0000 </r>
       <r>    7.8491    1.0000 </r>
       <r>    8.9317    0.0000 </r>
       <r>    9.2931    0.0000 </r>
       <r>    9.7093    0.0000 </r>
      </set>
      <set comment="kpoint 20">
       <r>  -23.8604    1.0000 </r>
       <r>  -23.8577    1.0000 </r>
       <r>  -23.8577    1.0000 </r>
       <r>   -3.7324    1.0000 </r>
       <r>    1.9746    1.0000 </r>
       <r>    2.7445    1.0000 </r>
       <r>    2.7445    1.0000 </r>
       <r>    3.5218    1.0000 </r>
       <r>    3.5649    1.0000 </r>
       <r>    5.6596    1.0000 </r>
       <r>    6.3166    1.0000 </r>
       <r>    6.3166    1.0000 </r>
       <r>    7.9330    1.0000 </r>
       <r>    8.8413    0.0000 </r>
       <r>    9.3629    0.0000 </r>
       <r>   10.1562    0.0000 </r>
      </set>
      <set comment="kpoint 21">
       <r>  -23.8626    1.0000 </r>
       <r>  -23.8578    1.0000 </r>
       <r>  -23.8578    1.0000 </r>
       <r>   -3.5375    1.0000 </r>
       <r>    1.7443    1.0000 </r>
       <r>    2.7384    1.0000 </r>
       <r>    2.7741    1.0000 </r>
       <r>    3.5389    1.0000 </r>
       <r>    3.6362    1.0000 </r>
       <r>    5.1711    1.0000 </r>
       <r>    6.1201    1.0000 </r>
       <r>    6.1295    1.0000 </r>
       <r>    8.1665    1.0000 </r>
       <r>    8.8080    0.0000 </r>
       <r>    9.2352    0.0000 </r>
       <r>   10.4785    0.0000 </r>
      </set>
      <set comment="kpoint 22">
       <r>  -23.8655    1.0000 </r>
       <r>  -23.8579    1.0000 </r>
       <r>  -23.8578    1.0000 </r>
       <r>   -3.2685    1.0000 </r>
       <r>    1.5367    1.0000 </r>
       <r>    2.6443    1.0000 </r>
       <r>    2.7668    1.0000 </r>
       <r>    3.5941    1.0000 </r>
       <r>    3.6986    1.0000 </r>
       <r>    4.5731    1.0000 </r>
       <r>    5.9226    1.0000 </r>
       <r>    6.0041    1.0000 </r>
       <r>    8.4099    1.0000 </r>
       <r>    9.0048    0.0000 </r>
       <r>    9.1768    0.0000 </r>
       <r>   10.6019    0.0000 </r>
      </set>
      <set comment="kpoint 23">
       <r>  -23.8681    1.0000 </r>
       <r>  -23.8582    1.0000 </r>
       <r>  -23.8577    1.0000 </r>
       <r>   -2.9728    1.0000 </r>
       <r>    1.3544    1.0000 </r>
       <r>    2.5301    1.0000 </r>
       <r>    2.7325    1.0000 </r>
       <r>    3.6411    1.0000 </r>
       <r>    3.7242    1.0000 </r>
       <r>    4.0750    1.0000 </r>
       <r>    5.7595    1.0000 </r>
       <r>    5.9491    1.0000 </r>
       <r>    8.4322    1.0000 </r>
       <r>    9.2488    0.0000 </r>
       <r>    9.4997    0.0000 </r>
       <r>   10.1755    0.0000 </r>
      </set>
      <set comment="kpoint 24">
       <r>  -23.8700    1.0000 </r>
       <r>  -23.8587    1.0000 </r>
       <r>  -23.8575    1.0000 </r>
       <r>   -2.7217    1.0000 </r>
       <r>    1.2087    1.0000 </r>
       <r>    2.4522    1.0000 </r>
       <r>    2.6695    1.0000 </r>
       <r>    3.6018    1.0000 </r>
       <r>    3.7309    1.0000 </r>
       <r>    3.8162    1.0000 </r>
       <r>    5.6453    1.0000 </r>
       <r>    5.9437    1.0000 </r>
       <r>    8.4836    0.0751 </r>
       <r>    9.4248    0.0000 </r>
       <r>    9.5873    0.0000 </r>
       <r>    9.9674    0.0000 </r>
      </set>
      <set comment="kpoint 25">
       <r>  -23.8708    1.0000 </r>
       <r>  -23.8591    1.0000 </r>
       <r>  -23.8572    1.0000 </r>
       <r>   -2.5998    1.0000 </r>
       <r>    1.1404    1.0000 </r>
       <r>    2.4462    1.0000 </r>
       <r>    2.5802    1.0000 </r>
       <r>    3.5057    1.0000 </r>
       <r>    3.7462    1.0000 </r>
       <r>    3.7918    1.0000 </r>
       <r>    5.5675    1.0000 </r>
       <r>    5.9709    1.0000 </r>
       <r>    8.6183    0.0000 </r>
       <r>    9.2237    0.0000 </r>
       <r>    9.5759    0.0000 </r>
       <r>   10.2250    0.0000 </r>
      </set>
      <set comment="kpoint 26">
       <r>  -23.8702    1.0000 </r>
       <r>  -23.8595    1.0000 </r>
       <r>  -23.8569    1.0000 </r>
       <r>   -2.6597    1.0000 </r>
       <r>    1.1914    1.0000 </r>
       <r>    2.4835    1.0000 </r>
       <r>    2.5180    1.0000 </r>
       <r>    3.5212    1.0000 </r>
       <r>    3.7691    1.0000 </r>
       <r>    3.8420    1.0000 </r>
       <r>    5.5008    1.0000 </r>
       <r>    6.0387    1.0000 </r>
       <r>    8.6849    0.0000 </r>
       <r>    9.2842    0.0000 </r>
       <r>    9.5493    0.0000 </r>
       <r>   10.2166    0.0000 </r>
      </set>
      <set comment="kpoint 27">
       <r>  -23.8685    1.0000 </r>
       <r>  -23.8595    1.0000 </r>
       <r>  -23.8567    1.0000 </r>
       <r>   -2.8750    1.0000 </r>
       <r>    1.3526    1.0000 </r>
       <r>    2.4063    1.0000 </r>
       <r>    2.6370    1.0000 </r>
       <r>    3.5894    1.0000 </r>
       <r>    3.7768    1.0000 </r>
       <r>    4.0254    1.0000 </r>
       <r>    5.4416    1.0000 </r>
       <r>    6.1657    1.0000 </r>
       <r>    8.6862    0.0000 </r>
       <r>    9.3737    0.0000 </r>
       <r>    9.6279    0.0000 </r>
       <r>   10.1019    0.0000 </r>
      </set>
      <set comment="kpoint 28">
       <r>  -23.8661    1.0000 </r>
       <r>  -23.8592    1.0000 </r>
       <r>  -23.8566    1.0000 </r>
       <r>   -3.1650    1.0000 </r>
       <r>    1.5819    1.0000 </r>
       <r>    2.3702    1.0000 </r>
       <r>    2.7431    1.0000 </r>
       <r>    3.6095    1.0000 </r>
       <r>    3.7514    1.0000 </r>
       <r>    4.4127    1.0000 </r>
       <r>    5.4442    1.0000 </r>
       <r>    6.3516    1.0000 </r>
       <r>    8.7592    0.0000 </r>
       <r>    9.1543    0.0000 </r>
       <r>    9.4254    0.0000 </r>
       <r>   10.2624    0.0000 </r>
      </set>
      <set comment="kpoint 29">
       <r>  -23.8637    1.0000 </r>
       <r>  -23.8586    1.0000 </r>
       <r>  -23.8567    1.0000 </r>
       <r>   -3.4505    1.0000 </r>
       <r>    1.8459    1.0000 </r>
       <r>    2.3861    1.0000 </r>
       <r>    2.7750    1.0000 </r>
       <r>    3.5875    1.0000 </r>
       <r>    3.6942    1.0000 </r>
       <r>    4.8757    1.0000 </r>
       <r>    5.6498    1.0000 </r>
       <r>    6.5539    1.0000 </r>
       <r>    8.6589    0.0000 </r>
       <r>    8.9749    0.0000 </r>
       <r>    9.1789    0.0000 </r>
       <r>   10.0961    0.0000 </r>
      </set>
      <set comment="kpoint 30">
       <r>  -23.8638    1.0000 </r>
       <r>  -23.8582    1.0000 </r>
       <r>  -23.8582    1.0000 </r>
       <r>   -3.3941    1.0000 </r>
       <r>    1.5323    1.0000 </r>
       <r>    2.8680    1.0000 </r>
       <r>    2.8680    1.0000 </r>
       <r>    3.4569    1.0000 </r>
       <r>    3.7004    1.0000 </r>
       <r>    5.0621    1.0000 </r>
       <r>    5.9301    1.0000 </r>
       <r>    5.9301    1.0000 </r>
       <r>    7.9828    1.0000 </r>
       <r>    8.8980    0.0000 </r>
       <r>    9.1339    0.0000 </r>
       <r>   10.5927    0.0000 </r>
      </set>
      <set comment="kpoint 31">
       <r>  -23.8660    1.0000 </r>
       <r>  -23.8584    1.0000 </r>
       <r>  -23.8583    1.0000 </r>
       <r>   -3.1791    1.0000 </r>
       <r>    1.3750    1.0000 </r>
       <r>    2.8535    1.0000 </r>
       <r>    2.9091    1.0000 </r>
       <r>    3.4600    1.0000 </r>
       <r>    3.7703    1.0000 </r>
       <r>    4.6690    1.0000 </r>
       <r>    5.7165    1.0000 </r>
       <r>    5.7936    1.0000 </r>
       <r>    8.1185    1.0000 </r>
       <r>    9.0284    0.0000 </r>
       <r>    9.0361    0.0000 </r>
       <r>   10.6004    0.0000 </r>
      </set>
      <set comment="kpoint 32">
       <r>  -23.8680    1.0000 </r>
       <r>  -23.8590    1.0000 </r>
       <r>  -23.8583    1.0000 </r>
       <r>   -2.9324    1.0000 </r>
       <r>    1.2917    1.0000 </r>
       <r>    2.7191    1.0000 </r>
       <r>    2.8976    1.0000 </r>
       <r>    3.5449    1.0000 </r>
       <r>    3.8071    1.0000 </r>
       <r>    4.2042    1.0000 </r>
       <r>    5.4731    1.0000 </r>
       <r>    5.7386    1.0000 </r>
       <r>    8.2511    1.0000 </r>
       <r>    9.0608    0.0000 </r>
       <r>    9.4510    0.0000 </r>
       <r>   10.2616    0.0000 </r>
      </set>
      <set comment="kpoint 33">
       <r>  -23.8694    1.0000 </r>
       <r>  -23.8600    1.0000 </r>
       <r>  -23.8581    1.0000 </r>
       <r>   -2.7099    1.0000 </r>
       <r>    1.2826    1.0000 </r>
       <r>    2.5573    1.0000 </r>
       <r>    2.8319    1.0000 </r>
       <r>    3.5707    1.0000 </r>
       <r>    3.8181    1.0000 </r>
       <r>    3.8875    1.0000 </r>
       <r>    5.2710    1.0000 </r>
       <r>    5.7412    1.0000 </r>
       <r>    8.3058    1.0000 </r>
       <r>    9.2500    0.0000 </r>
       <r>    9.7523    0.0000 </r>
       <r>   10.0276    0.0000 </r>
      </set>
      <set comment="kpoint 34">
       <r>  -23.8698    1.0000 </r>
       <r>  -23.8610    1.0000 </r>
       <r>  -23.8577    1.0000 </r>
       <r>   -2.5733    1.0000 </r>
       <r>    1.3173    1.0000 </r>
       <r>    2.4351    1.0000 </r>
       <r>    2.7187    1.0000 </r>
       <r>    3.4343    1.0000 </r>
       <r>    3.8308    1.0000 </r>
       <r>    3.8920    1.0000 </r>
       <r>    5.1266    1.0000 </r>
       <r>    5.7749    1.0000 </r>
       <r>    8.4180    1.0000 </r>
       <r>    9.3492    0.0000 </r>
       <r>    9.5299    0.0000 </r>
       <r>   10.3345    0.0000 </r>
      </set>
      <set comment="kpoint 35">
       <r>  -23.8692    1.0000 </r>
       <r>  -23.8618    1.0000 </r>
       <r>  -23.8573    1.0000 </r>
       <r>   -2.5675    1.0000 </r>
       <r>    1.3410    1.0000 </r>
       <r>    2.4300    1.0000 </r>
       <r>    2.5853    1.0000 </r>
       <r>    3.4018    1.0000 </r>
       <r>    3.8454    1.0000 </r>
       <r>    3.9820    1.0000 </r>
       <r>    5.0267    1.0000 </r>
       <r>    5.8458    1.0000 </r>
       <r>    8.6077    0.0000 </r>
       <r>    9.1788    0.0000 </r>
       <r>    9.6476    0.0000 </r>
       <r>   10.2960    0.0000 </r>
      </set>
      <set comment="kpoint 36">
       <r>  -23.8682    1.0000 </r>
       <r>  -23.8618    1.0000 </r>
       <r>  -23.8569    1.0000 </r>
       <r>   -2.6957    1.0000 </r>
       <r>    1.3564    1.0000 </r>
       <r>    2.4666    1.0000 </r>
       <r>    2.5493    1.0000 </r>
       <r>    3.4874    1.0000 </r>
       <r>    3.8416    1.0000 </r>
       <r>    4.1111    1.0000 </r>
       <r>    4.9711    1.0000 </r>
       <r>    5.9737    1.0000 </r>
       <r>    8.7267    0.0000 </r>
       <r>    9.4335    0.0000 </r>
       <r>    9.5303    0.0000 </r>
       <r>   10.2008    0.0000 </r>
      </set>
      <set comment="kpoint 37">
       <r>  -23.8671    1.0000 </r>
       <r>  -23.8608    1.0000 </r>
       <r>  -23.8567    1.0000 </r>
       <r>   -2.9159    1.0000 </r>
       <r>    1.4269    1.0000 </r>
       <r>    2.3896    1.0000 </r>
       <r>    2.6903    1.0000 </r>
       <r>    3.5767    1.0000 </r>
       <r>    3.8081    1.0000 </r>
       <r>    4.2809    1.0000 </r>
       <r>    5.0581    1.0000 </r>
       <r>    6.1565    1.0000 </r>
       <r>    8.7949    0.0000 </r>
       <r>    9.3352    0.0000 </r>
       <r>    9.8732    0.0000 </r>
       <r>   10.0906    0.0000 </r>
      </set>
      <set comment="kpoint 38">
       <r>  -23.8675    1.0000 </r>
       <r>  -23.8587    1.0000 </r>
       <r>  -23.8587    1.0000 </r>
       <r>   -3.0271    1.0000 </r>
       <r>    1.2649    1.0000 </r>
       <r>    3.0059    1.0000 </r>
       <r>    3.0059    1.0000 </r>
       <r>    3.3228    1.0000 </r>
       <r>    3.8569    1.0000 </r>
       <r>    4.4791    1.0000 </r>
       <r>    5.6311    1.0000 </r>
       <r>    5.6311    1.0000 </r>
       <r>    7.9382    1.0000 </r>
       <r>    8.8780    0.0000 </r>
       <r>    9.0721    0.0000 </r>
       <r>   10.5491    0.0000 </r>
      </set>
      <set comment="kpoint 39">
       <r>  -23.8692    1.0000 </r>
       <r>  -23.8591    1.0000 </r>
       <r>  -23.8588    1.0000 </r>
       <r>   -2.8448    1.0000 </r>
       <r>    1.2445    1.0000 </r>
       <r>    2.9316    1.0000 </r>
       <r>    3.0395    1.0000 </r>
       <r>    3.3792    1.0000 </r>
       <r>    3.9129    1.0000 </r>
       <r>    4.1296    1.0000 </r>
       <r>    5.4245    1.0000 </r>
       <r>    5.5537    1.0000 </r>
       <r>    8.0020    1.0000 </r>
       <r>    8.8236    0.0000 </r>
       <r>    9.2878    0.0000 </r>
       <r>   10.2996    0.0000 </r>
      </set>
      <set comment="kpoint 40">
       <r>  -23.8701    1.0000 </r>
       <r>  -23.8601    1.0000 </r>
       <r>  -23.8587    1.0000 </r>
       <r>   -2.6739    1.0000 </r>
       <r>    1.3220    1.0000 </r>
       <r>    2.7398    1.0000 </r>
       <r>    2.9994    1.0000 </r>
       <r>    3.4866    1.0000 </r>
       <r>    3.8225    1.0000 </r>
       <r>    3.9278    1.0000 </r>
       <r>    5.1294    1.0000 </r>
       <r>    5.5495    1.0000 </r>
       <r>    8.0890    1.0000 </r>
       <r>    8.9621    0.0000 </r>
       <r>    9.7504    0.0000 </r>
       <r>    9.9785    0.0000 </r>
      </set>
      <set comment="kpoint 41">
       <r>  -23.8699    1.0000 </r>
       <r>  -23.8616    1.0000 </r>
       <r>  -23.8583    1.0000 </r>
       <r>   -2.5546    1.0000 </r>
       <r>    1.4618    1.0000 </r>
       <r>    2.5337    1.0000 </r>
       <r>    2.8883    1.0000 </r>
       <r>    3.3341    1.0000 </r>
       <r>    3.8931    1.0000 </r>
       <r>    3.9284    1.0000 </r>
       <r>    4.8631    1.0000 </r>
       <r>    5.5851    1.0000 </r>
       <r>    8.1870    1.0000 </r>
       <r>    9.3112    0.0000 </r>
       <r>    9.4985    0.0000 </r>
       <r>   10.1498    0.0000 </r>
      </set>
      <set comment="kpoint 42">
       <r>  -23.8688    1.0000 </r>
       <r>  -23.8631    1.0000 </r>
       <r>  -23.8579    1.0000 </r>
       <r>   -2.5150    1.0000 </r>
       <r>    1.5467    1.0000 </r>
       <r>    2.3776    1.0000 </r>
       <r>    2.7356    1.0000 </r>
       <r>    3.2621    1.0000 </r>
       <r>    3.9217    1.0000 </r>
       <r>    4.0855    1.0000 </r>
       <r>    4.6784    1.0000 </r>
       <r>    5.6597    1.0000 </r>
       <r>    8.3669    1.0000 </r>
       <r>    9.2444    0.0000 </r>
       <r>    9.7078    0.0000 </r>
       <r>   10.1431    0.0000 </r>
      </set>
      <set comment="kpoint 43">
       <r>  -23.8679    1.0000 </r>
       <r>  -23.8635    1.0000 </r>
       <r>  -23.8574    1.0000 </r>
       <r>   -2.5653    1.0000 </r>
       <r>    1.4648    1.0000 </r>
       <r>    2.4131    1.0000 </r>
       <r>    2.5836    1.0000 </r>
       <r>    3.3500    1.0000 </r>
       <r>    3.8941    1.0000 </r>
       <r>    4.1883    1.0000 </r>
       <r>    4.6766    1.0000 </r>
       <r>    5.7909    1.0000 </r>
       <r>    8.6028    0.0000 </r>
       <r>    9.1929    0.0000 </r>
       <r>    9.6864    0.0000 </r>
       <r>   10.0782    0.0000 </r>
      </set>
      <set comment="kpoint 44">
       <r>  -23.8707    1.0000 </r>
       <r>  -23.8591    1.0000 </r>
       <r>  -23.8591    1.0000 </r>
       <r>   -2.7333    1.0000 </r>
       <r>    1.2684    1.0000 </r>
       <r>    3.1248    1.0000 </r>
       <r>    3.1248    1.0000 </r>
       <r>    3.1877    1.0000 </r>
       <r>    3.8613    1.0000 </r>
       <r>    3.9987    1.0000 </r>
       <r>    5.4416    1.0000 </r>
       <r>    5.4416    1.0000 </r>
       <r>    7.8791    1.0000 </r>
       <r>    8.6536    0.0000 </r>
       <r>    9.1788    0.0000 </r>
       <r>   10.2428    0.0000 </r>
      </set>
      <set comment="kpoint 45">
       <r>  -23.8715    1.0000 </r>
       <r>  -23.8596    1.0000 </r>
       <r>  -23.8591    1.0000 </r>
       <r>   -2.6261    1.0000 </r>
       <r>    1.3748    1.0000 </r>
       <r>    2.9469    1.0000 </r>
       <r>    3.1315    1.0000 </r>
       <r>    3.3405    1.0000 </r>
       <r>    3.5794    1.0000 </r>
       <r>    4.0299    1.0000 </r>
       <r>    5.2602    1.0000 </r>
       <r>    5.4133    1.0000 </r>
       <r>    7.9131    1.0000 </r>
       <r>    8.6681    0.0000 </r>
       <r>    9.3669    0.0000 </r>
       <r>   10.0304    0.0000 </r>
      </set>
      <set comment="kpoint 46">
       <r>  -23.8712    1.0000 </r>
       <r>  -23.8608    1.0000 </r>
       <r>  -23.8589    1.0000 </r>
       <r>   -2.5466    1.0000 </r>
       <r>    1.5259    1.0000 </r>
       <r>    2.7396    1.0000 </r>
       <r>    3.0513    1.0000 </r>
       <r>    3.2187    1.0000 </r>
       <r>    3.6902    1.0000 </r>
       <r>    4.0182    1.0000 </r>
       <r>    4.9523    1.0000 </r>
       <r>    5.4430    1.0000 </r>
       <r>    7.9994    1.0000 </r>
       <r>    8.9246    0.0000 </r>
       <r>    9.6014    0.0000 </r>
       <r>   10.0305    0.0000 </r>
      </set>
      <set comment="kpoint 47">
       <r>  -23.8700    1.0000 </r>
       <r>  -23.8623    1.0000 </r>
       <r>  -23.8584    1.0000 </r>
       <r>   -2.5080    1.0000 </r>
       <r>    1.6260    1.0000 </r>
       <r>    2.4998    1.0000 </r>
       <r>    2.9049    1.0000 </r>
       <r>    3.1612    1.0000 </r>
       <r>    3.9491    1.0000 </r>
       <r>    3.9818    1.0000 </r>
       <r>    4.6894    1.0000 </r>
       <r>    5.5218    1.0000 </r>
       <r>    8.1445    1.0000 </r>
       <r>    9.3861    0.0000 </r>
       <r>    9.4107    0.0000 </r>
       <r>    9.9284    0.0000 </r>
      </set>
      <set comment="kpoint 48">
       <r>  -23.8724    1.0000 </r>
       <r>  -23.8593    1.0000 </r>
       <r>  -23.8593    1.0000 </r>
       <r>   -2.5823    1.0000 </r>
       <r>    1.4528    1.0000 </r>
       <r>    3.1330    1.0000 </r>
       <r>    3.1931    1.0000 </r>
       <r>    3.1931    1.0000 </r>
       <r>    3.3267    1.0000 </r>
       <r>    4.0848    1.0000 </r>
       <r>    5.3548    1.0000 </r>
       <r>    5.3548    1.0000 </r>
       <r>    7.8405    1.0000 </r>
       <r>    8.5209    0.0000 </r>
       <r>    9.1484    0.0000 </r>
       <r>   10.0166    0.0000 </r>
      </set>
      <set comment="kpoint 49">
       <r>  -23.8723    1.0000 </r>
       <r>  -23.8598    1.0000 </r>
       <r>  -23.8592    1.0000 </r>
       <r>   -2.5546    1.0000 </r>
       <r>    1.5176    1.0000 </r>
       <r>    2.9732    1.0000 </r>
       <r>    3.1642    1.0000 </r>
       <r>    3.1693    1.0000 </r>
       <r>    3.4269    1.0000 </r>
       <r>    4.0770    1.0000 </r>
       <r>    5.2093    1.0000 </r>
       <r>    5.3669    1.0000 </r>
       <r>    7.8807    1.0000 </r>
       <r>    8.6121    0.0000 </r>
       <r>    9.3356    0.0000 </r>
       <r>    9.9315    0.0000 </r>
      </set>
      <set comment="kpoint 50">
       <r>  -23.8616    1.0000 </r>
       <r>  -23.8579    1.0000 </r>
       <r>  -23.8571    1.0000 </r>
       <r>   -3.6584    1.0000 </r>
       <r>    1.9747    1.0000 </r>
       <r>    2.5781    1.0000 </r>
       <r>    2.7540    1.0000 </r>
       <r>    3.5566    1.0000 </r>
       <r>    3.6086    1.0000 </r>
       <r>    5.3288    1.0000 </r>
       <r>    6.0595    1.0000 </r>
       <r>    6.5373    1.0000 </r>
       <r>    8.2371    1.0000 </r>
       <r>    8.7928    0.0000 </r>
       <r>    9.2697    0.0000 </r>
       <r>   10.1012    0.0000 </r>
      </set>
      <set comment="kpoint 51">
       <r>  -23.8642    1.0000 </r>
       <r>  -23.8583    1.0000 </r>
       <r>  -23.8570    1.0000 </r>
       <r>   -3.4030    1.0000 </r>
       <r>    1.7292    1.0000 </r>
       <r>    2.5025    1.0000 </r>
       <r>    2.7619    1.0000 </r>
       <r>    3.6002    1.0000 </r>
       <r>    3.6810    1.0000 </r>
       <r>    4.7637    1.0000 </r>
       <r>    5.7839    1.0000 </r>
       <r>    6.3893    1.0000 </r>
       <r>    8.5621    0.0000 </r>
       <r>    8.8763    0.0000 </r>
       <r>    9.2175    0.0000 </r>
       <r>   10.3675    0.0000 </r>
      </set>
      <set comment="kpoint 52">
       <r>  -23.8671    1.0000 </r>
       <r>  -23.8585    1.0000 </r>
       <r>  -23.8570    1.0000 </r>
       <r>   -3.0999    1.0000 </r>
       <r>    1.4846    1.0000 </r>
       <r>    2.4523    1.0000 </r>
       <r>    2.7080    1.0000 </r>
       <r>    3.6333    1.0000 </r>
       <r>    3.7245    1.0000 </r>
       <r>    4.2272    1.0000 </r>
       <r>    5.6903    1.0000 </r>
       <r>    6.2161    1.0000 </r>
       <r>    8.5648    0.0000 </r>
       <r>    9.1746    0.0000 </r>
       <r>    9.4048    0.0000 </r>
       <r>   10.3746    0.0000 </r>
      </set>
      <set comment="kpoint 53">
       <r>  -23.8695    1.0000 </r>
       <r>  -23.8586    1.0000 </r>
       <r>  -23.8570    1.0000 </r>
       <r>   -2.8137    1.0000 </r>
       <r>    1.2628    1.0000 </r>
       <r>    2.4368    1.0000 </r>
       <r>    2.6313    1.0000 </r>
       <r>    3.6144    1.0000 </r>
       <r>    3.7311    1.0000 </r>
       <r>    3.8833    1.0000 </r>
       <r>    5.6753    1.0000 </r>
       <r>    6.0890    1.0000 </r>
       <r>    8.5679    0.0000 </r>
       <r>    9.3536    0.0000 </r>
       <r>    9.6409    0.0000 </r>
       <r>    9.9419    0.0000 </r>
      </set>
      <set comment="kpoint 54">
       <r>  -23.8709    1.0000 </r>
       <r>  -23.8586    1.0000 </r>
       <r>  -23.8571    1.0000 </r>
       <r>   -2.6325    1.0000 </r>
       <r>    1.1197    1.0000 </r>
       <r>    2.4466    1.0000 </r>
       <r>    2.5690    1.0000 </r>
       <r>    3.5382    1.0000 </r>
       <r>    3.7138    1.0000 </r>
       <r>    3.7848    1.0000 </r>
       <r>    5.6797    1.0000 </r>
       <r>    6.0287    1.0000 </r>
       <r>    8.6510    0.0000 </r>
       <r>    9.2301    0.0000 </r>
       <r>    9.5702    0.0000 </r>
       <r>   10.0908    0.0000 </r>
      </set>
      <set comment="kpoint 55">
       <r>  -23.8646    1.0000 </r>
       <r>  -23.8585    1.0000 </r>
       <r>  -23.8576    1.0000 </r>
       <r>   -3.3302    1.0000 </r>
       <r>    1.5407    1.0000 </r>
       <r>    2.7051    1.0000 </r>
       <r>    2.8514    1.0000 </r>
       <r>    3.5381    1.0000 </r>
       <r>    3.7031    1.0000 </r>
       <r>    4.8415    1.0000 </r>
       <r>    5.6929    1.0000 </r>
       <r>    6.1087    1.0000 </r>
       <r>    8.3325    1.0000 </r>
       <r>    8.8949    0.0000 </r>
       <r>    9.1633    0.0000 </r>
       <r>   10.5053    0.0000 </r>
      </set>
      <set comment="kpoint 56">
       <r>  -23.8668    1.0000 </r>
       <r>  -23.8591    1.0000 </r>
       <r>  -23.8576    1.0000 </r>
       <r>   -3.0708    1.0000 </r>
       <r>    1.3895    1.0000 </r>
       <r>    2.6210    1.0000 </r>
       <r>    2.8442    1.0000 </r>
       <r>    3.5876    1.0000 </r>
       <r>    3.7466    1.0000 </r>
       <r>    4.3961    1.0000 </r>
       <r>    5.4457    1.0000 </r>
       <r>    5.9963    1.0000 </r>
       <r>    8.4704    0.6650 </r>
       <r>    9.0354    0.0000 </r>
       <r>    9.3819    0.0000 </r>
       <r>   10.4307    0.0000 </r>
      </set>
      <set comment="kpoint 57">
       <r>  -23.8687    1.0000 </r>
       <r>  -23.8597    1.0000 </r>
       <r>  -23.8576    1.0000 </r>
       <r>   -2.8127    1.0000 </r>
       <r>    1.2987    1.0000 </r>
       <r>    2.5174    1.0000 </r>
       <r>    2.7863    1.0000 </r>
       <r>    3.6184    1.0000 </r>
       <r>    3.7471    1.0000 </r>
       <r>    4.0173    1.0000 </r>
       <r>    5.3332    1.0000 </r>
       <r>    5.9011    1.0000 </r>
       <r>    8.4799    0.1804 </r>
       <r>    9.1864    0.0000 </r>
       <r>    9.8423    0.0000 </r>
       <r>    9.9539    0.0000 </r>
      </set>
      <set comment="kpoint 58">
       <r>  -23.8698    1.0000 </r>
       <r>  -23.8602    1.0000 </r>
       <r>  -23.8576    1.0000 </r>
       <r>   -2.6246    1.0000 </r>
       <r>    1.2618    1.0000 </r>
       <r>    2.4262    1.0000 </r>
       <r>    2.7140    1.0000 </r>
       <r>    3.5152    1.0000 </r>
       <r>    3.7481    1.0000 </r>
       <r>    3.8974    1.0000 </r>
       <r>    5.2649    1.0000 </r>
       <r>    5.8662    1.0000 </r>
       <r>    8.5375    0.0000 </r>
       <r>    9.2843    0.0000 </r>
       <r>    9.5309    0.0000 </r>
       <r>   10.2764    0.0000 </r>
      </set>
      <set comment="kpoint 59">
       <r>  -23.8699    1.0000 </r>
       <r>  -23.8607    1.0000 </r>
       <r>  -23.8574    1.0000 </r>
       <r>   -2.5701    1.0000 </r>
       <r>    1.2618    1.0000 </r>
       <r>    2.3990    1.0000 </r>
       <r>    2.6489    1.0000 </r>
       <r>    3.4491    1.0000 </r>
       <r>    3.7679    1.0000 </r>
       <r>    3.9082    1.0000 </r>
       <r>    5.2150    1.0000 </r>
       <r>    5.8827    1.0000 </r>
       <r>    8.6677    0.0000 </r>
       <r>    9.0997    0.0000 </r>
       <r>    9.5968    0.0000 </r>
       <r>   10.3895    0.0000 </r>
      </set>
      <set comment="kpoint 60">
       <r>  -23.8691    1.0000 </r>
       <r>  -23.8608    1.0000 </r>
       <r>  -23.8572    1.0000 </r>
       <r>   -2.6704    1.0000 </r>
       <r>    1.2944    1.0000 </r>
       <r>    2.4305    1.0000 </r>
       <r>    2.6361    1.0000 </r>
       <r>    3.5108    1.0000 </r>
       <r>    3.7875    1.0000 </r>
       <r>    3.9762    1.0000 </r>
       <r>    5.1759    1.0000 </r>
       <r>    5.9518    1.0000 </r>
       <r>    8.6958    0.0000 </r>
       <r>    9.2578    0.0000 </r>
       <r>    9.5570    0.0000 </r>
       <r>   10.3267    0.0000 </r>
      </set>
      <set comment="kpoint 61">
       <r>  -23.8677    1.0000 </r>
       <r>  -23.8604    1.0000 </r>
       <r>  -23.8570    1.0000 </r>
       <r>   -2.8882    1.0000 </r>
       <r>    1.3781    1.0000 </r>
       <r>    2.4384    1.0000 </r>
       <r>    2.7193    1.0000 </r>
       <r>    3.5939    1.0000 </r>
       <r>    3.7798    1.0000 </r>
       <r>    4.1854    1.0000 </r>
       <r>    5.1713    1.0000 </r>
       <r>    6.0840    1.0000 </r>
       <r>    8.7310    0.0000 </r>
       <r>    9.1971    0.0000 </r>
       <r>    9.8259    0.0000 </r>
       <r>   10.1224    0.0000 </r>
      </set>
      <set comment="kpoint 62">
       <r>  -23.8659    1.0000 </r>
       <r>  -23.8595    1.0000 </r>
       <r>  -23.8569    1.0000 </r>
       <r>   -3.1544    1.0000 </r>
       <r>    1.5257    1.0000 </r>
       <r>    2.4520    1.0000 </r>
       <r>    2.7937    1.0000 </r>
       <r>    3.6077    1.0000 </r>
       <r>    3.7421    1.0000 </r>
       <r>    4.5096    1.0000 </r>
       <r>    5.3250    1.0000 </r>
       <r>    6.2565    1.0000 </r>
       <r>    8.7999    0.0000 </r>
       <r>    9.0037    0.0000 </r>
       <r>    9.4305    0.0000 </r>
       <r>   10.2975    0.0000 </r>
      </set>
      <set comment="kpoint 63">
       <r>  -23.8677    1.0000 </r>
       <r>  -23.8591    1.0000 </r>
       <r>  -23.8583    1.0000 </r>
       <r>   -2.9784    1.0000 </r>
       <r>    1.2843    1.0000 </r>
       <r>    2.8124    1.0000 </r>
       <r>    2.9689    1.0000 </r>
       <r>    3.4716    1.0000 </r>
       <r>    3.8247    1.0000 </r>
       <r>    4.3670    1.0000 </r>
       <r>    5.4071    1.0000 </r>
       <r>    5.7479    1.0000 </r>
       <r>    8.1735    1.0000 </r>
       <r>    8.9252    0.0000 </r>
       <r>    9.2997    0.0000 </r>
       <r>   10.4359    0.0000 </r>
      </set>
      <set comment="kpoint 64">
       <r>  -23.8690    1.0000 </r>
       <r>  -23.8600    1.0000 </r>
       <r>  -23.8583    1.0000 </r>
       <r>   -2.7711    1.0000 </r>
       <r>    1.2885    1.0000 </r>
       <r>    2.6710    1.0000 </r>
       <r>    2.9631    1.0000 </r>
       <r>    3.5597    1.0000 </r>
       <r>    3.8033    1.0000 </r>
       <r>    4.0533    1.0000 </r>
       <r>    5.1342    1.0000 </r>
       <r>    5.7009    1.0000 </r>
       <r>    8.2637    1.0000 </r>
       <r>    8.9591    0.0000 </r>
       <r>    9.7830    0.0000 </r>
       <r>   10.0050    0.0000 </r>
      </set>
      <set comment="kpoint 65">
       <r>  -23.8695    1.0000 </r>
       <r>  -23.8612    1.0000 </r>
       <r>  -23.8582    1.0000 </r>
       <r>   -2.6071    1.0000 </r>
       <r>    1.3748    1.0000 </r>
       <r>    2.4999    1.0000 </r>
       <r>    2.9017    1.0000 </r>
       <r>    3.4807    1.0000 </r>
       <r>    3.7785    1.0000 </r>
       <r>    3.9617    1.0000 </r>
       <r>    4.9233    1.0000 </r>
       <r>    5.6949    1.0000 </r>
       <r>    8.3319    1.0000 </r>
       <r>    9.1929    0.0000 </r>
       <r>    9.5223    0.0000 </r>
       <r>   10.2082    0.0000 </r>
      </set>
      <set comment="kpoint 66">
       <r>  -23.8691    1.0000 </r>
       <r>  -23.8624    1.0000 </r>
       <r>  -23.8580    1.0000 </r>
       <r>   -2.5294    1.0000 </r>
       <r>    1.4661    1.0000 </r>
       <r>    2.3616    1.0000 </r>
       <r>    2.8013    1.0000 </r>
       <r>    3.3379    1.0000 </r>
       <r>    3.8420    1.0000 </r>
       <r>    4.0143    1.0000 </r>
       <r>    4.7794    1.0000 </r>
       <r>    5.7244    1.0000 </r>
       <r>    8.4707    0.6539 </r>
       <r>    9.1986    0.0000 </r>
       <r>    9.5103    0.0000 </r>
       <r>   10.1731    0.0000 </r>
      </set>
      <set comment="kpoint 67">
       <r>  -23.8684    1.0000 </r>
       <r>  -23.8629    1.0000 </r>
       <r>  -23.8576    1.0000 </r>
       <r>   -2.5598    1.0000 </r>
       <r>    1.4482    1.0000 </r>
       <r>    2.3618    1.0000 </r>
       <r>    2.6979    1.0000 </r>
       <r>    3.3675    1.0000 </r>
       <r>    3.8559    1.0000 </r>
       <r>    4.1129    1.0000 </r>
       <r>    4.7248    1.0000 </r>
       <r>    5.7941    1.0000 </r>
       <r>    8.6675    0.0000 </r>
       <r>    9.1134    0.0000 </r>
       <r>    9.5349    0.0000 </r>
       <r>   10.1974    0.0000 </r>
      </set>
      <set comment="kpoint 68">
       <r>  -23.8679    1.0000 </r>
       <r>  -23.8622    1.0000 </r>
       <r>  -23.8572    1.0000 </r>
       <r>   -2.6912    1.0000 </r>
       <r>    1.3768    1.0000 </r>
       <r>    2.4310    1.0000 </r>
       <r>    2.6649    1.0000 </r>
       <r>    3.4948    1.0000 </r>
       <r>    3.8285    1.0000 </r>
       <r>    4.1774    1.0000 </r>
       <r>    4.8286    1.0000 </r>
       <r>    5.9196    1.0000 </r>
       <r>    8.7487    0.0000 </r>
       <r>    9.2733    0.0000 </r>
       <r>    9.5322    0.0000 </r>
       <r>   10.2002    0.0000 </r>
      </set>
      <set comment="kpoint 69">
       <r>  -23.8703    1.0000 </r>
       <r>  -23.8597    1.0000 </r>
       <r>  -23.8589    1.0000 </r>
       <r>   -2.7021    1.0000 </r>
       <r>    1.3011    1.0000 </r>
       <r>    2.8385    1.0000 </r>
       <r>    3.0954    1.0000 </r>
       <r>    3.4325    1.0000 </r>
       <r>    3.8020    1.0000 </r>
       <r>    3.9775    1.0000 </r>
       <r>    5.1875    1.0000 </r>
       <r>    5.5338    1.0000 </r>
       <r>    8.0285    1.0000 </r>
       <r>    8.7610    0.0000 </r>
       <r>    9.5482    0.0000 </r>
       <r>   10.0573    0.0000 </r>
      </set>
      <set comment="kpoint 70">
       <r>  -23.8705    1.0000 </r>
       <r>  -23.8607    1.0000 </r>
       <r>  -23.8589    1.0000 </r>
       <r>   -2.5835    1.0000 </r>
       <r>    1.4441    1.0000 </r>
       <r>    2.6575    1.0000 </r>
       <r>    3.0738    1.0000 </r>
       <r>    3.4188    1.0000 </r>
       <r>    3.6748    1.0000 </r>
       <r>    3.9803    1.0000 </r>
       <r>    4.8754    1.0000 </r>
       <r>    5.5570    1.0000 </r>
       <r>    8.1166    1.0000 </r>
       <r>    8.8745    0.0000 </r>
       <r>    9.6510    0.0000 </r>
       <r>   10.0643    0.0000 </r>
      </set>
      <set comment="kpoint 71">
       <r>  -23.8697    1.0000 </r>
       <r>  -23.8623    1.0000 </r>
       <r>  -23.8586    1.0000 </r>
       <r>   -2.5136    1.0000 </r>
       <r>    1.6039    1.0000 </r>
       <r>    2.4496    1.0000 </r>
       <r>    2.9782    1.0000 </r>
       <r>    3.2239    1.0000 </r>
       <r>    3.8870    1.0000 </r>
       <r>    3.9792    1.0000 </r>
       <r>    4.6049    1.0000 </r>
       <r>    5.6004    1.0000 </r>
       <r>    8.2405    1.0000 </r>
       <r>    9.1855    0.0000 </r>
       <r>    9.4310    0.0000 </r>
       <r>    9.8977    0.0000 </r>
      </set>
      <set comment="kpoint 72">
       <r>  -23.8685    1.0000 </r>
       <r>  -23.8635    1.0000 </r>
       <r>  -23.8581    1.0000 </r>
       <r>   -2.5049    1.0000 </r>
       <r>    1.6217    1.0000 </r>
       <r>    2.3134    1.0000 </r>
       <r>    2.8332    1.0000 </r>
       <r>    3.2323    1.0000 </r>
       <r>    3.9146    1.0000 </r>
       <r>    4.1503    1.0000 </r>
       <r>    4.4710    1.0000 </r>
       <r>    5.6733    1.0000 </r>
       <r>    8.4435    1.0000 </r>
       <r>    9.1630    0.0000 </r>
       <r>    9.5715    0.0000 </r>
       <r>    9.9449    0.0000 </r>
      </set>
      <set comment="kpoint 73">
       <r>  -23.8718    1.0000 </r>
       <r>  -23.8600    1.0000 </r>
       <r>  -23.8592    1.0000 </r>
       <r>   -2.5628    1.0000 </r>
       <r>    1.4946    1.0000 </r>
       <r>    2.8445    1.0000 </r>
       <r>    3.1446    1.0000 </r>
       <r>    3.3306    1.0000 </r>
       <r>    3.4580    1.0000 </r>
       <r>    4.0463    1.0000 </r>
       <r>    5.0564    1.0000 </r>
       <r>    5.4517    1.0000 </r>
       <r>    7.9483    1.0000 </r>
       <r>    8.6559    0.0000 </r>
       <r>    9.5624    0.0000 </r>
       <r>    9.9198    0.0000 </r>
      </set>
      <set comment="kpoint 74">
       <r>  -23.8711    1.0000 </r>
       <r>  -23.8610    1.0000 </r>
       <r>  -23.8590    1.0000 </r>
       <r>   -2.5243    1.0000 </r>
       <r>    1.5972    1.0000 </r>
       <r>    2.6548    1.0000 </r>
       <r>    3.0802    1.0000 </r>
       <r>    3.2289    1.0000 </r>
       <r>    3.6602    1.0000 </r>
       <r>    4.0145    1.0000 </r>
       <r>    4.7706    1.0000 </r>
       <r>    5.5183    1.0000 </r>
       <r>    8.0653    1.0000 </r>
       <r>    8.8346    0.0000 </r>
       <r>    9.6399    0.0000 </r>
       <r>    9.8415    0.0000 </r>
      </set>
      <set comment="kpoint 75">
       <r>  -23.8679    1.0000 </r>
       <r>  -23.8605    1.0000 </r>
       <r>  -23.8576    1.0000 </r>
       <r>   -2.8499    1.0000 </r>
       <r>    1.3287    1.0000 </r>
       <r>    2.5498    1.0000 </r>
       <r>    2.8517    1.0000 </r>
       <r>    3.6124    1.0000 </r>
       <r>    3.7516    1.0000 </r>
       <r>    4.2171    1.0000 </r>
       <r>    5.0592    1.0000 </r>
       <r>    5.9052    1.0000 </r>
       <r>    8.5836    0.0000 </r>
       <r>    8.9875    0.0000 </r>
       <r>    9.8486    0.0000 </r>
       <r>   10.0683    0.0000 </r>
      </set>
      <set comment="kpoint 76">
       <r>  -23.8686    1.0000 </r>
       <r>  -23.8616    1.0000 </r>
       <r>  -23.8578    1.0000 </r>
       <r>   -2.6579    1.0000 </r>
       <r>    1.3604    1.0000 </r>
       <r>    2.4440    1.0000 </r>
       <r>    2.8303    1.0000 </r>
       <r>    3.5324    1.0000 </r>
       <r>    3.7581    1.0000 </r>
       <r>    4.0733    1.0000 </r>
       <r>    4.8640    1.0000 </r>
       <r>    5.8193    1.0000 </r>
       <r>    8.6223    0.0000 </r>
       <r>    9.1029    0.0000 </r>
       <r>    9.5049    0.0000 </r>
       <r>   10.2756    0.0000 </r>
      </set>
      <set comment="kpoint 77">
       <r>  -23.8690    1.0000 </r>
       <r>  -23.8622    1.0000 </r>
       <r>  -23.8579    1.0000 </r>
       <r>   -2.5460    1.0000 </r>
       <r>    1.4327    1.0000 </r>
       <r>    2.3373    1.0000 </r>
       <r>    2.8230    1.0000 </r>
       <r>    3.3960    1.0000 </r>
       <r>    3.7777    1.0000 </r>
       <r>    4.0270    1.0000 </r>
       <r>    4.7829    1.0000 </r>
       <r>    5.7820    1.0000 </r>
       <r>    8.6886    0.0000 </r>
       <r>    9.0291    0.0000 </r>
       <r>    9.4251    0.0000 </r>
       <r>   10.2136    0.0000 </r>
      </set>
      <set comment="kpoint 78">
       <r>  -23.8693    1.0000 </r>
       <r>  -23.8612    1.0000 </r>
       <r>  -23.8585    1.0000 </r>
[...]
       <r>    8.9183    0.0000 </r>
       <r>    9.5570    0.0000 </r>
       <r>   10.1465    0.0000 </r>
      </set>
      <set comment="kpoint 79">
       <r>  -23.8690    1.0000 </r>
       <r>  -23.8625    1.0000 </r>
       <r>  -23.8586    1.0000 </r>
       <r>   -2.5281    1.0000 </r>
       <r>    1.5638    1.0000 </r>
       <r>    2.3710    1.0000 </r>
       <r>    3.0174    1.0000 </r>
       <r>    3.3752    1.0000 </r>
       <r>    3.7607    1.0000 </r>
       <r>    4.0227    1.0000 </r>
       <r>    4.4947    1.0000 </r>
       <r>    5.7035    1.0000 </r>
       <r>    8.5057    0.0000 </r>
       <r>    9.0738    0.0000 </r>
       <r>    9.2253    0.0000 </r>
       <r>    9.9607    0.0000 </r>
      </set>
      <set comment="kpoint 80">
       <r>  -23.8684    1.0000 </r>
       <r>  -23.8634    1.0000 </r>
       <r>  -23.8585    1.0000 </r>
       <r>   -2.4997    1.0000 </r>
       <r>    1.6509    1.0000 </r>
       <r>    2.2639    1.0000 </r>
       <r>    2.9766    1.0000 </r>
       <r>    3.2805    1.0000 </r>
       <r>    3.8343    1.0000 </r>
       <r>    4.1052    1.0000 </r>
       <r>    4.3442    1.0000 </r>
       <r>    5.7236    1.0000 </r>
       <r>    8.6703    0.0000 </r>
       <r>    8.9920    0.0000 </r>
       <r>    9.2724    0.0000 </r>
       <r>    9.8403    0.0000 </r>
      </set>
      <set comment="kpoint 81">
       <r>  -23.8683    1.0000 </r>
       <r>  -23.8631    1.0000 </r>
       <r>  -23.8581    1.0000 </r>
       <r>   -2.5457    1.0000 </r>
       <r>    1.5222    1.0000 </r>
       <r>    2.3279    1.0000 </r>
       <r>    2.9008    1.0000 </r>
       <r>    3.3723    1.0000 </r>
       <r>    3.8099    1.0000 </r>
       <r>    4.1380    1.0000 </r>
       <r>    4.4837    1.0000 </r>
       <r>    5.7546    1.0000 </r>
       <r>    8.7524    0.0000 </r>
       <r>    9.0188    0.0000 </r>
       <r>    9.2278    0.0000 </r>
       <r>   10.1236    0.0000 </r>
      </set>
      <set comment="kpoint 82">
       <r>  -23.8701    1.0000 </r>
       <r>  -23.8617    1.0000 </r>
       <r>  -23.8591    1.0000 </r>
       <r>   -2.5192    1.0000 </r>
       <r>    1.6138    1.0000 </r>
       <r>    2.5021    1.0000 </r>
       <r>    3.0833    1.0000 </r>
       <r>    3.4017    1.0000 </r>
       <r>    3.6367    1.0000 </r>
       <r>    3.9736    1.0000 </r>
       <r>    4.5460    1.0000 </r>
       <r>    5.6299    1.0000 </r>
       <r>    8.2691    1.0000 </r>
       <r>    8.8309    0.0000 </r>
       <r>    9.4905    0.0000 </r>
       <r>    9.8257    0.0000 </r>
      </set>
      <set comment="kpoint 83">
       <r>  -23.8691    1.0000 </r>
       <r>  -23.8629    1.0000 </r>
       <r>  -23.8589    1.0000 </r>
       <r>   -2.4906    1.0000 </r>
       <r>    1.7296    1.0000 </r>
       <r>    2.3330    1.0000 </r>
       <r>    3.0470    1.0000 </r>
       <r>    3.3086    1.0000 </r>
       <r>    3.8445    1.0000 </r>
       <r>    3.9277    1.0000 </r>
       <r>    4.3214    1.0000 </r>
       <r>    5.6845    1.0000 </r>
       <r>    8.4573    0.9889 </r>
       <r>    8.9830    0.0000 </r>
       <r>    9.3041    0.0000 </r>
       <r>    9.6700    0.0000 </r>
      </set>
      <set comment="kpoint 84">
       <r>  -23.8684    1.0000 </r>
       <r>  -23.8635    1.0000 </r>
       <r>  -23.8589    1.0000 </r>
       <r>   -2.4864    1.0000 </r>
       <r>    1.7594    1.0000 </r>
       <r>    2.2535    1.0000 </r>
       <r>    3.0478    1.0000 </r>
       <r>    3.3926    1.0000 </r>
       <r>    3.7846    1.0000 </r>
       <r>    3.9623    1.0000 </r>
       <r>    4.2083    1.0000 </r>
       <r>    5.7282    1.0000 </r>
       <r>    8.7470    0.0000 </r>
       <r>    8.9588    0.0000 </r>
       <r>    9.0380    0.0000 </r>
       <r>    9.6636    0.0000 </r>
      </set>
     </set>
    </set>
   </array>
  </eigenvalues>
  <separator name="orbital magnetization" >
   <v name="MAGDIPOLOUT">      0.00000000      0.00000000      0.00000000</v>
  </separator>
  <dos>
   <i name="efermi">      8.47345162 </i>
   <total>
    <array>
     <dimension dim="1">gridpoints</dimension>
     <dimension dim="2">spin</dimension>
     <field>energy</field>
     <field>total</field>
     <field>integrated</field>
     <set>
      <set comment="spin 1">
       <r>   -25.6192     0.0000     0.0000 </r>
       <r>   -25.4911     0.0000     0.0000 </r>
       <r>   -25.3630     0.0000     0.0000 </r>
       <r>   -25.2349     0.0000     0.0000 </r>
       <r>   -25.1068     0.0000     0.0000 </r>
       <r>   -24.9787     0.0000     0.0000 </r>
       <r>   -24.8506     0.0000     0.0000 </r>
       <r>   -24.7225     0.0000     0.0000 </r>
       <r>   -24.5944     0.0000     0.0000 </r>
       <r>   -24.4663     0.0000     0.0000 </r>
       <r>   -24.3382     0.0000     0.0000 </r>
       <r>   -24.2101     0.0000     0.0000 </r>
       <r>   -24.0820     0.0000     0.0000 </r>
       <r>   -23.9540     0.0000     0.0000 </r>
       <r>   -23.8259    46.8401     6.0000 </r>
       <r>   -23.6978     0.0000     6.0000 </r>
       <r>   -23.5697     0.0000     6.0000 </r>
       <r>   -23.4416     0.0000     6.0000 </r>
       <r>   -23.3135     0.0000     6.0000 </r>
       <r>   -23.1854     0.0000     6.0000 </r>
       <r>   -23.0573     0.0000     6.0000 </r>
       <r>   -22.9292     0.0000     6.0000 </r>
       <r>   -22.8011     0.0000     6.0000 </r>
       <r>   -22.6730     0.0000     6.0000 </r>
       <r>   -22.5449     0.0000     6.0000 </r>
       <r>   -22.4168     0.0000     6.0000 </r>
       <r>   -22.2887     0.0000     6.0000 </r>
       <r>   -22.1606     0.0000     6.0000 </r>
       <r>   -22.0325     0.0000     6.0000 </r>
       <r>   -21.9044     0.0000     6.0000 </r>
       <r>   -21.7763     0.0000     6.0000 </r>
       <r>   -21.6482     0.0000     6.0000 </r>
       <r>   -21.5201     0.0000     6.0000 </r>
       <r>   -21.3920     0.0000     6.0000 </r>
       <r>   -21.2640     0.0000     6.0000 </r>
       <r>   -21.1359     0.0000     6.0000 </r>
       <r>   -21.0078     0.0000     6.0000 </r>
       <r>   -20.8797     0.0000     6.0000 </r>
       <r>   -20.7516     0.0000     6.0000 </r>
       <r>   -20.6235     0.0000     6.0000 </r>
       <r>   -20.4954     0.0000     6.0000 </r>
       <r>   -20.3673     0.0000     6.0000 </r>
       <r>   -20.2392     0.0000     6.0000 </r>
       <r>   -20.1111     0.0000     6.0000 </r>
       <r>   -19.9830     0.0000     6.0000 </r>
       <r>   -19.8549     0.0000     6.0000 </r>
       <r>   -19.7268     0.0000     6.0000 </r>
       <r>   -19.5987     0.0000     6.0000 </r>
       <r>   -19.4706     0.0000     6.0000 </r>
       <r>   -19.3425     0.0000     6.0000 </r>
       <r>   -19.2144     0.0000     6.0000 </r>
       <r>   -19.0863     0.0000     6.0000 </r>
       <r>   -18.9582     0.0000     6.0000 </r>
       <r>   -18.8301     0.0000     6.0000 </r>
       <r>   -18.7020     0.0000     6.0000 </r>
       <r>   -18.5740     0.0000     6.0000 </r>
       <r>   -18.4459     0.0000     6.0000 </r>
       <r>   -18.3178     0.0000     6.0000 </r>
       <r>   -18.1897     0.0000     6.0000 </r>
       <r>   -18.0616     0.0000     6.0000 </r>
       <r>   -17.9335     0.0000     6.0000 </r>
       <r>   -17.8054     0.0000     6.0000 </r>
       <r>   -17.6773     0.0000     6.0000 </r>
       <r>   -17.5492     0.0000     6.0000 </r>
       <r>   -17.4211     0.0000     6.0000 </r>
       <r>   -17.2930     0.0000     6.0000 </r>
       <r>   -17.1649     0.0000     6.0000 </r>
       <r>   -17.0368     0.0000     6.0000 </r>
       <r>   -16.9087     0.0000     6.0000 </r>
       <r>   -16.7806     0.0000     6.0000 </r>
       <r>   -16.6525     0.0000     6.0000 </r>
       <r>   -16.5244     0.0000     6.0000 </r>
       <r>   -16.3963     0.0000     6.0000 </r>
       <r>   -16.2682     0.0000     6.0000 </r>
       <r>   -16.1401     0.0000     6.0000 </r>
       <r>   -16.0120     0.0000     6.0000 </r>
       <r>   -15.8840     0.0000     6.0000 </r>
       <r>   -15.7559     0.0000     6.0000 </r>
       <r>   -15.6278     0.0000     6.0000 </r>
       <r>   -15.4997     0.0000     6.0000 </r>
       <r>   -15.3716     0.0000     6.0000 </r>
       <r>   -15.2435     0.0000     6.0000 </r>
       <r>   -15.1154     0.0000     6.0000 </r>
       <r>   -14.9873     0.0000     6.0000 </r>
       <r>   -14.8592     0.0000     6.0000 </r>
       <r>   -14.7311     0.0000     6.0000 </r>
       <r>   -14.6030     0.0000     6.0000 </r>
       <r>   -14.4749     0.0000     6.0000 </r>
       <r>   -14.3468     0.0000     6.0000 </r>
       <r>   -14.2187     0.0000     6.0000 </r>
       <r>   -14.0906     0.0000     6.0000 </r>
       <r>   -13.9625     0.0000     6.0000 </r>
       <r>   -13.8344     0.0000     6.0000 </r>
       <r>   -13.7063     0.0000     6.0000 </r>
       <r>   -13.5782     0.0000     6.0000 </r>
       <r>   -13.4501     0.0000     6.0000 </r>
       <r>   -13.3220     0.0000     6.0000 </r>
       <r>   -13.1940     0.0000     6.0000 </r>
       <r>   -13.0659     0.0000     6.0000 </r>
       <r>   -12.9378     0.0000     6.0000 </r>
       <r>   -12.8097     0.0000     6.0000 </r>
       <r>   -12.6816     0.0000     6.0000 </r>
       <r>   -12.5535     0.0000     6.0000 </r>
       <r>   -12.4254     0.0000     6.0000 </r>
       <r>   -12.2973     0.0000     6.0000 </r>
       <r>   -12.1692     0.0000     6.0000 </r>
       <r>   -12.0411     0.0000     6.0000 </r>
       <r>   -11.9130     0.0000     6.0000 </r>
       <r>   -11.7849     0.0000     6.0000 </r>
       <r>   -11.6568     0.0000     6.0000 </r>
       <r>   -11.5287     0.0000     6.0000 </r>
       <r>   -11.4006     0.0000     6.0000 </r>
       <r>   -11.2725     0.0000     6.0000 </r>
       <r>   -11.1444     0.0000     6.0000 </r>
       <r>   -11.0163     0.0000     6.0000 </r>
       <r>   -10.8882     0.0000     6.0000 </r>
       <r>   -10.7601     0.0000     6.0000 </r>
       <r>   -10.6320     0.0000     6.0000 </r>
       <r>   -10.5040     0.0000     6.0000 </r>
       <r>   -10.3759     0.0000     6.0000 </r>
       <r>   -10.2478     0.0000     6.0000 </r>
       <r>   -10.1197     0.0000     6.0000 </r>
       <r>    -9.9916     0.0000     6.0000 </r>
       <r>    -9.8635     0.0000     6.0000 </r>
       <r>    -9.7354     0.0000     6.0000 </r>
       <r>    -9.6073     0.0000     6.0000 </r>
       <r>    -9.4792     0.0000     6.0000 </r>
       <r>    -9.3511     0.0000     6.0000 </r>
       <r>    -9.2230     0.0000     6.0000 </r>
       <r>    -9.0949     0.0000     6.0000 </r>
       <r>    -8.9668     0.0000     6.0000 </r>
       <r>    -8.8387     0.0000     6.0000 </r>
       <r>    -8.7106     0.0000     6.0000 </r>
       <r>    -8.5825     0.0000     6.0000 </r>
       <r>    -8.4544     0.0000     6.0000 </r>
       <r>    -8.3263     0.0000     6.0000 </r>
       <r>    -8.1982     0.0000     6.0000 </r>
       <r>    -8.0701     0.0000     6.0000 </r>
       <r>    -7.9420     0.0000     6.0000 </r>
       <r>    -7.8140     0.0000     6.0000 </r>
       <r>    -7.6859     0.0000     6.0000 </r>
       <r>    -7.5578     0.0000     6.0000 </r>
       <r>    -7.4297     0.0000     6.0000 </r>
       <r>    -7.3016     0.0000     6.0000 </r>
       <r>    -7.1735     0.0000     6.0000 </r>
       <r>    -7.0454     0.0000     6.0000 </r>
       <r>    -6.9173     0.0000     6.0000 </r>
       <r>    -6.7892     0.0000     6.0000 </r>
       <r>    -6.6611     0.0000     6.0000 </r>
       <r>    -6.5330     0.0000     6.0000 </r>
       <r>    -6.4049     0.0000     6.0000 </r>
       <r>    -6.2768     0.0000     6.0000 </r>
       <r>    -6.1487     0.0000     6.0000 </r>
       <r>    -6.0206     0.0000     6.0000 </r>
       <r>    -5.8925     0.0000     6.0000 </r>
       <r>    -5.7644     0.0000     6.0000 </r>
       <r>    -5.6363     0.0000     6.0000 </r>
       <r>    -5.5082     0.0000     6.0000 </r>
       <r>    -5.3801     0.0000     6.0000 </r>
       <r>    -5.2520     0.0000     6.0000 </r>
       <r>    -5.1240     0.0000     6.0000 </r>
       <r>    -4.9959     0.0000     6.0000 </r>
       <r>    -4.8678     0.0000     6.0000 </r>
       <r>    -4.7397     0.0000     6.0000 </r>
       <r>    -4.6116     0.0000     6.0000 </r>
       <r>    -4.4835     0.0000     6.0000 </r>
       <r>    -4.3554     0.0000     6.0000 </r>
       <r>    -4.2273     0.0000     6.0000 </r>
       <r>    -4.0992     0.0000     6.0000 </r>
       <r>    -3.9711     0.0677     6.0087 </r>
       <r>    -3.8430     0.0866     6.0247 </r>
       <r>    -3.7149     0.0424     6.0591 </r>
       <r>    -3.5868     0.2502     6.1131 </r>
       <r>    -3.4587     0.2378     6.1552 </r>
       <r>    -3.3306     0.6359     6.2462 </r>
       <r>    -3.2025     0.3692     6.3049 </r>
       <r>    -3.0744     0.4467     6.4314 </r>
       <r>    -2.9463     0.4959     6.5524 </r>
       <r>    -2.8182     1.0717     6.7244 </r>
       <r>    -2.6901     0.9472     6.9780 </r>
       <r>    -2.5620     3.0054     7.5165 </r>
       <r>    -2.4340     1.2792     8.0000 </r>
       <r>    -2.3059     0.0000     8.0000 </r>
       <r>    -2.1778     0.0000     8.0000 </r>
       <r>    -2.0497     0.0000     8.0000 </r>
       <r>    -1.9216     0.0000     8.0000 </r>
       <r>    -1.7935     0.0000     8.0000 </r>
       <r>    -1.6654     0.0000     8.0000 </r>
       <r>    -1.5373     0.0000     8.0000 </r>
       <r>    -1.4092     0.0000     8.0000 </r>
       <r>    -1.2811     0.0000     8.0000 </r>
       <r>    -1.1530     0.0000     8.0000 </r>
       <r>    -1.0249     0.0000     8.0000 </r>
       <r>    -0.8968     0.0000     8.0000 </r>
       <r>    -0.7687     0.0000     8.0000 </r>
       <r>    -0.6406     0.0000     8.0000 </r>
       <r>    -0.5125     0.0000     8.0000 </r>
       <r>    -0.3844     0.0000     8.0000 </r>
       <r>    -0.2563     0.0000     8.0000 </r>
       <r>    -0.1282     0.0000     8.0000 </r>
       <r>    -0.0001     0.0000     8.0000 </r>
       <r>     0.1280     0.0000     8.0000 </r>
       <r>     0.2560     0.0000     8.0000 </r>
       <r>     0.3841     0.0000     8.0000 </r>
       <r>     0.5122     0.0000     8.0000 </r>
       <r>     0.6403     0.0000     8.0000 </r>
       <r>     0.7684     0.0000     8.0000 </r>
       <r>     0.8965     0.0000     8.0000 </r>
       <r>     1.0246     0.1741     8.0223 </r>
       <r>     1.1527     0.6779     8.1160 </r>
       <r>     1.2808     1.6910     8.3768 </r>
       <r>     1.4089     2.8967     9.0083 </r>
       <r>     1.5370     2.0392     9.4173 </r>
       <r>     1.6651     1.4432     9.7179 </r>
       <r>     1.7932     0.8749     9.8381 </r>
       <r>     1.9213     0.0853     9.8680 </r>
       <r>     2.0494     0.2701     9.9244 </r>
       <r>     2.1775     0.1706     9.9463 </r>
       <r>     2.3056     0.5348    10.0366 </r>
       <r>     2.4337     3.6935    10.6233 </r>
       <r>     2.5618     4.1363    11.6250 </r>
       <r>     2.6899     4.0420    12.3302 </r>
       <r>     2.8180     2.7909    12.9920 </r>
       <r>     2.9460     1.4407    13.4526 </r>
       <r>     3.0741     1.6774    13.8435 </r>
       <r>     3.2022     0.8458    14.0319 </r>
       <r>     3.3303     0.9434    14.2629 </r>
       <r>     3.4584     2.3044    14.7649 </r>
       <r>     3.5865     4.3262    15.5373 </r>
       <r>     3.7146     4.5954    16.6642 </r>
       <r>     3.8427     5.7195    17.9097 </r>
       <r>     3.9708     3.0971    18.5424 </r>
       <r>     4.0989     2.5891    19.2147 </r>
       <r>     4.2270     1.4890    19.5490 </r>
       <r>     4.3551     0.7187    19.6651 </r>
       <r>     4.4832     0.4626    19.7962 </r>
       <r>     4.6113     0.7904    19.9747 </r>
       <r>     4.7394     0.8910    20.0968 </r>
       <r>     4.8675     0.7568    20.3709 </r>
       <r>     4.9956     0.8505    20.5468 </r>
       <r>     5.1237     0.5860    20.6440 </r>
       <r>     5.2518     1.1399    20.9280 </r>
       <r>     5.3799     0.8500    21.1203 </r>
       <r>     5.5080     1.4946    21.3776 </r>
       <r>     5.6360     1.2442    21.6368 </r>
       <r>     5.7641     3.8754    22.3071 </r>
       <r>     5.8922     1.2708    22.6616 </r>
       <r>     6.0203     2.2116    23.0662 </r>
       <r>     6.1484     1.8875    23.4179 </r>
       <r>     6.2765     0.9662    23.6313 </r>
       <r>     6.4046     0.8453    23.7942 </r>
       <r>     6.5327     0.5766    23.8745 </r>
       <r>     6.6608     0.0103    23.9258 </r>
       <r>     6.7889     0.0853    23.9718 </r>
       <r>     6.9170     0.0209    24.0000 </r>
       <r>     7.0451     0.0000    24.0000 </r>
       <r>     7.1732     0.0000    24.0000 </r>
       <r>     7.3013     0.0071    24.0009 </r>
       <r>     7.4294     0.0000    24.0009 </r>
       <r>     7.5575     0.0004    24.0010 </r>
       <r>     7.6856     0.0421    24.0136 </r>
       <r>     7.8137     0.0003    24.0137 </r>
       <r>     7.9418     0.5618    24.1093 </r>
       <r>     8.0699     0.6953    24.2247 </r>
       <r>     8.1980     0.9554    24.4182 </r>
       <r>     8.3260     0.9622    24.6339 </r>
       <r>     8.4541     1.2893    24.9162 </r>
       <r>     8.5822     2.2079    25.3688 </r>
       <r>     8.7103     3.0226    25.8792 </r>
       <r>     8.8384     1.3873    26.1886 </r>
       <r>     8.9665     1.5565    26.5380 </r>
       <r>     9.0946     2.3910    27.0054 </r>
       <r>     9.2227     4.4547    27.7249 </r>
       <r>     9.3508     2.4947    28.3660 </r>
       <r>     9.4789     2.7042    28.8962 </r>
       <r>     9.6070     3.8890    29.6124 </r>
       <r>     9.7351     0.7442    29.8687 </r>
       <r>     9.8632     1.8785    30.2179 </r>
       <r>     9.9913     1.9359    30.5202 </r>
       <r>    10.1194     1.9932    30.9117 </r>
       <r>    10.2475     2.2558    31.3331 </r>
       <r>    10.3756     1.6895    31.6811 </r>
       <r>    10.5037     0.8086    31.8523 </r>
       <r>    10.6318     0.7747    31.9700 </r>
       <r>    10.7599     0.1706    31.9927 </r>
       <r>    10.8880     0.0000    31.9927 </r>
       <r>    11.0160     0.0000    31.9927 </r>
       <r>    11.1441     0.0000    32.0000 </r>
       <r>    11.2722     0.0000    32.0000 </r>
       <r>    11.4003     0.0000    32.0000 </r>
       <r>    11.5284     0.0000    32.0000 </r>
       <r>    11.6565     0.0000    32.0000 </r>
       <r>    11.7846     0.0000    32.0000 </r>
       <r>    11.9127     0.0000    32.0000 </r>
       <r>    12.0408     0.0000    32.0000 </r>
       <r>    12.1689     0.0000    32.0000 </r>
       <r>    12.2970     0.0000    32.0000 </r>
       <r>    12.4251     0.0000    32.0000 </r>
       <r>    12.5532     0.0000    32.0000 </r>
       <r>    12.6813     0.0000    32.0000 </r>
       <r>    12.8094     0.0000    32.0000 </r>
      </set>
     </set>
    </array>
   </total>
  </dos>
 </calculation>
 <structure name="finalpos" >
  <crystal>
   <varray name="basis" >
    <v>       0.00000000       3.22010832       3.22010832 </v>
    <v>       3.22010832       0.00000000       3.22010832 </v>
    <v>       3.22010832       3.22010832       0.00000000 </v>
   </varray>
   <i name="volume">     66.77923502 </i>
   <varray name="rec_basis" >
    <v>      -0.15527428       0.15527428       0.15527428 </v>
    <v>       0.15527428      -0.15527428       0.15527428 </v>
    <v>       0.15527428       0.15527428      -0.15527428 </v>
   </varray>
  </crystal>
  <varray name="positions" >
   <v>       0.75000000       0.75000000       0.75000000 </v>
   <v>       0.25000000       0.25000000       0.25000000 </v>
   <v>       0.00000000       0.00000000       0.00000000 </v>
  </varray>
 </structure>
</modeling>
