   2   2   0   0
  0.3509463E+02  0.4630152E-09  0.4630152E-09  0.4630152E-09  0.0000000E+00
  1.000000000000000E-004
  CAR 
 unknown system                          
     11.44520975     -7.46280854  301      3.13356004      1.00000000
     -7.463  0.0000E+00  0.0000E+00
     -7.400  0.0000E+00  0.0000E+00
     -7.337  0.0000E+00  0.0000E+00
     -7.274  0.0000E+00  0.0000E+00
     -7.211  0.0000E+00  0.0000E+00
     -7.148  0.0000E+00  0.0000E+00
     -7.085  0.0000E+00  0.0000E+00
     -7.022  0.0000E+00  0.0000E+00
     -6.959  0.0000E+00  0.0000E+00
     -6.896  0.0000E+00  0.0000E+00
     -6.833  0.0000E+00  0.0000E+00
     -6.770  0.0000E+00  0.0000E+00
     -6.706  0.0000E+00  0.0000E+00
     -6.643  0.0000E+00  0.0000E+00
     -6.580  0.1237E+00  0.9449E-03
     -6.517  0.2449E+00  0.1241E-01
     -6.454  0.3369E+00  0.3043E-01
     -6.391  0.4056E+00  0.5383E-01
     -6.328  0.4842E+00  0.8195E-01
     -6.265  0.5493E+00  0.1144E+00
     -6.202  0.6238E+00  0.1514E+00
     -6.139  0.6935E+00  0.1928E+00
     -6.076  0.7710E+00  0.2390E+00
     -6.013  0.8553E+00  0.2902E+00
     -5.950  0.9485E+00  0.3470E+00
     -5.887  0.1051E+01  0.4099E+00
     -5.824  0.1183E+01  0.4802E+00
     -5.761  0.1339E+01  0.5595E+00
     -5.698  0.1543E+01  0.6497E+00
     -5.635  0.1888E+01  0.7568E+00
     -5.572  0.2427E+01  0.8966E+00
     -5.509  0.2508E+01  0.1054E+01
     -5.446  0.2488E+01  0.1210E+01
     -5.383  0.2545E+01  0.1369E+01
     -5.320  0.2615E+01  0.1531E+01
     -5.257  0.2833E+01  0.1702E+01
     -5.194  0.3559E+01  0.1895E+01
     -5.131  0.0000E+00  0.2000E+01
     -5.068  0.0000E+00  0.2000E+01
     -5.005  0.0000E+00  0.2000E+01
     -4.942  0.0000E+00  0.2000E+01
     -4.879  0.0000E+00  0.2000E+01
     -4.816  0.0000E+00  0.2000E+01
     -4.753  0.0000E+00  0.2000E+01
     -4.690  0.0000E+00  0.2000E+01
     -4.627  0.0000E+00  0.2000E+01
     -4.564  0.0000E+00  0.2000E+01
     -4.501  0.0000E+00  0.2000E+01
     -4.438  0.0000E+00  0.2000E+01
     -4.374  0.0000E+00  0.2000E+01
     -4.311  0.0000E+00  0.2000E+01
     -4.248  0.0000E+00  0.2000E+01
     -4.185  0.0000E+00  0.2000E+01
     -4.122  0.0000E+00  0.2000E+01
     -4.059  0.0000E+00  0.2000E+01
     -3.996  0.0000E+00  0.2000E+01
     -3.933  0.0000E+00  0.2000E+01
     -3.870  0.0000E+00  0.2000E+01
     -3.807  0.0000E+00  0.2000E+01
     -3.744  0.0000E+00  0.2000E+01
     -3.681  0.0000E+00  0.2000E+01
     -3.618  0.0000E+00  0.2000E+01
     -3.555  0.0000E+00  0.2000E+01
     -3.492  0.0000E+00  0.2000E+01
     -3.429  0.0000E+00  0.2000E+01
     -3.366  0.0000E+00  0.2000E+01
     -3.303  0.0000E+00  0.2000E+01
     -3.240  0.0000E+00  0.2000E+01
     -3.177  0.0000E+00  0.2000E+01
     -3.114  0.0000E+00  0.2000E+01
     -3.051  0.0000E+00  0.2000E+01
     -2.988  0.0000E+00  0.2000E+01
     -2.925  0.0000E+00  0.2000E+01
     -2.862  0.0000E+00  0.2000E+01
     -2.799  0.0000E+00  0.2000E+01
     -2.736  0.0000E+00  0.2000E+01
     -2.673  0.0000E+00  0.2000E+01
     -2.610  0.0000E+00  0.2000E+01
     -2.547  0.0000E+00  0.2000E+01
     -2.484  0.0000E+00  0.2000E+01
     -2.421  0.0000E+00  0.2000E+01
     -2.358  0.0000E+00  0.2000E+01
     -2.295  0.0000E+00  0.2000E+01
     -2.232  0.0000E+00  0.2000E+01
     -2.169  0.0000E+00  0.2000E+01
     -2.106  0.0000E+00  0.2000E+01
     -2.043  0.0000E+00  0.2000E+01
     -1.979  0.0000E+00  0.2000E+01
     -1.916  0.0000E+00  0.2000E+01
     -1.853  0.0000E+00  0.2000E+01
     -1.790  0.0000E+00  0.2000E+01
     -1.727  0.6770E+00  0.2011E+01
     -1.664  0.1305E+01  0.2067E+01
     -1.601  0.2543E+01  0.2193E+01
     -1.538  0.3420E+01  0.2364E+01
     -1.475  0.3433E+01  0.2655E+01
     -1.412  0.2219E+01  0.2827E+01
     -1.349  0.1671E+01  0.2948E+01
     -1.286  0.1400E+01  0.3044E+01
     -1.223  0.1196E+01  0.3126E+01
     -1.160  0.1023E+01  0.3195E+01
     -1.097  0.9135E+00  0.3256E+01
     -1.034  0.8273E+00  0.3311E+01
     -0.971  0.7468E+00  0.3360E+01
     -0.908  0.6693E+00  0.3405E+01
     -0.845  0.6136E+00  0.3445E+01
     -0.782  0.5723E+00  0.3483E+01
     -0.719  0.5325E+00  0.3517E+01
     -0.656  0.4935E+00  0.3550E+01
     -0.593  0.4524E+00  0.3580E+01
     -0.530  0.4161E+00  0.3607E+01
     -0.467  0.3942E+00  0.3632E+01
     -0.404  0.3727E+00  0.3657E+01
     -0.341  0.3503E+00  0.3679E+01
     -0.278  0.3275E+00  0.3701E+01
     -0.215  0.3057E+00  0.3721E+01
     -0.152  0.2809E+00  0.3739E+01
     -0.089  0.2662E+00  0.3756E+01
     -0.026  0.2532E+00  0.3773E+01
      0.037  0.2402E+00  0.3788E+01
      0.100  0.2272E+00  0.3803E+01
      0.163  0.2137E+00  0.3817E+01
      0.226  0.1983E+00  0.3830E+01
      0.289  0.1846E+00  0.3842E+01
      0.353  0.1722E+00  0.3853E+01
      0.416  0.1646E+00  0.3864E+01
      0.479  0.1567E+00  0.3874E+01
      0.542  0.6999E+00  0.3894E+01
      0.605  0.1345E+01  0.3957E+01
      0.668  0.2141E+01  0.4071E+01
      0.731  0.1912E+01  0.4204E+01
      0.794  0.1715E+01  0.4319E+01
      0.857  0.1633E+01  0.4424E+01
      0.920  0.1558E+01  0.4525E+01
      0.983  0.1475E+01  0.4621E+01
      1.046  0.1405E+01  0.4711E+01
      1.109  0.1582E+01  0.4812E+01
      1.172  0.1660E+01  0.4913E+01
      1.235  0.1752E+01  0.5022E+01
      1.298  0.1959E+01  0.5138E+01
      1.361  0.2221E+01  0.5270E+01
      1.424  0.2499E+01  0.5422E+01
      1.487  0.2334E+01  0.5571E+01
      1.550  0.2321E+01  0.5718E+01
      1.613  0.2279E+01  0.5863E+01
      1.676  0.2225E+01  0.6005E+01
      1.739  0.2231E+01  0.6146E+01
      1.802  0.2186E+01  0.6285E+01
      1.865  0.2138E+01  0.6421E+01
      1.928  0.2109E+01  0.6555E+01
      1.991  0.2075E+01  0.6687E+01
      2.054  0.2053E+01  0.6817E+01
      2.117  0.2033E+01  0.6945E+01
      2.180  0.2026E+01  0.7074E+01
      2.243  0.1992E+01  0.7200E+01
      2.306  0.1966E+01  0.7325E+01
      2.369  0.1897E+01  0.7449E+01
      2.432  0.1443E+01  0.7552E+01
      2.495  0.1187E+01  0.7635E+01
      2.558  0.1025E+01  0.7705E+01
      2.621  0.8805E+00  0.7764E+01
      2.684  0.7699E+00  0.7816E+01
      2.748  0.6700E+00  0.7862E+01
      2.811  0.5651E+00  0.7901E+01
      2.874  0.4795E+00  0.7933E+01
      2.937  0.3930E+00  0.7961E+01
      3.000  0.2814E+00  0.7983E+01
      3.063  0.1588E+00  0.7996E+01
      3.126  0.0000E+00  0.8000E+01
      3.189  0.0000E+00  0.8000E+01
      3.252  0.0000E+00  0.8000E+01
      3.315  0.0000E+00  0.8000E+01
      3.378  0.2214E-04  0.8000E+01
      3.441  0.2096E-03  0.8000E+01
      3.504  0.5881E-03  0.8000E+01
      3.567  0.1158E-02  0.8000E+01
      3.630  0.1918E-02  0.8000E+01
      3.693  0.2870E-02  0.8000E+01
      3.756  0.4012E-02  0.8001E+01
      3.819  0.5346E-02  0.8001E+01
      3.882  0.6870E-02  0.8001E+01
      3.945  0.1180E-01  0.8002E+01
      4.008  0.2519E-01  0.8003E+01
      4.071  0.6286E-01  0.8006E+01
      4.134  0.1147E+00  0.8011E+01
      4.197  0.1778E+00  0.8020E+01
      4.260  0.2236E+00  0.8033E+01
      4.323  0.2750E+00  0.8049E+01
      4.386  0.3452E+00  0.8068E+01
      4.449  0.4229E+00  0.8092E+01
      4.512  0.4867E+00  0.8121E+01
      4.575  0.6117E+00  0.8155E+01
      4.638  0.8052E+00  0.8200E+01
      4.701  0.9822E+00  0.8256E+01
      4.764  0.1178E+01  0.8324E+01
      4.827  0.1377E+01  0.8404E+01
      4.890  0.1548E+01  0.8497E+01
      4.953  0.1757E+01  0.8601E+01
      5.016  0.1985E+01  0.8719E+01
      5.080  0.2670E+01  0.8862E+01
      5.143  0.2990E+01  0.9044E+01
      5.206  0.2713E+01  0.9225E+01
      5.269  0.2079E+01  0.9372E+01
      5.332  0.1848E+01  0.9496E+01
      5.395  0.1579E+01  0.9604E+01
      5.458  0.1346E+01  0.9694E+01
      5.521  0.1218E+01  0.9775E+01
      5.584  0.1148E+01  0.9850E+01
      5.647  0.1009E+01  0.9919E+01
      5.710  0.1025E+01  0.9979E+01
      5.773  0.1220E+01  0.1005E+02
      5.836  0.1268E+01  0.1014E+02
      5.899  0.1236E+01  0.1022E+02
      5.962  0.1085E+01  0.1029E+02
      6.025  0.1138E+01  0.1036E+02
      6.088  0.1187E+01  0.1043E+02
      6.151  0.1250E+01  0.1051E+02
      6.214  0.1169E+01  0.1059E+02
      6.277  0.1185E+01  0.1066E+02
      6.340  0.1195E+01  0.1073E+02
      6.403  0.1213E+01  0.1081E+02
      6.466  0.1377E+01  0.1089E+02
      6.529  0.1624E+01  0.1099E+02
      6.592  0.2618E+01  0.1112E+02
      6.655  0.2998E+01  0.1131E+02
      6.718  0.2977E+01  0.1149E+02
      6.781  0.2123E+01  0.1167E+02
      6.844  0.1970E+01  0.1179E+02
      6.907  0.1801E+01  0.1191E+02
      6.970  0.1671E+01  0.1202E+02
      7.033  0.1554E+01  0.1212E+02
      7.096  0.1414E+01  0.1221E+02
      7.159  0.1326E+01  0.1230E+02
      7.222  0.1291E+01  0.1238E+02
      7.285  0.1477E+01  0.1246E+02
      7.348  0.1827E+01  0.1257E+02
      7.411  0.2167E+01  0.1270E+02
      7.475  0.2339E+01  0.1284E+02
      7.538  0.2523E+01  0.1299E+02
      7.601  0.2277E+01  0.1314E+02
      7.664  0.2012E+01  0.1327E+02
      7.727  0.1966E+01  0.1340E+02
      7.790  0.1886E+01  0.1352E+02
      7.853  0.1944E+01  0.1364E+02
      7.916  0.1788E+01  0.1376E+02
      7.979  0.1611E+01  0.1387E+02
      8.042  0.1448E+01  0.1396E+02
      8.105  0.1389E+01  0.1405E+02
      8.168  0.1318E+01  0.1414E+02
      8.231  0.1331E+01  0.1422E+02
      8.294  0.1305E+01  0.1431E+02
      8.357  0.1185E+01  0.1439E+02
      8.420  0.1175E+01  0.1446E+02
      8.483  0.1185E+01  0.1453E+02
      8.546  0.1242E+01  0.1461E+02
      8.609  0.1427E+01  0.1469E+02
      8.672  0.1759E+01  0.1480E+02
      8.735  0.2113E+01  0.1492E+02
      8.798  0.1606E+01  0.1504E+02
      8.861  0.1331E+01  0.1513E+02
      8.924  0.1154E+01  0.1521E+02
      8.987  0.1069E+01  0.1528E+02
      9.050  0.1008E+01  0.1534E+02
      9.113  0.9480E+00  0.1541E+02
      9.176  0.8940E+00  0.1546E+02
      9.239  0.8331E+00  0.1552E+02
      9.302  0.7766E+00  0.1557E+02
      9.365  0.7402E+00  0.1562E+02
      9.428  0.7047E+00  0.1566E+02
      9.491  0.6777E+00  0.1571E+02
      9.554  0.7564E+00  0.1575E+02
      9.617  0.6964E+00  0.1580E+02
      9.680  0.3449E+00  0.1583E+02
      9.743  0.3194E+00  0.1585E+02
      9.807  0.2994E+00  0.1587E+02
      9.870  0.2785E+00  0.1589E+02
      9.933  0.2577E+00  0.1591E+02
      9.996  0.2370E+00  0.1592E+02
     10.059  0.2186E+00  0.1594E+02
     10.122  0.1963E+00  0.1595E+02
     10.185  0.1766E+00  0.1596E+02
     10.248  0.1460E+00  0.1597E+02
     10.311  0.1154E+00  0.1598E+02
     10.374  0.9031E-01  0.1599E+02
     10.437  0.7072E-01  0.1599E+02
     10.500  0.6410E-01  0.1600E+02
     10.563  0.5369E-01  0.1600E+02
     10.626  0.0000E+00  0.1600E+02
     10.689  0.0000E+00  0.1600E+02
     10.752  0.0000E+00  0.1600E+02
     10.815  0.0000E+00  0.1600E+02
     10.878  0.0000E+00  0.1600E+02
     10.941  0.0000E+00  0.1600E+02
     11.004  0.0000E+00  0.1600E+02
     11.067  0.0000E+00  0.1600E+02
     11.130  0.0000E+00  0.1600E+02
     11.193  0.0000E+00  0.1600E+02
     11.256  0.0000E+00  0.1600E+02
     11.319  0.0000E+00  0.1600E+02
     11.382  0.0000E+00  0.1600E+02
     11.445  0.0000E+00  0.1600E+02
