    2    2    1    1
  0.3509463E+02  0.4630152E-09  0.4630152E-09  0.4630152E-09  0.0000000E+00
  1.000000000000000E-004
  CAR 
 unknown system                          
      8    165      8
 
  0.0000000E+00  0.0000000E+00  0.0000000E+00  0.2035416E-03
    1       -6.603353   1.000000
    2        3.119346   1.000000
    3        3.119346   1.000000
    4        3.119346   1.000000
    5        3.347446   0.000000
    6        6.089587   0.000000
    7        6.089587   0.000000
    8        6.089587   0.000000
 
  0.5882353E-01  0.0000000E+00  0.0000000E+00  0.1628333E-02
    1       -6.578395   1.000000
    2        2.474411   1.000000
    3        3.083353   1.000000
    4        3.083353   1.000000
    5        3.885683   0.000000
    6        6.141916   0.000000
    7        6.147382   0.000000
    8        6.147382   0.000000
 
  0.1176471E+00  0.0000000E+00  0.0000000E+00  0.1628333E-02
    1       -6.504637   1.000000
    2        1.703047   1.000000
    3        2.987356   1.000000
    4        2.987356   1.000000
    5        4.284103   0.000000
    6        6.299863   0.000000
    7        6.299864   0.000000
    8        6.387345   0.000000
 
  0.1764706E+00  0.0000000E+00  0.0000000E+00  0.1628333E-02
    1       -6.385892   1.000000
    2        0.946246   1.000000
    3        2.857918   1.000000
    4        2.857918   1.000000
    5        4.390212   0.000000
    6        6.493675   0.000000
    7        6.493675   0.000000
    8        6.908361   0.000000
 
  0.2352941E+00  0.0000000E+00  0.0000000E+00  0.1628333E-02
    1       -6.229445   1.000000
    2        0.235802   1.000000
    3        2.721058   1.000000
    4        2.721058   1.000000
    5        4.325587   0.000000
    6        6.663928   0.000000
    7        6.663928   0.000000
    8        7.612755   0.000000
 
  0.2941176E+00  0.0000000E+00  0.0000000E+00  0.1628333E-02
    1       -6.047833   1.000000
    2       -0.401492   1.000000
    3        2.595742   1.000000
    4        2.595742   1.000000
    5        4.209977   0.000000
    6        6.764786   0.000000
    7        6.764786   0.000000
    8        8.390850   0.000000
 
  0.3529412E+00  0.0000000E+00  0.0000000E+00  0.1628333E-02
    1       -5.861589   1.000000
    2       -0.936039   1.000000
    3        2.494011   1.000000
    4        2.494011   1.000000
    5        4.099643   0.000000
    6        6.795698   0.000000
    7        6.795698   0.000000
    8        9.130863   0.000000
 
  0.4117647E+00  0.0000000E+00  0.0000000E+00  0.1628333E-02
    1       -5.701590   1.000000
    2       -1.331097   1.000000
    3        2.422999   1.000000
    4        2.422999   1.000000
    5        4.018152   0.000000
    6        6.788823   0.000000
    7        6.788823   0.000000
    8        9.525329   0.000000
 
  0.4705882E+00  0.0000000E+00  0.0000000E+00  0.1628333E-02
    1       -5.606457   1.000000
    2       -1.544596   1.000000
    3        2.386626   1.000000
    4        2.386626   1.000000
    5        3.975523   0.000000
    6        6.776723   0.000000
    7        6.776723   0.000000
    8        9.574695   0.000000
 
  0.5882353E-01  0.5882353E-01  0.0000000E+00  0.1221250E-02
    1       -6.570047   1.000000
    2        2.413504   1.000000
    3        3.010287   1.000000
    4        3.010288   1.000000
    5        4.048794   0.000000
    6        5.979278   0.000000
    7        6.250609   0.000000
    8        6.250609   0.000000
 
  0.1176471E+00  0.5882353E-01  0.0000000E+00  0.4884999E-02
    1       -6.512467   1.000000
    2        1.834645   1.000000
    3        2.887196   1.000000
    4        2.932155   1.000000
    5        4.430543   0.000000
    6        5.953258   0.000000
    7        6.441928   0.000000
    8        6.477476   0.000000
 
  0.1764706E+00  0.5882353E-01  0.0000000E+00  0.4884999E-02
    1       -6.408533   1.000000
    2        1.131078   1.000000
    3        2.743331   1.000000
    4        2.823888   1.000000
    5        4.616845   0.000000
    6        6.091502   0.000000
    7        6.666955   0.000000
    8        6.877718   0.000000
 
  0.2352941E+00  0.5882353E-01  0.0000000E+00  0.4884999E-02
    1       -6.264201   1.000000
    2        0.432680   1.000000
    3        2.603248   1.000000
    4        2.678520   1.000000
    5        4.600701   0.000000
    6        6.319853   0.000000
    7        6.861126   0.000000
    8        7.421242   0.000000
 
  0.2941176E+00  0.5882353E-01  0.0000000E+00  0.4884999E-02
    1       -6.090035   1.000000
    2       -0.214192   1.000000
    3        2.483550   1.000000
    4        2.523249   1.000000
    5        4.501316   0.000000
    6        6.514060   0.000000
    7        6.973364   0.000000
    8        8.033405   0.000000
 
  0.3529412E+00  0.5882353E-01  0.0000000E+00  0.4884999E-02
    1       -5.903530   1.000000
    2       -0.775324   1.000000
    3        2.379596   1.000000
    4        2.394333   1.000000
    5        4.391182   0.000000
    6        6.622700   0.000000
    7        6.996048   0.000000
    8        8.664295   0.000000
 
  0.4117647E+00  0.5882353E-01  0.0000000E+00  0.4884999E-02
    1       -5.731867   1.000000
    2       -1.214135   1.000000
    3        2.261201   1.000000
    4        2.341096   1.000000
    5        4.301337   0.000000
    6        6.669121   0.000000
    7        6.961514   0.000000
    8        9.242569   0.000000
 
  0.4705882E+00  0.5882353E-01  0.0000000E+00  0.4884999E-02
    1       -5.611821   1.000000
    2       -1.488449   1.000000
    3        2.176296   1.000000
    4        2.326263   1.000000
    5        4.245153   0.000000
    6        6.696499   0.000000
    7        6.908414   0.000000
    8        9.568921   0.000000
 
 -0.4705882E+00  0.5882353E-01  0.0000000E+00  0.4884999E-02
    1       -5.578647   1.000000
    2       -1.560210   1.000000
    3        2.129801   1.000000
    4        2.349953   1.000000
    5        4.228264   0.000000
    6        6.732444   0.000000
    7        6.861041   0.000000
    8        9.639163   0.000000
 
 -0.4117647E+00  0.5882353E-01  0.0000000E+00  0.4884999E-02
    1       -5.643890   1.000000
    2       -1.417293   1.000000
    3        2.124512   1.000000
    4        2.410396   1.000000
    5        4.252028   0.000000
    6        6.783729   0.000000
    7        6.825885   0.000000
    8        9.562100   0.000000
 
 -0.3529412E+00  0.5882353E-01  0.0000000E+00  0.4884999E-02
    1       -5.785646   1.000000
    2       -1.083006   1.000000
    3        2.161595   1.000000
    4        2.503826   1.000000
    5        4.314100   0.000000
    6        6.792093   0.000000
    7        6.836771   0.000000
    8        9.169838   0.000000
 
 -0.2941176E+00  0.5882353E-01  0.0000000E+00  0.4884999E-02
    1       -5.965976   1.000000
    2       -0.599086   1.000000
    3        2.240623   1.000000
    4        2.623963   1.000000
    5        4.406791   0.000000
    6        6.733291   0.000000
    7        6.854312   0.000000
    8        8.517113   0.000000
 
 -0.2352941E+00  0.5882353E-01  0.0000000E+00  0.4884999E-02
    1       -6.150839   1.000000
    2       -0.006680   1.000000
    3        2.359266   1.000000
    4        2.760849   1.000000
    5        4.511422   0.000000
    6        6.620781   0.000000
    7        6.775378   0.000000
    8        7.848422   0.000000
 
 -0.1764706E+00  0.5882353E-01  0.0000000E+00  0.4884999E-02
    1       -6.316533   1.000000
    2        0.657920   1.000000
    3        2.512762   1.000000
    4        2.899094   1.000000
    5        4.583226   0.000000
    6        6.454510   0.000000
    7        6.554146   0.000000
    8        7.267786   0.000000
 
 -0.1176471E+00  0.5882353E-01  0.0000000E+00  0.4884999E-02
    1       -6.448241   1.000000
    2        1.355385   1.000000
    3        2.694009   1.000000
    4        3.016297   1.000000
    5        4.524976   0.000000
    6        6.274737   0.000000
    7        6.279521   0.000000
    8        6.802406   0.000000
 
 -0.5882353E-01  0.5882353E-01  0.0000000E+00  0.2442499E-02
    1       -6.537117   1.000000
    2        2.018058   1.000000
    3        2.897060   1.000000
    4        3.085001   1.000000
    5        4.236855   0.000000
    6        6.129522   0.000000
    7        6.160756   0.000000
    8        6.427404   0.000000
 
  0.1176471E+00  0.1176471E+00  0.0000000E+00  0.1221250E-02
    1       -6.471350   1.000000
    2        1.627187   1.000000
    3        2.743212   1.000000
    4        2.743212   1.000000
    5        4.773661   0.000000
    6        5.743405   0.000000
    7        6.672264   0.000000
    8        6.672264   0.000000
 
  0.1764706E+00  0.1176471E+00  0.0000000E+00  0.4884999E-02
    1       -6.383274   1.000000
    2        1.128547   1.000000
    3        2.586006   1.000000
    4        2.601415   1.000000
    5        5.003936   0.000000
    6        5.725088   0.000000
    7        6.937228   0.000000
    8        6.997474   0.000000
 
  0.2352941E+00  0.1176471E+00  0.0000000E+00  0.4884999E-02
    1       -6.253131   1.000000
    2        0.525139   1.000000
    3        2.437105   1.000000
    4        2.439388   1.000000
    5        5.058340   0.000000
    6        5.886405   0.000000
    7        7.172777   0.000000
    8        7.369256   0.000000
 
  0.2941176E+00  0.1176471E+00  0.0000000E+00  0.4884999E-02
    1       -6.089773   1.000000
    2       -0.079937   1.000000
    3        2.246208   1.000000
    4        2.319000   1.000000
    5        4.995636   0.000000
    6        6.155468   0.000000
    7        7.320198   0.000000
    8        7.664976   0.000000
 
  0.3529412E+00  0.1176471E+00  0.0000000E+00  0.4884999E-02
    1       -5.908063   1.000000
    2       -0.632189   1.000000
    3        2.055787   1.000000
    4        2.234185   1.000000
    5        4.896342   0.000000
    6        6.394244   0.000000
    7        7.358629   0.000000
    8        7.982318   0.000000
 
  0.4117647E+00  0.1176471E+00  0.0000000E+00  0.4884999E-02
    1       -5.731497   1.000000
    2       -1.088440   1.000000
    3        1.887494   1.000000
    4        2.189940   1.000000
    5        4.803801   0.000000
    6        6.529146   0.000000
    7        7.315685   0.000000
    8        8.452133   0.000000
 
  0.4705882E+00  0.1176471E+00  0.0000000E+00  0.4884999E-02
    1       -5.593499   1.000000
    2       -1.404563   1.000000
    3        1.754630   1.000000
    4        2.188164   1.000000
    5        4.737604   0.000000
    6        6.598116   0.000000
    7        7.235172   0.000000
    8        9.034484   0.000000
 
 -0.4705882E+00  0.1176471E+00  0.0000000E+00  0.4884999E-02
    1       -5.530758   1.000000
    2       -1.538345   1.000000
    3        1.665351   1.000000
    4        2.228319   1.000000
    5        4.706351   0.000000
    6        6.656863   0.000000
    7        7.148559   0.000000
    8        9.540646   0.000000
 
 -0.4117647E+00  0.1176471E+00  0.0000000E+00  0.4884999E-02
    1       -5.564023   1.000000
    2       -1.467268   1.000000
    3        1.625114   1.000000
    4        2.307625   1.000000
    5        4.712585   0.000000
    6        6.730557   0.000000
    7        7.068292   0.000000
    8        9.579482   0.000000
 
 -0.3529412E+00  0.1176471E+00  0.0000000E+00  0.4884999E-02
    1       -5.681892   1.000000
    2       -1.204454   1.000000
    3        1.638192   1.000000
    4        2.420828   1.000000
    5        4.754029   0.000000
    6        6.815835   0.000000
    7        6.988470   0.000000
    8        9.076160   0.000000
 
 -0.2941176E+00  0.1176471E+00  0.0000000E+00  0.4884999E-02
    1       -5.850193   1.000000
    2       -0.790003   1.000000
    3        1.708743   1.000000
    4        2.559472   1.000000
    5        4.822074   0.000000
    6        6.875819   0.000000
    7        6.887289   0.000000
    8        8.437753   0.000000
 
 -0.2352941E+00  0.1176471E+00  0.0000000E+00  0.4884999E-02
    1       -6.033195   1.000000
    2       -0.271959   1.000000
    3        1.842120   1.000000
    4        2.710621   1.000000
    5        4.895427   0.000000
    6        6.740741   0.000000
    7        6.818284   0.000000
    8        7.904887   0.000000
 
 -0.1764706E+00  0.1176471E+00  0.0000000E+00  0.4884999E-02
    1       -6.204274   1.000000
    2        0.299648   1.000000
    3        2.046715   1.000000
    4        2.855011   1.000000
    5        4.923173   0.000000
    6        6.554446   0.000000
    7        6.575450   0.000000
    8        7.557177   0.000000
 
 -0.1176471E+00  0.1176471E+00  0.0000000E+00  0.2442499E-02
    1       -6.346111   1.000000
    2        0.865808   1.000000
    3        2.333793   1.000000
    4        2.966449   1.000000
    5        4.810205   0.000000
    6        6.334915   0.000000
    7        6.378785   0.000000
    8        7.228890   0.000000
 
  0.1764706E+00  0.1764706E+00  0.0000000E+00  0.1221250E-02
    1       -6.311361   1.000000
    2        0.873043   1.000000
    3        2.417865   1.000000
    4        2.417865   1.000000
    5        5.113246   0.000000
    6        5.689133   0.000000
    7        7.251300   0.000000
    8        7.251300   0.000000
 
  0.2352941E+00  0.1764706E+00  0.0000000E+00  0.4884999E-02
    1       -6.196721   1.000000
    2        0.436991   1.000000
    3        2.241624   1.000000
    4        2.263014   1.000000
    5        5.120886   0.000000
    6        5.772239   0.000000
    7        7.535606   0.000000
    8        7.545707   0.000000
 
  0.2941176E+00  0.1764706E+00  0.0000000E+00  0.4884999E-02
    1       -6.046808   1.000000
    2       -0.066183   1.000000
    3        2.022831   1.000000
    4        2.137229   1.000000
    5        5.168304   0.000000
    6        5.908518   0.000000
    7        7.613366   0.000000
    8        7.753671   0.000000
 
  0.3529412E+00  0.1764706E+00  0.0000000E+00  0.4884999E-02
    1       -5.874348   1.000000
    2       -0.561745   1.000000
    3        1.782793   1.000000
    4        2.049981   1.000000
    5        5.156492   0.000000
    6        6.196717   0.000000
    7        7.612064   0.000000
    8        7.835601   0.000000
 
  0.4117647E+00  0.1764706E+00  0.0000000E+00  0.4884999E-02
    1       -5.699489   1.000000
    2       -0.996993   1.000000
    3        1.556444   1.000000
    4        2.006409   1.000000
    5        5.103160   0.000000
    6        6.516858   0.000000
    7        7.755546   0.000000
    8        7.807391   0.000000
 
  0.4705882E+00  0.1764706E+00  0.0000000E+00  0.4884999E-02
    1       -5.551753   1.000000
    2       -1.324332   1.000000
    3        1.367088   1.000000
    4        2.008510   1.000000
    5        5.056918   0.000000
    6        6.703773   0.000000
    7        7.716309   0.000000
    8        8.182464   0.000000
 
 -0.4705882E+00  0.1764706E+00  0.0000000E+00  0.4884999E-02
    1       -5.466313   1.000000
    2       -1.498765   1.000000
    3        1.228432   1.000000
    4        2.055730   1.000000
    5        5.039285   0.000000
    6        6.788059   0.000000
    7        7.601833   0.000000
    8        8.814265   0.000000
 
 -0.4117647E+00  0.1764706E+00  0.0000000E+00  0.4884999E-02
    1       -5.469359   1.000000
    2       -1.490551   1.000000
    3        1.149782   1.000000
    4        2.145074   1.000000
    5        5.055577   0.000000
    6        6.856552   0.000000
    7        7.482078   0.000000
    8        9.358017   0.000000
 
 -0.3529412E+00  0.1764706E+00  0.0000000E+00  0.4884999E-02
    1       -5.559735   1.000000
    2       -1.303273   1.000000
    3        1.139654   1.000000
    4        2.270698   1.000000
    5        5.101375   0.000000
    6        6.940482   0.000000
    7        7.353803   0.000000
    8        8.972559   0.000000
 
 -0.2941176E+00  0.1764706E+00  0.0000000E+00  0.4884999E-02
    1       -5.709959   1.000000
    2       -0.974195   1.000000
    3        1.208720   1.000000
    4        2.423012   1.000000
    5        5.161892   0.000000
    6        7.023171   0.000000
    7        7.196397   0.000000
    8        8.301741   0.000000
 
 -0.2352941E+00  0.1764706E+00  0.0000000E+00  0.4884999E-02
    1       -5.885077   1.000000
    2       -0.558289   1.000000
    3        1.372350   1.000000
    4        2.587116   1.000000
    5        5.202896   0.000000
    6        6.990763   0.000000
    7        6.998494   0.000000
    8        7.806421   0.000000
 
 -0.1764706E+00  0.1764706E+00  0.0000000E+00  0.2442499E-02
    1       -6.056348   1.000000
    2       -0.115785   1.000000
    3        1.649603   1.000000
    4        2.740928   1.000000
    5        5.151291   0.000000
    6        6.755822   0.000000
    7        6.757511   0.000000
    8        7.653852   0.000000
 
  0.2352941E+00  0.2352941E+00  0.0000000E+00  0.1221250E-02
    1       -6.098068   1.000000
    2        0.163585   1.000000
    3        2.099526   1.000000
    4        2.099526   1.000000
    5        4.938715   0.000000
    6        5.805690   0.000000
    7        7.917493   0.000000
    8        7.917494   0.000000
 
  0.2941176E+00  0.2352941E+00  0.0000000E+00  0.4884999E-02
    1       -5.963574   1.000000
    2       -0.215032   1.000000
    3        1.912432   1.000000
    4        1.965595   1.000000
    5        4.922407   0.000000
    6        5.780803   0.000000
    7        8.056513   0.000000
    8        8.214927   0.000000
 
  0.3529412E+00  0.2352941E+00  0.0000000E+00  0.4884999E-02
    1       -5.804214   1.000000
    2       -0.620093   1.000000
    3        1.655693   1.000000
    4        1.871386   1.000000
    5        5.014077   0.000000
    6        5.873698   0.000000
    7        7.954975   0.000000
    8        8.375086   0.000000
 
  0.4117647E+00  0.2352941E+00  0.0000000E+00  0.4884999E-02
    1       -5.637450   1.000000
    2       -0.995998   1.000000
    3        1.376132   1.000000
    4        1.822531   1.000000
    5        5.055469   0.000000
    6        6.220053   0.000000
    7        7.843579   0.000000
    8        8.390834   0.000000
 
  0.4705882E+00  0.2352941E+00  0.0000000E+00  0.4884999E-02
    1       -5.488955   1.000000
    2       -1.296481   1.000000
    3        1.121332   1.000000
    4        1.821456   1.000000
    5        5.055519   0.000000
    6        6.727853   0.000000
    7        7.818814   0.000000
    8        8.308568   0.000000
 
 -0.4705882E+00  0.2352941E+00  0.0000000E+00  0.4884999E-02
    1       -5.390548   1.000000
    2       -1.478630   1.000000
    3        0.920990   1.000000
    4        1.867940   1.000000
    5        5.069246   0.000000
    6        7.142979   0.000000
    7        8.057020   0.000000
    8        8.177401   0.000000
 
 -0.4117647E+00  0.2352941E+00  0.0000000E+00  0.4884999E-02
    1       -5.369640   1.000000
    2       -1.511537   1.000000
    3        0.793863   1.000000
    4        1.959247   1.000000
    5        5.115350   0.000000
    6        7.299546   0.000000
    7        8.021444   0.000000
    8        8.648358   0.000000
 
 -0.3529412E+00  0.2352941E+00  0.0000000E+00  0.4884999E-02
    1       -5.432484   1.000000
    2       -1.393555   1.000000
    3        0.756044   1.000000
    4        2.089623   1.000000
    5        5.190235   0.000000
    6        7.374784   0.000000
    7        7.836922   0.000000
    8        8.845602   0.000000
 
 -0.2941176E+00  0.2352941E+00  0.0000000E+00  0.4884999E-02
    1       -5.559819   1.000000
    2       -1.158784   1.000000
    3        0.826477   1.000000
    4        2.249327   1.000000
    5        5.271907   0.000000
    6        7.452555   0.000000
    7        7.600525   0.000000
    8        8.182364   0.000000
 
 -0.2352941E+00  0.2352941E+00  0.0000000E+00  0.2442499E-02
    1       -5.720271   1.000000
    2       -0.862887   1.000000
    3        1.027393   1.000000
    4        2.422911   1.000000
    5        5.308370   0.000000
    6        7.303451   0.000000
    7        7.379864   0.000000
    8        7.729851   0.000000
 
  0.2941176E+00  0.2941176E+00  0.0000000E+00  0.1221250E-02
    1       -5.845605   1.000000
    2       -0.486420   1.000000
    3        1.822293   1.000000
    4        1.822294   1.000000
    5        4.726549   0.000000
    6        5.617483   0.000000
    7        8.630214   0.000000
    8        8.630226   0.000000
 
  0.3529412E+00  0.2941176E+00  0.0000000E+00  0.4884999E-02
    1       -5.702644   1.000000
    2       -0.804583   1.000000
    3        1.640600   1.000000
    4        1.718538   1.000000
    5        4.741164   0.000000
    6        5.521892   0.000000
    7        8.698824   0.000000
    8        8.913507   0.000000
 
  0.4117647E+00  0.2941176E+00  0.0000000E+00  0.4884999E-02
    1       -5.550172   1.000000
    2       -1.109899   1.000000
    3        1.365692   1.000000
    4        1.660715   1.000000
    5        4.854266   0.000000
    6        5.645869   0.000000
    7        8.568857   0.000000
    8        9.016146   0.000000
 
  0.4705882E+00  0.2941176E+00  0.0000000E+00  0.4884999E-02
    1       -5.410467   1.000000
    2       -1.358833   1.000000
    3        1.065709   1.000000
    4        1.651834   1.000000
    5        4.908684   0.000000
    6        6.084218   0.000000
    7        8.436552   0.000000
    8        8.969226   0.000000
 
 -0.4705882E+00  0.2941176E+00  0.0000000E+00  0.4884999E-02
    1       -5.311200   1.000000
    2       -1.516214   1.000000
    3        0.801998   1.000000
    4        1.692197   1.000000
    5        4.945161   0.000000
    6        6.725507   0.000000
    7        8.342822   0.000000
    8        8.832286   0.000000
 
 -0.4117647E+00  0.2941176E+00  0.0000000E+00  0.4884999E-02
    1       -5.277242   1.000000
    2       -1.559011   1.000000
    3        0.615941   1.000000
    4        1.779538   1.000000
    5        5.009736   0.000000
    6        7.433342   0.000000
    7        8.333699   0.000000
    8        8.636270   0.000000
 
 -0.3529412E+00  0.2941176E+00  0.0000000E+00  0.4884999E-02
    1       -5.317767   1.000000
    2       -1.489466   1.000000
    3        0.539385   1.000000
    4        1.908619   1.000000
    5        5.106824   0.000000
    6        7.925252   0.000000
    7        8.372627   0.000000
    8        8.522797   0.000000
 
 -0.2941176E+00  0.2941176E+00  0.0000000E+00  0.2442499E-02
    1       -5.420387   1.000000
    2       -1.340557   1.000000
    3        0.602161   1.000000
    4        2.070208   1.000000
    5        5.214390   0.000000
    6        8.018991   0.000000
    7        8.028198   0.000000
    8        8.154546   0.000000
 
  0.3529412E+00  0.3529412E+00  0.0000000E+00  0.1221250E-02
    1       -5.578675   1.000000
    2       -1.052180   1.000000
    3        1.604007   1.000000
    4        1.604007   1.000000
    5        4.580558   0.000000
    6        5.280673   0.000000
    7        9.359585   0.000000
    8        9.359589   0.000000
 
  0.4117647E+00  0.3529412E+00  0.0000000E+00  0.4884999E-02
    1       -5.446395   1.000000
    2       -1.297271   1.000000
    3        1.439618   1.000000
    4        1.535145   1.000000
    5        4.633596   0.000000
    6        5.198286   0.000000
    7        9.423840   0.000000
    8        9.611527   0.000000
 
  0.4705882E+00  0.3529412E+00  0.0000000E+00  0.4884999E-02
    1       -5.325481   1.000000
    2       -1.493379   1.000000
    3        1.166963   1.000000
    4        1.515667   1.000000
    5        4.746202   0.000000
    6        5.413195   0.000000
    7        9.296044   0.000000
    8        9.644090   0.000000
 
 -0.4705882E+00  0.3529412E+00  0.0000000E+00  0.4884999E-02
    1       -5.239120   1.000000
    2       -1.610187   1.000000
    3        0.872683   1.000000
    4        1.546484   1.000000
    5        4.802781   0.000000
    6        5.954825   0.000000
    7        9.157236   0.000000
    8        9.514412   0.000000
 
 -0.4117647E+00  0.3529412E+00  0.0000000E+00  0.4884999E-02
    1       -5.207030   1.000000
    2       -1.635352   1.000000
    3        0.633104   1.000000
    4        1.625922   1.000000
    5        4.874241   0.000000
    6        6.674496   0.000000
    7        9.025423   0.000000
    8        9.260782   0.000000
 
 -0.3529412E+00  0.3529412E+00  0.0000000E+00  0.2442499E-02
    1       -5.236253   1.000000
    2       -1.582472   1.000000
    3        0.506393   1.000000
    4        1.749426   1.000000
    5        4.981525   0.000000
    6        7.470536   0.000000
    7        8.804258   0.000000
    8        8.874681   0.000000
 
  0.4117647E+00  0.4117647E+00  0.0000000E+00  0.1221250E-02
    1       -5.339537   1.000000
    2       -1.491119   1.000000
    3        1.454290   1.000000
    4        1.454290   1.000000
    5        4.523817   0.000000
    6        4.957768   0.000000
    7       10.059338   0.000000
    8       10.059347   0.000000
 
  0.4705882E+00  0.4117647E+00  0.0000000E+00  0.4884999E-02
    1       -5.247183   1.000000
    2       -1.639156   1.000000
    3        1.316653   1.000000
    4        1.422681   1.000000
    5        4.612225   0.000000
    6        4.929985   0.000000
    7       10.122331   0.000000
    8       10.237890   0.000000
 
 -0.4705882E+00  0.4117647E+00  0.0000000E+00  0.4884999E-02
    1       -5.187740   1.000000
    2       -1.711203   1.000000
    3        1.066243   1.000000
    4        1.441891   1.000000
    5        4.695732   0.000000
    6        5.276756   0.000000
    7        9.967781   0.000000
    8       10.135731   0.000000
 
 -0.4117647E+00  0.4117647E+00  0.0000000E+00  0.2442499E-02
    1       -5.173929   1.000000
    2       -1.701878   1.000000
    3        0.807350   1.000000
    4        1.510906   1.000000
    5        4.765130   0.000000
    6        5.906590   0.000000
    7        9.662740   0.000000
    8        9.794689   0.000000
 
  0.4705882E+00  0.4705882E+00  0.0000000E+00  0.1221250E-02
    1       -5.190949   1.000000
    2       -1.739873   1.000000
    3        1.378302   1.000000
    4        1.378302   1.000000
    5        4.566194   0.000000
    6        4.713137   0.000000
    7       10.585752   0.000000
    8       10.585754   0.000000
 
 -0.4705882E+00  0.4705882E+00  0.0000000E+00  0.2442499E-02
    1       -5.169647   1.000000
    2       -1.764389   1.000000
    3        1.275301   1.000000
    4        1.384818   1.000000
    5        4.642721   0.000000
    6        4.798979   0.000000
    7       10.498590   0.000000
    8       10.544132   0.000000
 
  0.1764706E+00  0.1176471E+00  0.5882353E-01  0.4884999E-02
    1       -6.439685   1.000000
    2        1.369534   1.000000
    3        2.622290   1.000000
    4        2.890505   1.000000
    5        4.738056   0.000000
    6        5.904278   0.000000
    7        6.581297   0.000000
    8        6.852906   0.000000
 
  0.2352941E+00  0.1176471E+00  0.5882353E-01  0.9769998E-02
    1       -6.322559   1.000000
    2        0.771331   1.000000
    3        2.373994   1.000000
    4        2.805352   1.000000
    5        4.895718   0.000000
    6        6.026416   0.000000
    7        6.800610   0.000000
    8        7.249158   0.000000
 
  0.2941176E+00  0.1176471E+00  0.5882353E-01  0.9769998E-02
    1       -6.168443   1.000000
    2        0.147427   1.000000
    3        2.173515   1.000000
    4        2.677067   1.000000
    5        4.881276   0.000000
    6        6.268513   0.000000
    7        7.019012   0.000000
    8        7.620033   0.000000
 
  0.3529412E+00  0.1176471E+00  0.5882353E-01  0.9769998E-02
    1       -5.989833   1.000000
    2       -0.438753   1.000000
    3        2.018142   1.000000
    4        2.537560   1.000000
    5        4.794929   0.000000
    6        6.485218   0.000000
    7        7.126215   0.000000
    8        8.041810   0.000000
 
  0.4117647E+00  0.1176471E+00  0.5882353E-01  0.9769998E-02
    1       -5.807060   1.000000
    2       -0.941533   1.000000
    3        1.905643   1.000000
    4        2.412421   1.000000
    5        4.702162   0.000000
    6        6.600676   0.000000
    7        7.131036   0.000000
    8        8.572379   0.000000
 
  0.4705882E+00  0.1176471E+00  0.5882353E-01  0.9769998E-02
    1       -5.650470   1.000000
    2       -1.317188   1.000000
    3        1.833439   1.000000
    4        2.319272   1.000000
    5        4.630903   0.000000
    6        6.638704   0.000000
    7        7.098456   0.000000
    8        9.155617   0.000000
 
 -0.4705882E+00  0.1176471E+00  0.5882353E-01  0.9769998E-02
    1       -5.557573   1.000000
    2       -1.521166   1.000000
    3        1.798472   1.000000
    4        2.269672   1.000000
    5        4.593008   0.000000
    6        6.645563   0.000000
    7        7.072206   0.000000
    8        9.588632   0.000000
 
  0.2352941E+00  0.1764706E+00  0.5882353E-01  0.4884999E-02
    1       -6.281921   1.000000
    2        0.700186   1.000000
    3        2.291288   1.000000
    4        2.544016   1.000000
    5        5.172607   0.000000
    6        5.726298   0.000000
    7        7.179372   0.000000
    8        7.321817   0.000000
 
  0.2941176E+00  0.1764706E+00  0.5882353E-01  0.9769998E-02
    1       -6.141703   1.000000
    2        0.183476   1.000000
    3        2.029847   1.000000
    4        2.441180   1.000000
    5        5.247386   0.000000
    6        5.871098   0.000000
    7        7.427573   0.000000
    8        7.505176   0.000000
 
  0.3529412E+00  0.1764706E+00  0.5882353E-01  0.9769998E-02
    1       -5.973223   1.000000
    2       -0.345060   1.000000
    3        1.814071   1.000000
    4        2.313026   1.000000
    5        5.214412   0.000000
    6        6.151729   0.000000
    7        7.516979   0.000000
    8        7.670226   0.000000
 