       N       E                     dE             d eps       ncg     rms          rms(c)
DAV:   1     0.113193417650E+03    0.11319E+03   -0.43291E+03 14536   0.453E+02
DAV:   2    -0.203034407838E+01   -0.11522E+03   -0.10665E+03 14968   0.160E+02
DAV:   3    -0.869889745441E+01   -0.66686E+01   -0.65763E+01 17232   0.381E+01
DAV:   4    -0.874640794398E+01   -0.47510E-01   -0.47502E-01 15544   0.331E+00
DAV:   5    -0.874651294746E+01   -0.10500E-03   -0.10500E-03 17040   0.153E-01    0.834E+00
DAV:   6    -0.771937265074E+01    0.10271E+01   -0.73089E-01 18336   0.831E+00    0.211E+00
DAV:   7    -0.771678558504E+01    0.25871E-02   -0.34056E-02 15576   0.969E-01    0.130E+00
DAV:   8    -0.772671647962E+01   -0.99309E-02   -0.39483E-02 14408   0.988E-01    0.127E-01
DAV:   9    -0.772637100787E+01    0.34547E-03   -0.75533E-04 16584   0.192E-01    0.655E-02
DAV:  10    -0.772645527876E+01   -0.84271E-04   -0.27043E-04 15152   0.608E-02    0.524E-03
DAV:  11    -0.772645735154E+01   -0.20728E-05   -0.69155E-06 17088   0.134E-02    0.583E-03
DAV:  12    -0.772645780163E+01   -0.45009E-06   -0.83896E-07 17120   0.515E-03    0.159E-03
DAV:  13    -0.772645783909E+01   -0.37463E-07   -0.97189E-08 15600   0.162E-03
   1 F= -.77264578E+01 E0= -.77250115E+01  d E =-.772646E+01
