unknown system                          
            1
    -1.626035    1.626035    1.626035
     1.626035   -1.626035    1.626035
     1.626035    1.626035   -1.626035
   Ti
     1
Direct configuration=     1
   0.00000000  0.00000000  0.00000000
