 ----------------------------------------------------
    OOO  PPPP  EEEEE N   N M   M PPPP
   O   O P   P E     NN  N MM MM P   P
   O   O PPPP  EEEEE N N N M M M PPPP   -- VERSION
   O   O P     E     N  NN M   M P
    OOO  P     EEEEE N   N M   M P
 ----------------------------------------------------
 running  128 mpi-ranks, with    1 threads/rank
 distrk:  each k-point on   32 cores,    4 groups
 distr:  one band on   16 cores,    2 groups
 vasp.6.3.2 27Jun22 (build Jun 30 2023 15:13:53) complex                         
 POSCAR found type information on POSCAR CuO 
 POSCAR found :  2 types and       2 ions
 Reading from existing POTCAR
 scaLAPACK will be used
 Reading from existing POTCAR
 LDA part: xc-table for Pade appr. of Perdew
 -----------------------------------------------------------------------------
|                                                                             |
|           W    W    AA    RRRRR   N    N  II  N    N   GGGG   !!!           |
|           W    W   A  A   R    R  NN   N  II  NN   N  G    G  !!!           |
|           W    W  A    A  R    R  N N  N  II  N N  N  G       !!!           |
|           W WW W  AAAAAA  RRRRR   N  N N  II  N  N N  G  GGG   !            |
|           WW  WW  A    A  R   R   N   NN  II  N   NN  G    G                |
|           W    W  A    A  R    R  N    N  II  N    N   GGGG   !!!           |
|                                                                             |
|     The requested file  could not be found or opened for reading            |
|     k-point information. Automatic k-point generation is used as a          |
|     fallback, which may lead to unwanted results.                           |
|                                                                             |
 -----------------------------------------------------------------------------

 INCAR ok, starting setup
 POSCAR ok, starting setup
 FFT: planning ... GRIDC
 FFT: planning ... GRID_SOFT
 FFT: planning ... GRID
 WAVECAR not read
 entering main loop
       N       E                     dE             d eps       ncg     rms          rms(c)
DAV:   1     0.936200283823E+02    0.93620E+02   -0.93142E+03 14024   0.180E+03
DAV:   2    -0.530153982775E+00   -0.94150E+02   -0.85582E+02 13400   0.291E+02
DAV:   3    -0.528350923296E+01   -0.47534E+01   -0.46556E+01 15136   0.657E+01
DAV:   4    -0.532723038118E+01   -0.43721E-01   -0.43710E-01 14664   0.610E+00
DAV:   5    -0.532775536898E+01   -0.52499E-03   -0.52501E-03 16024   0.697E-01    0.271E+01
DAV:   6    -0.928719478456E+01   -0.39594E+01   -0.16969E+01 16328   0.127E+02    0.110E+01
DAV:   7    -0.811748960737E+01    0.11697E+01   -0.49222E+00 15584   0.916E+01    0.154E+00
DAV:   8    -0.815296279877E+01   -0.35473E-01   -0.35018E-01 14160   0.578E+00    0.710E-01
DAV:   9    -0.815150461242E+01    0.14582E-02   -0.77002E-03 18128   0.323E+00    0.407E-01
DAV:  10    -0.815406331799E+01   -0.25587E-02   -0.20698E-03 17984   0.111E+00    0.269E-01
DAV:  11    -0.815558199966E+01   -0.15187E-02   -0.51896E-04 19328   0.919E-01    0.324E-01
DAV:  12    -0.815399870113E+01    0.15833E-02   -0.43386E-04 18112   0.944E-01    0.295E-01
DAV:  13    -0.815156670052E+01    0.24320E-02   -0.19324E-03 17528   0.198E+00    0.261E-01
DAV:  14    -0.814987417304E+01    0.16925E-02   -0.13068E-03 19144   0.146E+00    0.211E-01
DAV:  15    -0.814761067798E+01    0.22635E-02   -0.11645E-02 19288   0.458E+00    0.104E-01
DAV:  16    -0.814782409357E+01   -0.21342E-03   -0.82114E-04 18216   0.884E-01    0.305E-02
DAV:  17    -0.814804086088E+01   -0.21677E-03   -0.65356E-04 17640   0.113E+00    0.567E-02
DAV:  18    -0.814789070361E+01    0.15016E-03   -0.88236E-04 17248   0.133E+00    0.474E-02
DAV:  19    -0.814779661930E+01    0.94084E-04   -0.10644E-04 16552   0.429E-01    0.989E-03
DAV:  20    -0.814780133753E+01   -0.47182E-05   -0.18091E-05 18688   0.131E-01    0.567E-03
DAV:  21    -0.814779715498E+01    0.41825E-05   -0.43196E-06 18344   0.789E-02    0.774E-04
DAV:  22    -0.814779718389E+01   -0.28907E-07   -0.17962E-07 12496   0.436E-03
   1 F= -.81477972E+01 E0= -.81477972E+01  d E =0.000000E+00  mag=     0.0000
 -----------------------------------------------------------------------------
|                                                                             |
|           W    W    AA    RRRRR   N    N  II  N    N   GGGG   !!!           |
|           W    W   A  A   R    R  NN   N  II  NN   N  G    G  !!!           |
|           W    W  A    A  R    R  N N  N  II  N N  N  G       !!!           |
|           W WW W  AAAAAA  RRRRR   N  N N  II  N  N N  G  GGG   !            |
|           WW  WW  A    A  R   R   N   NN  II  N   NN  G    G                |
|           W    W  A    A  R    R  N    N  II  N    N   GGGG   !!!           |
|                                                                             |
|     Tetrahedron method does not include variations of the Fermi             |
|     occupations, so forces and stress will be inaccurate. We suggest        |
|     using a different smearing scheme ISMEAR = 1 or 2 for metals in         |
|     relaxations.                                                            |
|                                                                             |
 -----------------------------------------------------------------------------

 PROFILE, used timers:     369
