   2   2   0   0
  0.1229218E+02  0.3263809E-09  0.3263809E-09  0.3263809E-09  0.0000000E+00
  1.000000000000000E-004
  CAR 
 unknown system                          
     21.18499896    -10.44120408  301      7.38147909      1.00000000
    -10.441  0.0000E+00  0.0000E+00
    -10.336  0.0000E+00  0.0000E+00
    -10.230  0.0000E+00  0.0000E+00
    -10.125  0.0000E+00  0.0000E+00
    -10.020  0.0000E+00  0.0000E+00
     -9.914  0.0000E+00  0.0000E+00
     -9.809  0.0000E+00  0.0000E+00
     -9.703  0.0000E+00  0.0000E+00
     -9.598  0.0000E+00  0.0000E+00
     -9.492  0.0000E+00  0.0000E+00
     -9.387  0.0000E+00  0.0000E+00
     -9.282  0.0000E+00  0.0000E+00
     -9.176  0.0000E+00  0.0000E+00
     -9.071  0.0000E+00  0.0000E+00
     -8.965  0.3530E-01  0.6965E-03
     -8.860  0.7654E-01  0.6906E-02
     -8.754  0.1039E+00  0.1662E-01
     -8.649  0.1275E+00  0.2882E-01
     -8.544  0.1442E+00  0.4309E-01
     -8.438  0.1619E+00  0.5930E-01
     -8.333  0.1767E+00  0.7712E-01
     -8.227  0.1922E+00  0.9660E-01
     -8.122  0.2049E+00  0.1175E+00
     -8.017  0.2191E+00  0.1399E+00
     -7.911  0.2314E+00  0.1636E+00
     -7.806  0.2437E+00  0.1887E+00
     -7.700  0.2570E+00  0.2151E+00
     -7.595  0.2684E+00  0.2428E+00
     -7.489  0.2804E+00  0.2717E+00
     -7.384  0.2930E+00  0.3019E+00
     -7.279  0.3049E+00  0.3334E+00
     -7.173  0.3169E+00  0.3662E+00
     -7.068  0.3297E+00  0.4003E+00
     -6.962  0.3427E+00  0.4357E+00
     -6.857  0.3556E+00  0.4725E+00
     -6.751  0.3694E+00  0.5107E+00
     -6.646  0.3841E+00  0.5504E+00
     -6.541  0.3996E+00  0.5918E+00
     -6.435  0.4163E+00  0.6347E+00
     -6.330  0.4346E+00  0.6796E+00
     -6.224  0.4551E+00  0.7265E+00
     -6.119  0.4788E+00  0.7756E+00
     -6.014  0.5077E+00  0.8276E+00
     -5.908  0.5449E+00  0.8830E+00
     -5.803  0.6013E+00  0.9432E+00
     -5.697  0.6886E+00  0.1013E+01
     -5.592  0.6910E+00  0.1086E+01
     -5.486  0.6666E+00  0.1157E+01
     -5.381  0.6476E+00  0.1226E+01
     -5.276  0.6362E+00  0.1294E+01
     -5.170  0.6233E+00  0.1360E+01
     -5.065  0.6067E+00  0.1425E+01
     -4.959  0.6026E+00  0.1489E+01
     -4.854  0.5888E+00  0.1552E+01
     -4.748  0.5810E+00  0.1613E+01
     -4.643  0.5789E+00  0.1674E+01
     -4.538  0.5794E+00  0.1735E+01
     -4.432  0.5924E+00  0.1797E+01
     -4.327  0.6380E+00  0.1861E+01
     -4.221  0.7857E+00  0.1936E+01
     -4.116  0.2463E+00  0.1987E+01
     -4.011  0.0000E+00  0.2000E+01
     -3.905  0.0000E+00  0.2000E+01
     -3.800  0.0000E+00  0.2000E+01
     -3.694  0.0000E+00  0.2000E+01
     -3.589  0.0000E+00  0.2000E+01
     -3.483  0.0000E+00  0.2000E+01
     -3.378  0.0000E+00  0.2000E+01
     -3.273  0.0000E+00  0.2000E+01
     -3.167  0.0000E+00  0.2000E+01
     -3.062  0.0000E+00  0.2000E+01
     -2.956  0.0000E+00  0.2000E+01
     -2.851  0.0000E+00  0.2000E+01
     -2.745  0.0000E+00  0.2000E+01
     -2.640  0.0000E+00  0.2000E+01
     -2.535  0.0000E+00  0.2000E+01
     -2.429  0.0000E+00  0.2000E+01
     -2.324  0.0000E+00  0.2000E+01
     -2.218  0.0000E+00  0.2000E+01
     -2.113  0.1065E+00  0.2005E+01
     -2.008  0.1738E+00  0.2020E+01
     -1.902  0.2148E+00  0.2041E+01
     -1.797  0.2766E+00  0.2067E+01
     -1.691  0.3865E+00  0.2100E+01
     -1.586  0.5057E+00  0.2147E+01
     -1.480  0.6508E+00  0.2209E+01
     -1.375  0.8646E+00  0.2286E+01
     -1.270  0.1267E+01  0.2394E+01
     -1.164  0.1653E+01  0.2557E+01
     -1.059  0.1036E+01  0.2700E+01
     -0.953  0.7857E+00  0.2793E+01
     -0.848  0.6779E+00  0.2870E+01
     -0.743  0.5829E+00  0.2935E+01
     -0.637  0.5359E+00  0.2994E+01
     -0.532  0.4822E+00  0.3048E+01
     -0.426  0.4450E+00  0.3097E+01
     -0.321  0.4205E+00  0.3142E+01
     -0.215  0.3923E+00  0.3185E+01
     -0.110  0.3605E+00  0.3225E+01
     -0.005  0.3458E+00  0.3262E+01
      0.101  0.3297E+00  0.3298E+01
      0.206  0.3124E+00  0.3332E+01
      0.312  0.2893E+00  0.3363E+01
      0.417  0.2788E+00  0.3393E+01
      0.523  0.2685E+00  0.3422E+01
      0.628  0.3509E+00  0.3452E+01
      0.733  0.4614E+00  0.3496E+01
      0.839  0.5534E+00  0.3549E+01
      0.944  0.6579E+00  0.3612E+01
      1.050  0.8471E+00  0.3691E+01
      1.155  0.7790E+00  0.3776E+01
      1.260  0.7514E+00  0.3856E+01
      1.366  0.7102E+00  0.3933E+01
      1.471  0.6973E+00  0.4007E+01
      1.577  0.7054E+00  0.4080E+01
      1.682  0.6986E+00  0.4154E+01
      1.788  0.7118E+00  0.4228E+01
      1.893  0.7155E+00  0.4303E+01
      1.998  0.7366E+00  0.4381E+01
      2.104  0.7485E+00  0.4459E+01
      2.209  0.7828E+00  0.4540E+01
      2.315  0.7844E+00  0.4622E+01
      2.420  0.8173E+00  0.4707E+01
      2.526  0.8597E+00  0.4796E+01
      2.631  0.8771E+00  0.4886E+01
      2.736  0.9451E+00  0.4982E+01
      2.842  0.1067E+01  0.5088E+01
      2.947  0.1083E+01  0.5202E+01
      3.053  0.1054E+01  0.5315E+01
      3.158  0.1043E+01  0.5426E+01
      3.263  0.1026E+01  0.5535E+01
      3.369  0.1017E+01  0.5643E+01
      3.474  0.1005E+01  0.5749E+01
      3.580  0.9922E+00  0.5854E+01
      3.685  0.9766E+00  0.5958E+01
      3.791  0.9584E+00  0.6060E+01
      3.896  0.9464E+00  0.6161E+01
      4.001  0.9378E+00  0.6260E+01
      4.107  0.9213E+00  0.6358E+01
      4.212  0.9079E+00  0.6454E+01
      4.318  0.9006E+00  0.6550E+01
      4.423  0.8934E+00  0.6644E+01
      4.529  0.8779E+00  0.6738E+01
      4.634  0.8625E+00  0.6829E+01
      4.739  0.8509E+00  0.6920E+01
      4.845  0.8390E+00  0.7009E+01
      4.950  0.8329E+00  0.7097E+01
      5.056  0.8208E+00  0.7184E+01
      5.161  0.8024E+00  0.7270E+01
      5.266  0.8005E+00  0.7355E+01
      5.372  0.7001E+00  0.7436E+01
      5.477  0.5927E+00  0.7503E+01
      5.583  0.5246E+00  0.7562E+01
      5.688  0.4769E+00  0.7615E+01
      5.794  0.4324E+00  0.7663E+01
      5.899  0.3937E+00  0.7706E+01
      6.004  0.3553E+00  0.7746E+01
      6.110  0.3277E+00  0.7782E+01
      6.215  0.2960E+00  0.7815E+01
      6.321  0.2691E+00  0.7844E+01
      6.426  0.2443E+00  0.7871E+01
      6.532  0.2199E+00  0.7896E+01
      6.637  0.1970E+00  0.7918E+01
      6.742  0.1739E+00  0.7937E+01
      6.848  0.1486E+00  0.7954E+01
      6.953  0.1295E+00  0.7969E+01
      7.059  0.1048E+00  0.7981E+01
      7.164  0.8534E-01  0.7991E+01
      7.269  0.4508E-01  0.7998E+01
      7.375  0.0000E+00  0.8000E+01
      7.480  0.0000E+00  0.8000E+01
      7.586  0.0000E+00  0.8000E+01
      7.691  0.0000E+00  0.8000E+01
      7.797  0.0000E+00  0.8000E+01
      7.902  0.0000E+00  0.8000E+01
      8.007  0.0000E+00  0.8000E+01
      8.113  0.0000E+00  0.8000E+01
      8.218  0.0000E+00  0.8000E+01
      8.324  0.0000E+00  0.8000E+01
      8.429  0.0000E+00  0.8000E+01
      8.535  0.6014E-01  0.8002E+01
      8.640  0.1216E+00  0.8012E+01
      8.745  0.1699E+00  0.8028E+01
      8.851  0.2245E+00  0.8048E+01
      8.956  0.2690E+00  0.8075E+01
      9.062  0.3005E+00  0.8105E+01
      9.167  0.3332E+00  0.8138E+01
      9.272  0.3676E+00  0.8175E+01
      9.378  0.4043E+00  0.8216E+01
      9.483  0.4382E+00  0.8260E+01
      9.589  0.4646E+00  0.8308E+01
      9.694  0.4930E+00  0.8358E+01
      9.800  0.5229E+00  0.8412E+01
      9.905  0.5527E+00  0.8469E+01
     10.010  0.5840E+00  0.8528E+01
     10.116  0.6187E+00  0.8592E+01
     10.221  0.6559E+00  0.8659E+01
     10.327  0.6935E+00  0.8730E+01
     10.432  0.7302E+00  0.8805E+01
     10.538  0.7716E+00  0.8884E+01
     10.643  0.8200E+00  0.8968E+01
     10.748  0.9071E+00  0.9058E+01
     10.854  0.1105E+01  0.9164E+01
     10.959  0.1316E+01  0.9291E+01
     11.065  0.1778E+01  0.9452E+01
     11.170  0.1498E+01  0.9627E+01
     11.275  0.1408E+01  0.9777E+01
     11.381  0.1241E+01  0.9916E+01
     11.486  0.1085E+01  0.1004E+02
     11.592  0.9766E+00  0.1015E+02
     11.697  0.6883E+00  0.1024E+02
     11.803  0.5501E+00  0.1030E+02
     11.908  0.5121E+00  0.1036E+02
     12.013  0.5520E+00  0.1042E+02
     12.119  0.6285E+00  0.1048E+02
     12.224  0.1488E+01  0.1061E+02
     12.330  0.1162E+01  0.1075E+02
     12.435  0.1160E+01  0.1087E+02
     12.541  0.1164E+01  0.1099E+02
     12.646  0.1197E+01  0.1112E+02
     12.751  0.1235E+01  0.1125E+02
     12.857  0.1320E+01  0.1138E+02
     12.962  0.1449E+01  0.1153E+02
     13.068  0.1393E+01  0.1168E+02
     13.173  0.1013E+01  0.1181E+02
     13.278  0.8934E+00  0.1191E+02
     13.384  0.8629E+00  0.1200E+02
     13.489  0.8628E+00  0.1209E+02
     13.595  0.8500E+00  0.1219E+02
     13.700  0.9071E+00  0.1228E+02
     13.806  0.9922E+00  0.1238E+02
     13.911  0.9682E+00  0.1248E+02
     14.016  0.9277E+00  0.1258E+02
     14.122  0.1002E+01  0.1268E+02
     14.227  0.1027E+01  0.1279E+02
     14.333  0.9783E+00  0.1290E+02
     14.438  0.9625E+00  0.1300E+02
     14.543  0.9983E+00  0.1310E+02
     14.649  0.9642E+00  0.1320E+02
     14.754  0.1045E+01  0.1331E+02
     14.860  0.1034E+01  0.1342E+02
     14.965  0.9879E+00  0.1352E+02
     15.071  0.9517E+00  0.1363E+02
     15.176  0.9149E+00  0.1372E+02
     15.281  0.9107E+00  0.1382E+02
     15.387  0.9276E+00  0.1392E+02
     15.492  0.9148E+00  0.1401E+02
     15.598  0.6714E+00  0.1410E+02
     15.703  0.6574E+00  0.1417E+02
     15.809  0.6478E+00  0.1423E+02
     15.914  0.6487E+00  0.1430E+02
     16.019  0.6672E+00  0.1437E+02
     16.125  0.6860E+00  0.1444E+02
     16.230  0.7015E+00  0.1452E+02
     16.336  0.7268E+00  0.1459E+02
     16.441  0.8578E+00  0.1467E+02
     16.546  0.9062E+00  0.1477E+02
     16.652  0.8905E+00  0.1486E+02
     16.757  0.9561E+00  0.1496E+02
     16.863  0.1033E+01  0.1506E+02
     16.968  0.1106E+01  0.1518E+02
     17.074  0.9630E+00  0.1528E+02
     17.179  0.6431E+00  0.1537E+02
     17.284  0.5428E+00  0.1543E+02
     17.390  0.5028E+00  0.1548E+02
     17.495  0.4425E+00  0.1553E+02
     17.601  0.3844E+00  0.1558E+02
     17.706  0.3752E+00  0.1562E+02
     17.812  0.3524E+00  0.1565E+02
     17.917  0.3238E+00  0.1569E+02
     18.022  0.3000E+00  0.1572E+02
     18.128  0.2777E+00  0.1575E+02
     18.233  0.2678E+00  0.1578E+02
     18.339  0.2481E+00  0.1581E+02
     18.444  0.2339E+00  0.1583E+02
     18.549  0.2196E+00  0.1586E+02
     18.655  0.1948E+00  0.1588E+02
     18.760  0.1748E+00  0.1590E+02
     18.866  0.1591E+00  0.1592E+02
     18.971  0.1449E+00  0.1593E+02
     19.077  0.1342E+00  0.1595E+02
     19.182  0.1248E+00  0.1596E+02
     19.287  0.1005E+00  0.1597E+02
     19.393  0.7887E-01  0.1598E+02
     19.498  0.6361E-01  0.1599E+02
     19.604  0.5305E-01  0.1600E+02
     19.709  0.4220E-02  0.1600E+02
     19.815  0.0000E+00  0.1600E+02
     19.920  0.0000E+00  0.1600E+02
     20.025  0.0000E+00  0.1600E+02
     20.131  0.0000E+00  0.1600E+02
     20.236  0.0000E+00  0.1600E+02
     20.342  0.0000E+00  0.1600E+02
     20.447  0.0000E+00  0.1600E+02
     20.552  0.0000E+00  0.1600E+02
     20.658  0.0000E+00  0.1600E+02
     20.763  0.0000E+00  0.1600E+02
     20.869  0.0000E+00  0.1600E+02
     20.974  0.0000E+00  0.1600E+02
     21.080  0.0000E+00  0.1600E+02
     21.185  0.0000E+00  0.1600E+02
