    2    2    1    1
  0.1229218E+02  0.3263809E-09  0.3263809E-09  0.3263809E-09  0.0000000E+00
  1.000000000000000E-004
  CAR 
 unknown system                          
      8    413      8
 
  0.0000000E+00  0.0000000E+00  0.0000000E+00  0.7233796E-04
    1       -9.003649   1.000000
    2        7.372089   1.000000
    3        7.372089   1.000000
    4        7.372089   1.000000
    5       10.779393   0.000000
    6       10.779393   0.000000
    7       10.779394   0.000000
    8       13.426494   0.000000
 
  0.4166667E-01  0.0000000E+00  0.0000000E+00  0.5787037E-03
    1       -8.972298   1.000000
    2        7.055582   1.000000
    3        7.304780   1.000000
    4        7.304780   1.000000
    5       10.866876   0.000000
    6       10.866877   0.000000
    7       10.891688   0.000000
    8       13.547000   0.000000
 
  0.8333333E-01  0.0000000E+00  0.0000000E+00  0.5787037E-03
    1       -8.878357   1.000000
    2        6.281766   1.000000
    3        7.125349   1.000000
    4        7.125349   1.000000
    5       11.069383   0.000000
    6       11.101464   0.000000
    7       11.101464   0.000000
    8       13.896987   0.000000
 
  0.1250000E+00  0.0000000E+00  0.0000000E+00  0.5787037E-03
    1       -8.722476   1.000000
    2        5.295732   1.000000
    3        6.880384   1.000000
    4        6.880385   1.000000
    5       11.152471   0.000000
    6       11.420353   0.000000
    7       11.420353   0.000000
    8       14.408124   0.000000
 
  0.1666667E+00  0.0000000E+00  0.0000000E+00  0.5787037E-03
    1       -8.505734   1.000000
    2        4.229722   1.000000
    3        6.611099   1.000000
    4        6.611100   1.000000
    5       11.141259   0.000000
    6       11.755409   0.000000
    7       11.755409   0.000000
    8       14.975567   0.000000
 
  0.2083333E+00  0.0000000E+00  0.0000000E+00  0.5787037E-03
    1       -8.230046   1.000000
    2        3.147833   1.000000
    3        6.344955   1.000000
    4        6.344955   1.000000
    5       11.079186   0.000000
    6       12.046399   0.000000
    7       12.046399   0.000000
    8       15.518282   0.000000
 
  0.2500000E+00  0.0000000E+00  0.0000000E+00  0.5787037E-03
    1       -7.898545   1.000000
    2        2.085500   1.000000
    3        6.098430   1.000000
    4        6.098430   1.000000
    5       10.998215   0.000000
    6       12.250587   0.000000
    7       12.250587   0.000000
    8       15.975800   0.000000
 
  0.2916667E+00  0.0000000E+00  0.0000000E+00  0.5787037E-03
    1       -7.516573   1.000000
    2        1.066463   1.000000
    3        5.881224   1.000000
    4        5.881224   1.000000
    5       10.916604   0.000000
    6       12.354672   0.000000
    7       12.354672   0.000000
    8       16.293205   0.000000
 
  0.3333333E+00  0.0000000E+00  0.0000000E+00  0.5787037E-03
    1       -7.093656   1.000000
    2        0.111546   1.000000
    3        5.699032   1.000000
    4        5.699032   1.000000
    5       10.843960   0.000000
    6       12.376101   0.000000
    7       12.376101   0.000000
    8       16.447624   0.000000
 
  0.3750000E+00  0.0000000E+00  0.0000000E+00  0.5787037E-03
    1       -6.647858   1.000000
    2       -0.753864   1.000000
    3        5.555131   1.000000
    4        5.555131   1.000000
    5       10.785192   0.000000
    6       12.348412   0.000000
    7       12.348412   0.000000
    8       16.477903   0.000000
 
  0.4166667E+00  0.0000000E+00  0.0000000E+00  0.5787037E-03
    1       -6.215774   1.000000
    2       -1.488573   1.000000
    3        5.451380   1.000000
    4        5.451380   1.000000
    5       10.742476   0.000000
    6       12.304628   0.000000
    7       12.304628   0.000000
    8       16.450562   0.000000
 
  0.4583333E+00  0.0000000E+00  0.0000000E+00  0.5787037E-03
    1       -5.871182   1.000000
    2       -2.015767   1.000000
    3        5.388855   1.000000
    4        5.388855   1.000000
    5       10.716728   0.000000
    6       12.269079   0.000000
    7       12.269079   0.000000
    8       16.416469   0.000000
 
  0.5000000E+00  0.0000000E+00  0.0000000E+00  0.2893519E-03
    1       -5.732049   1.000000
    2       -2.215990   1.000000
    3        5.367948   1.000000
    4        5.367948   1.000000
    5       10.708126   0.000000
    6       12.255705   0.000000
    7       12.255705   0.000000
    8       16.402375   0.000000
 
  0.4166667E-01  0.4166667E-01  0.0000000E+00  0.4340278E-03
    1       -8.961835   1.000000
    2        7.161280   1.000000
    3        7.161280   1.000000
    4        7.194514   1.000000
    5       10.660531   0.000000
    6       11.035454   0.000000
    7       11.035454   0.000000
    8       13.573823   0.000000
 
  0.8333333E-01  0.4166667E-01  0.0000000E+00  0.1736111E-02
    1       -8.888731   1.000000
    2        6.539991   1.000000
    3        6.928963   1.000000
    4        7.153571   1.000000
    5       10.652848   0.000000
    6       11.291436   0.000000
    7       11.330005   0.000000
    8       13.816482   0.000000
 
  0.1250000E+00  0.4166667E-01  0.0000000E+00  0.1736111E-02
    1       -8.753477   1.000000
    2        5.622907   1.000000
    3        6.654292   1.000000
    4        7.002663   1.000000
    5       10.804429   0.000000
    6       11.478352   0.000000
    7       11.689504   0.000000
    8       14.239463   0.000000
 
  0.1666667E+00  0.4166667E-01  0.0000000E+00  0.1736111E-02
    1       -8.556944   1.000000
    2        4.586505   1.000000
    3        6.372346   1.000000
    4        6.773996   1.000000
    5       10.998144   0.000000
    6       11.602698   0.000000
    7       12.053441   0.000000
    8       14.738482   0.000000
 
  0.2083333E+00  0.4166667E-01  0.0000000E+00  0.1736111E-02
    1       -8.300783   1.000000
    2        3.513178   1.000000
    3        6.105345   1.000000
    4        6.511406   1.000000
    5       11.103438   0.000000
    6       11.760705   0.000000
    7       12.366319   0.000000
    8       15.216148   0.000000
 
  0.2500000E+00  0.4166667E-01  0.0000000E+00  0.1736111E-02
    1       -7.987609   1.000000
    2        2.446925   1.000000
    3        5.866710   1.000000
    4        6.244550   1.000000
    5       11.099980   0.000000
    6       11.947383   0.000000
    7       12.584664   0.000000
    8       15.631092   0.000000
 
  0.2916667E+00  0.4166667E-01  0.0000000E+00  0.1736111E-02
    1       -7.621920   1.000000
    2        1.415113   1.000000
    3        5.664370   1.000000
    4        5.991237   1.000000
    5       11.048264   0.000000
    6       12.087760   0.000000
    7       12.690383   0.000000
    8       15.981962   0.000000
 
  0.3333333E+00  0.4166667E-01  0.0000000E+00  0.1736111E-02
    1       -7.211504   1.000000
    2        0.439389   1.000000
    3        5.502945   1.000000
    4        5.762149   1.000000
    5       10.985962   0.000000
    6       12.156840   0.000000
    7       12.696864   0.000000
    8       16.257863   0.000000
 
  0.3750000E+00  0.4166667E-01  0.0000000E+00  0.1736111E-02
    1       -6.770879   1.000000
    2       -0.457092   1.000000
    3        5.384879   1.000000
    4        5.563849   1.000000
    5       10.929131   0.000000
    6       12.173478   0.000000
    7       12.637594   0.000000
    8       16.429851   0.000000
 
  0.4166667E+00  0.4166667E-01  0.0000000E+00  0.1736111E-02
    1       -6.328819   1.000000
    2       -1.239883   1.000000
    3        5.311284   1.000000
    4        5.400561   1.000000
    5       10.884794   0.000000
    6       12.169297   0.000000
    7       12.548625   0.000000
    8       16.503160   0.000000
 
  0.4583333E+00  0.4166667E-01  0.0000000E+00  0.1736111E-02
    1       -5.944210   1.000000
    2       -1.846559   1.000000
    3        5.275232   1.000000
    4        5.282294   1.000000
    5       10.856034   0.000000
    6       12.170921   0.000000
    7       12.458127   0.000000
    8       16.520814   0.000000
 
  0.5000000E+00  0.4166667E-01  0.0000000E+00  0.1736111E-02
    1       -5.723324   1.000000
    2       -2.168767   1.000000
    3        5.190093   1.000000
    4        5.297391   1.000000
    5       10.844018   0.000000
    6       12.195115   0.000000
    7       12.384044   0.000000
    8       16.523128   0.000000
 
 -0.4583333E+00  0.4166667E-01  0.0000000E+00  0.1736111E-02
    1       -5.770822   1.000000
    2       -2.100897   1.000000
    3        5.146846   1.000000
    4        5.355532   1.000000
    5       10.849002   0.000000
    6       12.248941   0.000000
    7       12.334569   0.000000
    8       16.529495   0.000000
 
 -0.4166667E+00  0.4166667E-01  0.0000000E+00  0.1736111E-02
    1       -6.060602   1.000000
    2       -1.669309   1.000000
    3        5.146794   1.000000
    4        5.455241   1.000000
    5       10.870839   0.000000
    6       12.308776   0.000000
    7       12.330644   0.000000
    8       16.537542   0.000000
 
 -0.3750000E+00  0.4166667E-01  0.0000000E+00  0.1736111E-02
    1       -6.473704   1.000000
    2       -0.994161   1.000000
    3        5.190903   1.000000
    4        5.594672   1.000000
    5       10.909087   0.000000
    6       12.296575   0.000000
    7       12.429347   0.000000
    8       16.523353   0.000000
 
 -0.3333333E+00  0.4166667E-01  0.0000000E+00  0.1736111E-02
    1       -6.919905   1.000000
    2       -0.168313   1.000000
    3        5.279553   1.000000
    4        5.771298   1.000000
    5       10.962738   0.000000
    6       12.277753   0.000000
    7       12.523526   0.000000
    8       16.443555   0.000000
 
 -0.2916667E+00  0.4166667E-01  0.0000000E+00  0.1736111E-02
    1       -7.352695   1.000000
    2        0.757638   1.000000
    3        5.412495   1.000000
    4        5.981657   1.000000
    5       11.029494   0.000000
    6       12.223027   0.000000
    7       12.580196   0.000000
    8       16.255169   0.000000
 
 -0.2500000E+00  0.4166667E-01  0.0000000E+00  0.1736111E-02
    1       -7.749376   1.000000
    2        1.754322   1.000000
    3        5.588453   1.000000
    4        6.220630   1.000000
    5       11.104524   0.000000
    6       12.100888   0.000000
    7       12.558767   0.000000
    8       15.951851   0.000000
 
 -0.2083333E+00  0.4166667E-01  0.0000000E+00  0.1736111E-02
    1       -8.098187   1.000000
    2        2.799799   1.000000
    3        5.804688   1.000000
    4        6.480239   1.000000
    5       11.178021   0.000000
    6       11.893389   0.000000
    7       12.426772   0.000000
    8       15.560697   0.000000
 
 -0.1666667E+00  0.4166667E-01  0.0000000E+00  0.1736111E-02
    1       -8.392734   1.000000
    2        3.871002   1.000000
    3        6.056319   1.000000
    4        6.747542   1.000000
    5       11.230886   0.000000
    6       11.612655   0.000000
    7       12.183649   0.000000
    8       15.104194   0.000000
 
 -0.1250000E+00  0.4166667E-01  0.0000000E+00  0.1736111E-02
    1       -8.629229   1.000000
    2        4.935219   1.000000
    3        6.335306   1.000000
    4        7.001064   1.000000
    5       11.228122   0.000000
    6       11.303088   0.000000
    7       11.869778   0.000000
    8       14.603368   0.000000
 
 -0.8333333E-01  0.4166667E-01  0.0000000E+00  0.1736111E-02
    1       -8.805463   1.000000
    2        5.933522   1.000000
    3        6.630682   1.000000
    4        7.206967   1.000000
    5       11.030459   0.000000
    6       11.126105   0.000000
    7       11.542279   0.000000
    8       14.113398   0.000000
 
 -0.4166667E-01  0.4166667E-01  0.0000000E+00  0.8680556E-03
    1       -8.920057   1.000000
    2        6.719676   1.000000
    3        6.955733   1.000000
    4        7.320465   1.000000
    5       10.867007   0.000000
    6       10.956349   0.000000
    7       11.209370   0.000000
    8       13.733584   0.000000
 
  0.8333333E-01  0.8333333E-01  0.0000000E+00  0.4340278E-03
    1       -8.836524   1.000000
    2        6.662096   1.000000
    3        6.662096   1.000000
    4        6.705355   1.000000
    5       10.369548   0.000000
    6       11.669276   0.000000
    7       11.669276   0.000000
    8       13.882177   0.000000
 
  0.1250000E+00  0.8333333E-01  0.0000000E+00  0.1736111E-02
    1       -8.722036   1.000000
    2        5.884033   1.000000
    3        6.367387   1.000000
    4        6.679457   1.000000
    5       10.314968   0.000000
    6       11.977074   0.000000
    7       12.064030   0.000000
    8       14.106802   0.000000
 
  0.1666667E+00  0.8333333E-01  0.0000000E+00  0.1736111E-02
    1       -8.546018   1.000000
    2        4.914870   1.000000
    3        6.075168   1.000000
    4        6.540734   1.000000
    5       10.447278   0.000000
    6       12.124375   0.000000
    7       12.460360   0.000000
    8       14.420635   0.000000
 
  0.2083333E+00  0.8333333E-01  0.0000000E+00  0.1736111E-02
    1       -8.309861   1.000000
    2        3.875670   1.000000
    3        5.804744   1.000000
    4        6.314939   1.000000
    5       10.665286   0.000000
    6       12.175173   0.000000
    7       12.806052   0.000000
    8       14.704620   0.000000
 
  0.2500000E+00  0.8333333E-01  0.0000000E+00  0.1736111E-02
    1       -8.015794   1.000000
    2        2.823109   1.000000
    3        5.568082   1.000000
    4        6.048282   1.000000
    5       10.865751   0.000000
    6       12.203670   0.000000
    7       13.055580   0.000000
    8       14.941714   0.000000
 
  0.2916667E+00  0.8333333E-01  0.0000000E+00  0.1736111E-02
    1       -7.667617   1.000000
    2        1.791437   1.000000
    3        5.372441   1.000000
    4        5.772268   1.000000
    5       10.987332   0.000000
    6       12.233026   0.000000
    7       13.183725   0.000000
    8       15.210455   0.000000
 
  0.3333333E+00  0.8333333E-01  0.0000000E+00  0.1736111E-02
    1       -7.271781   1.000000
    2        0.805192   1.000000
    3        5.222131   1.000000
    4        5.506118   1.000000
    5       11.031932   0.000000
    6       12.247244   0.000000
    7       13.196655   0.000000
    8       15.564949   0.000000
 
  0.3750000E+00  0.8333333E-01  0.0000000E+00  0.1736111E-02
    1       -6.840074   1.000000
    2       -0.112680   1.000000
    3        5.119510   1.000000
    4        5.261584   1.000000
    5       11.034238   0.000000
    6       12.237251   0.000000
    7       13.125381   0.000000
    8       15.973899   0.000000
 
  0.4166667E+00  0.8333333E-01  0.0000000E+00  0.1736111E-02
    1       -6.395269   1.000000
    2       -0.932160   1.000000
    3        5.046361   1.000000
    4        5.065507   1.000000
    5       11.025229   0.000000
    6       12.216322   0.000000
    7       13.007886   0.000000
    8       16.348128   0.000000
 
  0.4583333E+00  0.8333333E-01  0.0000000E+00  0.1736111E-02
    1       -5.983849   1.000000
    2       -1.602242   1.000000
    3        4.865863   1.000000
    4        5.060051   1.000000
    5       11.023139   0.000000
    6       12.204065   0.000000
    7       12.876101   0.000000
    8       16.612114   0.000000
 
  0.5000000E+00  0.8333333E-01  0.0000000E+00  0.1736111E-02
    1       -5.695758   1.000000
    2       -2.030151   1.000000
    3        4.724224   1.000000
    4        5.102229   1.000000
    5       11.036331   0.000000
    6       12.216063   0.000000
    7       12.751689   0.000000
    8       16.757711   0.000000
 
 -0.4583333E+00  0.8333333E-01  0.0000000E+00  0.1736111E-02
    1       -5.649004   1.000000
    2       -2.096536   1.000000
    3        4.624701   1.000000
    4        5.190361   1.000000
    5       11.066807   0.000000
    6       12.261862   0.000000
    7       12.646139   0.000000
    8       16.815280   0.000000
 
 -0.4166667E+00  0.8333333E-01  0.0000000E+00  0.1736111E-02
    1       -5.869147   1.000000
    2       -1.775596   1.000000
    3        4.569936   1.000000
    4        5.322136   1.000000
    5       11.112925   0.000000
    6       12.344956   0.000000
    7       12.561776   0.000000
    8       16.800043   0.000000
 
 -0.3750000E+00  0.8333333E-01  0.0000000E+00  0.1736111E-02
    1       -6.252288   1.000000
    2       -1.172297   1.000000
    3        4.561982   1.000000
    4        5.494438   1.000000
    5       11.171585   0.000000
    6       12.461146   0.000000
    7       12.491700   0.000000
    8       16.696391   0.000000
 
 -0.3333333E+00  0.8333333E-01  0.0000000E+00  0.1736111E-02
    1       -6.692836   1.000000
    2       -0.394591   1.000000
    3        4.602343   1.000000
    4        5.703175   1.000000
    5       11.239566   0.000000
    6       12.419288   0.000000
    7       12.595365   0.000000
    8       16.477344   0.000000
 
 -0.2916667E+00  0.8333333E-01  0.0000000E+00  0.1736111E-02
    1       -7.132146   1.000000
    2        0.494772   1.000000
    3        4.691992   1.000000
    4        5.942912   1.000000
    5       11.313396   0.000000
    6       12.318946   0.000000
    7       12.717291   0.000000
    8       16.148351   0.000000
 
 -0.2500000E+00  0.8333333E-01  0.0000000E+00  0.1736111E-02
    1       -7.541470   1.000000
    2        1.460271   1.000000
    3        4.831404   1.000000
    4        6.206009   1.000000
    5       11.387622   0.000000
    6       12.162542   0.000000
    7       12.778360   0.000000
    8       15.768568   0.000000
 
 -0.2083333E+00  0.8333333E-01  0.0000000E+00  0.1736111E-02
    1       -7.906285   1.000000
    2        2.476410   1.000000
    3        5.020800   1.000000
    4        6.481183   1.000000
    5       11.451545   0.000000
    6       11.934839   0.000000
    7       12.722155   0.000000
    8       15.410734   0.000000
 
 -0.1666667E+00  0.8333333E-01  0.0000000E+00  0.1736111E-02
    1       -8.218749   1.000000
    2        3.515788   1.000000
    3        5.261539   1.000000
    4        6.750923   1.000000
    5       11.483731   0.000000
    6       11.650727   0.000000
    7       12.524899   0.000000
    8       15.096445   0.000000
 
 -0.1250000E+00  0.8333333E-01  0.0000000E+00  0.1736111E-02
    1       -8.474374   1.000000
    2        4.532582   1.000000
    3        5.563842   1.000000
    4        6.988206   1.000000
    5       11.358903   0.000000
    6       11.446657   0.000000
    7       12.231431   0.000000
    8       14.781221   0.000000
 
 -0.8333333E-01  0.8333333E-01  0.0000000E+00  0.8680556E-03
    1       -8.670482   1.000000
    2        5.402224   1.000000
    3        5.993047   1.000000
    4        7.154307   1.000000
    5       11.129065   0.000000
    6       11.307375   0.000000
    7       11.908388   0.000000
    8       14.435582   0.000000
 
  0.1250000E+00  0.1250000E+00  0.0000000E+00  0.4340278E-03
    1       -8.628335   1.000000
    2        5.995602   1.000000
    3        6.059280   1.000000
    4        6.059281   1.000000
    5       10.006514   0.000000
    6       12.493118   0.000000
    7       12.493118   0.000000
    8       14.031842   0.000000
 
  0.1666667E+00  0.1250000E+00  0.0000000E+00  0.1736111E-02
    1       -8.473007   1.000000
    2        5.163553   1.000000
    3        5.758029   1.000000
    4        6.024414   1.000000
    5        9.940997   0.000000
    6       12.805682   0.000000
    7       12.927256   0.000000
    8       14.050871   0.000000
 
  0.2083333E+00  0.1250000E+00  0.0000000E+00  0.1736111E-02
    1       -8.257185   1.000000
    2        4.195516   1.000000
    3        5.481801   1.000000
    4        5.875771   1.000000
    5       10.074987   0.000000
    6       12.892287   0.000000
    7       13.316536   0.000000
    8       14.121222   0.000000
 
  0.2500000E+00  0.1250000E+00  0.0000000E+00  0.1736111E-02
    1       -7.982813   1.000000
    2        3.184002   1.000000
    3        5.242135   1.000000
    4        5.635948   1.000000
    5       10.304012   0.000000
    6       12.888220   0.000000
    7       13.613241   0.000000
    8       14.187652   0.000000
 
  0.2916667E+00  0.1250000E+00  0.0000000E+00  0.1736111E-02
    1       -7.653112   1.000000
    2        2.172530   1.000000
    3        5.046278   1.000000
    4        5.353024   1.000000
    5       10.522344   0.000000
    6       12.878000   0.000000
    7       13.784140   0.000000
    8       14.313170   0.000000
 
  0.3333333E+00  0.1250000E+00  0.0000000E+00  0.1736111E-02
    1       -7.273517   1.000000
    2        1.191097   1.000000
    3        4.898617   1.000000
    4        5.059932   1.000000
    5       10.669398   0.000000
    6       12.863063   0.000000
    7       13.825491   0.000000
    8       14.595089   0.000000
 
  0.3750000E+00  0.1250000E+00  0.0000000E+00  0.1736111E-02
    1       -6.853701   1.000000
    2        0.264761   1.000000
    3        4.776956   1.000000
    4        4.801690   1.000000
    5       10.746431   0.000000
    6       12.826058   0.000000
    7       13.762988   0.000000
    8       15.058655   0.000000
 
  0.4166667E+00  0.1250000E+00  0.0000000E+00  0.1736111E-02
    1       -6.411905   1.000000
    2       -0.578451   1.000000
    3        4.516896   1.000000
    4        4.756633   1.000000
    5       10.788046   0.000000
    6       12.774185   0.000000
    7       13.635424   0.000000
    8       15.641501   0.000000
 
  0.4583333E+00  0.1250000E+00  0.0000000E+00  0.1736111E-02
    1       -5.984789   1.000000
    2       -1.295586   1.000000
    3        4.288390   1.000000
    4        4.763453   1.000000
    5       10.827389   0.000000
    6       12.724773   0.000000
    7       13.478338   0.000000
    8       16.239605   0.000000
 
  0.5000000E+00  0.1250000E+00  0.0000000E+00  0.1736111E-02
    1       -5.645701   1.000000
    2       -1.809408   1.000000
    3        4.097693   1.000000
    4        4.821243   1.000000
    5       10.884796   0.000000
    6       12.691386   0.000000
    7       13.317212   0.000000
    8       16.734511   0.000000
 
 -0.4583333E+00  0.1250000E+00  0.0000000E+00  0.1736111E-02
    1       -5.510267   1.000000
    2       -2.002181   1.000000
    3        3.949614   1.000000
    4        4.928253   1.000000
    5       10.968952   0.000000
    6       12.683148   0.000000
    7       13.166787   0.000000
    8       17.028485   0.000000
 
 -0.4166667E+00  0.1250000E+00  0.0000000E+00  0.1736111E-02
    1       -5.648566   1.000000
    2       -1.803155   1.000000
    3        3.847963   1.000000
    4        5.081709   1.000000
    5       11.079906   0.000000
    6       12.706413   0.000000
    7       13.031924   0.000000
    8       17.086108   0.000000
 
 -0.3750000E+00  0.1250000E+00  0.0000000E+00  0.1736111E-02
    1       -5.989017   1.000000
    2       -1.284752   1.000000
    3        3.795840   1.000000
    4        5.277836   1.000000
    5       11.211270   0.000000
    6       12.764947   0.000000
    7       12.908126   0.000000
    8       16.914577   0.000000
 
 -0.3333333E+00  0.1250000E+00  0.0000000E+00  0.1736111E-02
    1       -6.416323   1.000000
    2       -0.564752   1.000000
    3        3.795897   1.000000
    4        5.511459   1.000000
    5       11.352128   0.000000
    6       12.781101   0.000000
    7       12.856875   0.000000
    8       16.548516   0.000000
 
 -0.2916667E+00  0.1250000E+00  0.0000000E+00  0.1736111E-02
    1       -6.857778   1.000000
    2        0.279387   1.000000
    3        3.850665   1.000000
    4        5.775456   1.000000
    5       11.489401   0.000000
    6       12.627907   0.000000
    7       12.966854   0.000000
    8       16.065269   0.000000
 
 -0.2500000E+00  0.1250000E+00  0.0000000E+00  0.1736111E-02
    1       -7.277064   1.000000
    2        1.202695   1.000000
    3        3.963496   1.000000
    4        6.059794   1.000000
    5       11.609217   0.000000
    6       12.423764   0.000000
    7       13.052084   0.000000
    8       15.572519   0.000000
 
 -0.2083333E+00  0.1250000E+00  0.0000000E+00  0.1736111E-02
    1       -7.656084   1.000000
    2        2.170434   1.000000
    3        4.141519   1.000000
    4        6.349890   1.000000
    5       11.695139   0.000000
    6       12.158431   0.000000
    7       13.033075   0.000000
    8       15.188333   0.000000
 
 -0.1666667E+00  0.1250000E+00  0.0000000E+00  0.1736111E-02
    1       -7.985217   1.000000
    2        3.133609   1.000000
    3        4.407736   1.000000
    4        6.623939   1.000000
    5       11.720687   0.000000
    6       11.853357   0.000000
    7       12.846231   0.000000
    8       14.984646   0.000000
 
 -0.1250000E+00  0.1250000E+00  0.0000000E+00  0.8680556E-03
    1       -8.259055   1.000000
    2        3.972455   1.000000
    3        4.848425   1.000000
    4        6.850283   1.000000
    5       11.563084   0.000000
    6       11.643711   0.000000
    7       12.547749   0.000000
    8       14.893125   0.000000
 
  0.1666667E+00  0.1666667E+00  0.0000000E+00  0.4340278E-03
    1       -8.338370   1.000000
    2        5.146534   1.000000
    3        5.448476   1.000000
    4        5.448476   1.000000
    5        9.632962   0.000000
    6       13.406916   0.000000
    7       13.406916   0.000000
    8       13.685834   0.000000
 
  0.2083333E+00  0.1666667E+00  0.0000000E+00  0.1736111E-02
    1       -8.143072   1.000000
    2        4.389236   1.000000
    3        5.164738   1.000000
    4        5.318036   1.000000
    5        9.575607   0.000000
    6       13.323109   0.000000
    7       13.851181   0.000000
    8       13.855647   0.000000
 
  0.2500000E+00  0.1666667E+00  0.0000000E+00  0.1736111E-02
    1       -7.888818   1.000000
    2        3.468571   1.000000
    3        4.918552   1.000000
    4        5.129869   1.000000
    5        9.720773   0.000000
    6       13.096396   0.000000
    7       14.056268   0.000000
    8       14.210655   0.000000
 
  0.2916667E+00  0.1666667E+00  0.0000000E+00  0.1736111E-02
    1       -7.578355   1.000000
    2        2.512647   1.000000
    3        4.717460   1.000000
    4        4.856544   1.000000
    5        9.954904   0.000000
    6       13.025831   0.000000
    7       14.120152   0.000000
    8       14.444367   0.000000
 
  0.3333333E+00  0.1666667E+00  0.0000000E+00  0.1736111E-02
    1       -7.216343   1.000000
    2        1.562459   1.000000
    3        4.544352   1.000000
    4        4.566191   1.000000
    5       10.165689   0.000000
    6       13.142445   0.000000
    7       14.150057   0.000000
    8       14.536489   0.000000
 
  0.3750000E+00  0.1666667E+00  0.0000000E+00  0.1736111E-02
    1       -6.810826   1.000000
    2        0.648325   1.000000
    3        4.226644   1.000000
    4        4.467595   1.000000
    5       10.301177   0.000000
    6       13.359289   0.000000
    7       14.292294   0.000000
    8       14.504238   0.000000
 
  0.4166667E+00  0.1666667E+00  0.0000000E+00  0.1736111E-02
    1       -6.376645   1.000000
    2       -0.200634   1.000000
    3        3.924190   1.000000
    4        4.423058   1.000000
    5       10.379351   0.000000
    6       13.476365   0.000000
    7       14.385240   0.000000
    8       14.721194   0.000000
 
  0.4583333E+00  0.1666667E+00  0.0000000E+00  0.1736111E-02
    1       -5.942953   1.000000
    2       -0.945982   1.000000
    3        3.650132   1.000000
    4        4.432866   1.000000
    5       10.441747   0.000000
    6       13.478768   0.000000
    7       14.218534   0.000000
    8       15.386996   0.000000
 
  0.5000000E+00  0.1666667E+00  0.0000000E+00  0.1736111E-02
    1       -5.568506   1.000000
    2       -1.523074   1.000000
    3        3.413405   1.000000
    4        4.496312   1.000000
    5       10.519486   0.000000
    6       13.446398   0.000000
    7       14.033880   0.000000
    8       16.130321   0.000000
 
 -0.4583333E+00  0.1666667E+00  0.0000000E+00  0.1736111E-02
    1       -5.356965   1.000000
    2       -1.824885   1.000000
    3        3.220482   1.000000
    4        4.611674   1.000000
    5       10.628693   0.000000
    6       13.415982   0.000000
    7       13.849376   0.000000
    8       16.795662   0.000000
 
 -0.4166667E+00  0.1666667E+00  0.0000000E+00  0.1736111E-02
    1       -5.407006   1.000000
    2       -1.751409   1.000000
    3        3.076415   1.000000
    4        4.776212   1.000000
    5       10.774737   0.000000
    6       13.402464   0.000000
    7       13.672214   0.000000
    8       17.164502   0.000000
 
 -0.3750000E+00  0.1666667E+00  0.0000000E+00  0.1736111E-02
    1       -5.691402   1.000000
    2       -1.330553   1.000000
    3        2.985469   1.000000
    4        4.985870   1.000000
    5       10.955264   0.000000
    6       13.412997   0.000000
    7       13.499189   0.000000
    8       17.063126   0.000000
 
 -0.3333333E+00  0.1666667E+00  0.0000000E+00  0.1736111E-02
    1       -6.096125   1.000000
    2       -0.679561   1.000000
    3        2.951956   1.000000
    4        5.234957   1.000000
    5       11.161443   0.000000
    6       13.316843   0.000000
    7       13.449899   0.000000
    8       16.608244   0.000000
 
 -0.2916667E+00  0.1666667E+00  0.0000000E+00  0.1736111E-02
    1       -6.534049   1.000000
    2        0.107322   1.000000
    3        2.981550   1.000000
    4        5.515335   1.000000
    5       11.377694   0.000000
    6       13.103010   0.000000
    7       13.506363   0.000000
    8       16.008162   0.000000
 
 -0.2500000E+00  0.1666667E+00  0.0000000E+00  0.1736111E-02
    1       -6.959721   1.000000
    2        0.968836   1.000000
    3        3.085446   1.000000
    4        5.815418   1.000000
    5       11.580782   0.000000
    6       12.835961   0.000000
    7       13.549124   0.000000
    8       15.417400   0.000000
 