   3   3   0   0
  0.2823936E+02  0.4929812E-09  0.4929812E-09  0.4929812E-09  0.5000000E-15
  1.000000000000000E-004
  CAR
 unknown system
     10.90480671    -38.30249679  301      8.17785107      1.00000000
    -38.302  0.0000E+00  0.0000E+00
    -38.138  0.0000E+00  0.0000E+00
    -37.974  0.0000E+00  0.0000E+00
    -37.810  0.0000E+00  0.0000E+00
    -37.646  0.0000E+00  0.0000E+00
    -37.482  0.0000E+00  0.0000E+00
    -37.318  0.0000E+00  0.0000E+00
    -37.154  0.0000E+00  0.0000E+00
    -36.990  0.0000E+00  0.0000E+00
    -36.826  0.0000E+00  0.0000E+00
    -36.662  0.0000E+00  0.0000E+00
    -36.498  0.0000E+00  0.0000E+00
    -36.334  0.0000E+00  0.0000E+00
    -36.170  0.0000E+00  0.0000E+00
    -36.006  0.1219E+02  0.2000E+01
    -35.842  0.0000E+00  0.2000E+01
    -35.678  0.0000E+00  0.2000E+01
    -35.514  0.0000E+00  0.2000E+01
    -35.350  0.0000E+00  0.2000E+01
    -35.186  0.0000E+00  0.2000E+01
    -35.022  0.0000E+00  0.2000E+01
    -34.858  0.0000E+00  0.2000E+01
    -34.694  0.0000E+00  0.2000E+01
    -34.530  0.0000E+00  0.2000E+01
    -34.366  0.0000E+00  0.2000E+01
    -34.202  0.0000E+00  0.2000E+01
    -34.038  0.0000E+00  0.2000E+01
    -33.874  0.0000E+00  0.2000E+01
    -33.710  0.0000E+00  0.2000E+01
    -33.546  0.0000E+00  0.2000E+01
    -33.382  0.0000E+00  0.2000E+01
    -33.218  0.0000E+00  0.2000E+01
    -33.054  0.0000E+00  0.2000E+01
    -32.890  0.0000E+00  0.2000E+01
    -32.726  0.0000E+00  0.2000E+01
    -32.562  0.0000E+00  0.2000E+01
    -32.398  0.0000E+00  0.2000E+01
    -32.234  0.0000E+00  0.2000E+01
    -32.070  0.0000E+00  0.2000E+01
    -31.906  0.0000E+00  0.2000E+01
    -31.742  0.0000E+00  0.2000E+01
    -31.577  0.0000E+00  0.2000E+01
    -31.413  0.0000E+00  0.2000E+01
    -31.249  0.0000E+00  0.2000E+01
    -31.085  0.0000E+00  0.2000E+01
    -30.921  0.0000E+00  0.2000E+01
    -30.757  0.0000E+00  0.2000E+01
    -30.593  0.0000E+00  0.2000E+01
    -30.429  0.0000E+00  0.2000E+01
    -30.265  0.0000E+00  0.2000E+01
    -30.101  0.0000E+00  0.2000E+01
    -29.937  0.0000E+00  0.2000E+01
    -29.773  0.0000E+00  0.2000E+01
    -29.609  0.0000E+00  0.2000E+01
    -29.445  0.0000E+00  0.2000E+01
    -29.281  0.0000E+00  0.2000E+01
    -29.117  0.0000E+00  0.2000E+01
    -28.953  0.0000E+00  0.2000E+01
    -28.789  0.0000E+00  0.2000E+01
    -28.625  0.0000E+00  0.2000E+01
    -28.461  0.0000E+00  0.2000E+01
    -28.297  0.0000E+00  0.2000E+01
    -28.133  0.0000E+00  0.2000E+01
    -27.969  0.0000E+00  0.2000E+01
    -27.805  0.0000E+00  0.2000E+01
    -27.641  0.0000E+00  0.2000E+01
    -27.477  0.0000E+00  0.2000E+01
    -27.313  0.0000E+00  0.2000E+01
    -27.149  0.0000E+00  0.2000E+01
    -26.985  0.0000E+00  0.2000E+01
    -26.821  0.0000E+00  0.2000E+01
    -26.657  0.0000E+00  0.2000E+01
    -26.493  0.0000E+00  0.2000E+01
    -26.329  0.0000E+00  0.2000E+01
    -26.165  0.0000E+00  0.2000E+01
    -26.001  0.0000E+00  0.2000E+01
    -25.837  0.0000E+00  0.2000E+01
    -25.673  0.0000E+00  0.2000E+01
    -25.509  0.0000E+00  0.2000E+01
    -25.345  0.0000E+00  0.2000E+01
    -25.181  0.0000E+00  0.2000E+01
    -25.017  0.0000E+00  0.2000E+01
    -24.853  0.0000E+00  0.2000E+01
    -24.688  0.0000E+00  0.2000E+01
    -24.524  0.0000E+00  0.2000E+01
    -24.360  0.0000E+00  0.2000E+01
    -24.196  0.0000E+00  0.2000E+01
    -24.032  0.0000E+00  0.2000E+01
    -23.868  0.0000E+00  0.2000E+01
    -23.704  0.0000E+00  0.2000E+01
    -23.540  0.0000E+00  0.2000E+01
    -23.376  0.0000E+00  0.2000E+01
    -23.212  0.0000E+00  0.2000E+01
    -23.048  0.0000E+00  0.2000E+01
    -22.884  0.0000E+00  0.2000E+01
    -22.720  0.0000E+00  0.2000E+01
    -22.556  0.0000E+00  0.2000E+01
    -22.392  0.0000E+00  0.2000E+01
    -22.228  0.0000E+00  0.2000E+01
    -22.064  0.0000E+00  0.2000E+01
    -21.900  0.0000E+00  0.2000E+01
    -21.736  0.0000E+00  0.2000E+01
    -21.572  0.0000E+00  0.2000E+01
    -21.408  0.0000E+00  0.2000E+01
    -21.244  0.0000E+00  0.2000E+01
    -21.080  0.0000E+00  0.2000E+01
    -20.916  0.0000E+00  0.2000E+01
    -20.752  0.0000E+00  0.2000E+01
    -20.588  0.0000E+00  0.2000E+01
    -20.424  0.0000E+00  0.2000E+01
    -20.260  0.0000E+00  0.2000E+01
    -20.096  0.0000E+00  0.2000E+01
    -19.932  0.0000E+00  0.2000E+01
    -19.768  0.0000E+00  0.2000E+01
    -19.604  0.0000E+00  0.2000E+01
    -19.440  0.0000E+00  0.2000E+01
    -19.276  0.0000E+00  0.2000E+01
    -19.112  0.0000E+00  0.2000E+01
    -18.948  0.0000E+00  0.2000E+01
    -18.784  0.0000E+00  0.2000E+01
    -18.620  0.0000E+00  0.2000E+01
    -18.456  0.0000E+00  0.2000E+01
    -18.292  0.0000E+00  0.2000E+01
    -18.128  0.0000E+00  0.2000E+01
    -17.963  0.0000E+00  0.2000E+01
    -17.799  0.0000E+00  0.2000E+01
    -17.635  0.0000E+00  0.2000E+01
    -17.471  0.0000E+00  0.2000E+01
    -17.307  0.0000E+00  0.2000E+01
    -17.143  0.0000E+00  0.2000E+01
    -16.979  0.0000E+00  0.2000E+01
    -16.815  0.0000E+00  0.2000E+01
    -16.651  0.0000E+00  0.2000E+01
    -16.487  0.0000E+00  0.2000E+01
    -16.323  0.0000E+00  0.2000E+01
    -16.159  0.0000E+00  0.2000E+01
    -15.995  0.0000E+00  0.2000E+01
    -15.831  0.0000E+00  0.2000E+01
    -15.667  0.0000E+00  0.2000E+01
    -15.503  0.0000E+00  0.2000E+01
    -15.339  0.0000E+00  0.2000E+01
    -15.175  0.0000E+00  0.2000E+01
    -15.011  0.0000E+00  0.2000E+01
    -14.847  0.0000E+00  0.2000E+01
    -14.683  0.0000E+00  0.2000E+01
    -14.519  0.2219E+02  0.5640E+01
    -14.355  0.0000E+00  0.1200E+02
    -14.191  0.0000E+00  0.1200E+02
    -14.027  0.0000E+00  0.1200E+02
    -13.863  0.0000E+00  0.1200E+02
    -13.699  0.0000E+00  0.1200E+02
    -13.535  0.0000E+00  0.1200E+02
    -13.371  0.0000E+00  0.1200E+02
    -13.207  0.0000E+00  0.1200E+02
    -13.043  0.0000E+00  0.1200E+02
    -12.879  0.0000E+00  0.1200E+02
    -12.715  0.0000E+00  0.1200E+02
    -12.551  0.0000E+00  0.1200E+02
    -12.387  0.0000E+00  0.1200E+02
    -12.223  0.0000E+00  0.1200E+02
    -12.059  0.0000E+00  0.1200E+02
    -11.895  0.0000E+00  0.1200E+02
    -11.731  0.0000E+00  0.1200E+02
    -11.567  0.0000E+00  0.1200E+02
    -11.403  0.6909E-07  0.1200E+02
    -11.238  0.2291E+02  0.1743E+02
    -11.074  0.0000E+00  0.1800E+02
    -10.910  0.0000E+00  0.1800E+02
    -10.746  0.0000E+00  0.1800E+02
    -10.582  0.0000E+00  0.1800E+02
    -10.418  0.0000E+00  0.1800E+02
    -10.254  0.0000E+00  0.1800E+02
    -10.090  0.0000E+00  0.1800E+02
     -9.926  0.0000E+00  0.1800E+02
     -9.762  0.0000E+00  0.1800E+02
     -9.598  0.0000E+00  0.1800E+02
     -9.434  0.0000E+00  0.1800E+02
     -9.270  0.0000E+00  0.1800E+02
     -9.106  0.0000E+00  0.1800E+02
     -8.942  0.0000E+00  0.1800E+02
     -8.778  0.0000E+00  0.1800E+02
     -8.614  0.0000E+00  0.1800E+02
     -8.450  0.0000E+00  0.1800E+02
     -8.286  0.0000E+00  0.1800E+02
     -8.122  0.0000E+00  0.1800E+02
     -7.958  0.0000E+00  0.1800E+02
     -7.794  0.0000E+00  0.1800E+02
     -7.630  0.0000E+00  0.1800E+02
     -7.466  0.0000E+00  0.1800E+02
     -7.302  0.0000E+00  0.1800E+02
     -7.138  0.0000E+00  0.1800E+02
     -6.974  0.0000E+00  0.1800E+02
     -6.810  0.0000E+00  0.1800E+02
     -6.646  0.0000E+00  0.1800E+02
     -6.482  0.0000E+00  0.1800E+02
     -6.318  0.0000E+00  0.1800E+02
     -6.154  0.0000E+00  0.1800E+02
     -5.990  0.0000E+00  0.1800E+02
     -5.826  0.0000E+00  0.1800E+02
     -5.662  0.0000E+00  0.1800E+02
     -5.498  0.0000E+00  0.1800E+02
     -5.334  0.0000E+00  0.1800E+02
     -5.170  0.0000E+00  0.1800E+02
     -5.006  0.0000E+00  0.1800E+02
     -4.842  0.0000E+00  0.1800E+02
     -4.678  0.0000E+00  0.1800E+02
     -4.513  0.0000E+00  0.1800E+02
     -4.349  0.0000E+00  0.1800E+02
     -4.185  0.0000E+00  0.1800E+02
     -4.021  0.0000E+00  0.1800E+02
     -3.857  0.0000E+00  0.1800E+02
     -3.693  0.0000E+00  0.1800E+02
     -3.529  0.7785E-02  0.1800E+02
     -3.365  0.1779E+00  0.1805E+02
     -3.201  0.3015E+00  0.1815E+02
     -3.037  0.4007E+00  0.1832E+02
     -2.873  0.2908E+01  0.1901E+02
     -2.709  0.1110E+01  0.2000E+02
     -2.545  0.0000E+00  0.2000E+02
     -2.381  0.0000E+00  0.2000E+02
     -2.217  0.0000E+00  0.2000E+02
     -2.053  0.0000E+00  0.2000E+02
     -1.889  0.0000E+00  0.2000E+02
     -1.725  0.0000E+00  0.2000E+02
     -1.561  0.0000E+00  0.2000E+02
     -1.397  0.0000E+00  0.2000E+02
     -1.233  0.0000E+00  0.2000E+02
     -1.069  0.0000E+00  0.2000E+02
     -0.905  0.0000E+00  0.2000E+02
     -0.741  0.0000E+00  0.2000E+02
     -0.577  0.0000E+00  0.2000E+02
     -0.413  0.0000E+00  0.2000E+02
     -0.249  0.0000E+00  0.2000E+02
     -0.085  0.0000E+00  0.2000E+02
      0.079  0.0000E+00  0.2000E+02
      0.243  0.0000E+00  0.2000E+02
      0.407  0.0000E+00  0.2000E+02
      0.571  0.0000E+00  0.2000E+02
      0.735  0.0000E+00  0.2000E+02
      0.899  0.0000E+00  0.2000E+02
      1.063  0.0000E+00  0.2000E+02
      1.227  0.0000E+00  0.2000E+02
      1.391  0.0000E+00  0.2000E+02
      1.555  0.0000E+00  0.2000E+02
      1.719  0.0000E+00  0.2000E+02
      1.883  0.0000E+00  0.2000E+02
      2.047  0.0000E+00  0.2000E+02
      2.212  0.0000E+00  0.2000E+02
      2.376  0.0000E+00  0.2000E+02
      2.540  0.0000E+00  0.2000E+02
      2.704  0.2696E+00  0.2005E+02
      2.868  0.1003E+01  0.2029E+02
      3.032  0.1747E+01  0.2104E+02
      3.196  0.1446E+01  0.2141E+02
      3.360  0.1093E+01  0.2167E+02
      3.524  0.8423E+00  0.2190E+02
      3.688  0.2332E+00  0.2198E+02
      3.852  0.4605E+01  0.2326E+02
      4.016  0.3598E+01  0.2438E+02
      4.180  0.3702E+01  0.2541E+02
      4.344  0.9990E-01  0.2601E+02
      4.508  0.3816E+00  0.2611E+02
      4.672  0.8148E+01  0.2817E+02
      4.836  0.5630E+01  0.3014E+02
      5.000  0.2102E+01  0.3095E+02
      5.164  0.1208E+01  0.3152E+02
      5.328  0.5934E+00  0.3172E+02
      5.492  0.8257E+00  0.3197E+02
      5.656  0.9301E+00  0.3220E+02
      5.820  0.6171E+00  0.3248E+02
      5.984  0.9187E+00  0.3276E+02
      6.148  0.7733E+00  0.3308E+02
      6.312  0.6163E+00  0.3327E+02
      6.476  0.9670E+00  0.3358E+02
      6.640  0.1237E+01  0.3385E+02
      6.804  0.2566E+01  0.3544E+02
      6.968  0.6917E+00  0.3583E+02
      7.132  0.2878E+00  0.3597E+02
      7.296  0.1665E-01  0.3600E+02
      7.460  0.1058E+00  0.3603E+02
      7.624  0.9672E+00  0.3621E+02
      7.788  0.2533E+01  0.3673E+02
      7.952  0.2599E+01  0.3755E+02
      8.116  0.6045E+00  0.3802E+02
      8.280  0.9824E+01  0.4179E+02
      8.444  0.1384E+02  0.4584E+02
      8.608  0.2086E+01  0.4799E+02
      8.772  0.0000E+00  0.4800E+02
      8.937  0.0000E+00  0.4800E+02
      9.101  0.0000E+00  0.4800E+02
      9.265  0.0000E+00  0.4800E+02
      9.429  0.0000E+00  0.4800E+02
      9.593  0.0000E+00  0.4800E+02
      9.757  0.0000E+00  0.4800E+02
      9.921  0.0000E+00  0.4800E+02
     10.085  0.0000E+00  0.4800E+02
     10.249  0.0000E+00  0.4800E+02
     10.413  0.0000E+00  0.4800E+02
     10.577  0.0000E+00  0.4800E+02
     10.741  0.0000E+00  0.4800E+02
     10.905  0.0000E+00  0.4800E+02
