    3    3    1    1
  0.2823936E+02  0.4929812E-09  0.4929812E-09  0.4929812E-09  0.5000000E-15
  1.000000000000000E-004
  CAR
 unknown system
     39     84     24

  0.0000000E+00  0.0000000E+00  0.0000000E+00  0.4551661E-03
    1      -36.065801   1.000000
    2      -14.523801   1.000000
    3      -14.523801   1.000000
    4      -14.502808   1.000000
    5      -14.502808   1.000000
    6      -14.502808   1.000000
    7      -11.255462   1.000000
    8      -11.255462   1.000000
    9      -11.255462   1.000000
   10       -3.563195   1.000000
   11        4.187110   1.000000
   12        4.187110   1.000000
   13        4.187110   1.000000
   14        4.534026   1.000000
   15        4.534026   1.000000
   16        6.133753   1.000000
   17        7.242572   1.000000
   18        7.242572   1.000000
   19        7.242572   1.000000
   20        8.155225   0.999312
   21        8.274350   0.000000
   22        8.274355   0.000000
   23        8.274902   0.000000
   24        8.341215   0.000000

  0.7692308E-01 -0.6208744E-18 -0.3179040E-19  0.3641329E-02
    1      -36.065699   1.000000
    2      -14.524518   1.000000
    3      -14.524518   1.000000
    4      -14.502920   1.000000
    5      -14.502696   1.000000
    6      -14.502696   1.000000
    7      -11.262604   1.000000
    8      -11.254066   1.000000
    9      -11.254066   1.000000
   10       -3.517722   1.000000
   11        4.052528   1.000000
   12        4.123496   1.000000
   13        4.123496   1.000000
   14        4.593925   1.000000
   15        4.593925   1.000000
   16        6.013297   1.000000
   17        7.193639   1.000000
   18        7.193639   1.000000
   19        7.324463   1.000000
   20        8.101705   1.000000
   21        8.212505   0.000000
   22        8.212505   0.000000
   23        8.334238   0.000000
   24        8.342101   0.000000

  0.1538462E+00 -0.4210517E-17  0.2905187E-17  0.3641329E-02
    1      -36.065417   1.000000
    2      -14.526533   1.000000
    3      -14.526533   1.000000
    4      -14.503260   1.000000
    5      -14.502381   1.000000
    6      -14.502381   1.000000
    7      -11.282020   1.000000
    8      -11.250218   1.000000
    9      -11.250218   1.000000
   10       -3.390332   1.000000
   11        3.728767   1.000000
   12        4.013567   1.000000
   13        4.013567   1.000000
   14        4.686040   1.000000
   15        4.686040   1.000000
   16        5.709903   1.000000
   17        7.080448   1.000000
   18        7.080448   1.000000
   19        7.401047   1.000000
   20        8.170457   0.852161
   21        8.170457   0.852160
   22        8.233353   0.000000
   23        8.343975   0.000000
   24        8.400194   0.000000

  0.2307692E+00 -0.4831391E-17  0.2873397E-17  0.3641329E-02
    1      -36.065014   1.000000
    2      -14.529380   1.000000
    3      -14.529380   1.000000
    4      -14.503804   1.000000
    5      -14.501899   1.000000
    6      -14.501899   1.000000
    7      -11.308457   1.000000
    8      -11.244802   1.000000
    9      -11.244802   1.000000
   10       -3.207013   1.000000
   11        3.348845   1.000000
   12        3.924082   1.000000
   13        3.924082   1.000000
   14        4.730591   1.000000
   15        4.730591   1.000000
   16        5.342857   1.000000
   17        6.966693   1.000000
   18        6.966693   1.000000
   19        7.421730   1.000000
   20        8.159463   0.995344
   21        8.159463   0.995344
   22        8.346831   0.000000
   23        8.381017   0.000000
   24        8.581291   0.000000

  0.3076923E+00 -0.8421034E-17  0.5810375E-17  0.3641329E-02
    1      -36.064590   1.000000
    2      -14.532420   1.000000
    3      -14.532420   1.000000
    4      -14.504453   1.000000
    5      -14.501364   1.000000
    6      -14.501364   1.000000
    7      -11.335391   1.000000
    8      -11.239084   1.000000
    9      -11.239084   1.000000
   10       -3.007088   1.000000
   11        3.003580   1.000000
   12        3.873249   1.000000
   13        3.873249   1.000000
   14        4.708224   1.000000
   15        4.708224   1.000000
   16        5.016750   1.000000
   17        6.893388   1.000000
   18        6.893388   1.000000
   19        7.464139   1.000000
   20        8.169212   0.889103
   21        8.169212   0.889103
   22        8.359886   0.000000
   23        8.426133   0.000000
   24        8.536003   0.000000

  0.3846154E+00 -0.5474648E-17  0.2211325E-17  0.3641329E-02
    1      -36.064237   1.000000
    2      -14.534946   1.000000
    3      -14.534946   1.000000
    4      -14.505053   1.000000
    5      -14.500901   1.000000
    6      -14.500901   1.000000
    7      -11.356863   1.000000
    8      -11.234362   1.000000
    9      -11.234362   1.000000
   10       -2.836721   1.000000
   11        2.746604   1.000000
   12        3.858457   1.000000
   13        3.858457   1.000000
   14        4.644204   1.000000
   15        4.644204   1.000000
   16        4.786335   1.000000
   17        6.862648   1.000000
   18        6.862648   1.000000
   19        7.528111   1.000000
   20        8.192540   0.018887
   21        8.192540   0.018887
   22        8.352535   0.000000
   23        8.464506   0.000000
   24        8.466698   0.000000

  0.4615385E+00  0.1155677E-16 -0.1547275E-16  0.3641329E-02
    1      -36.064037   1.000000
    2      -14.536368   1.000000
    3      -14.536368   1.000000
    4      -14.505424   1.000000
    5      -14.500637   1.000000
    6      -14.500637   1.000000
    7      -11.368651   1.000000
    8      -11.231700   1.000000
    9      -11.231700   1.000000
   10       -2.738482   1.000000
   11        2.610121   1.000000
   12        3.861810   1.000000
   13        3.861810   1.000000
   14        4.590145   1.000000
   15        4.590145   1.000000
   16        4.669762   1.000000
   17        6.855153   1.000000
   18        6.855153   1.000000
   19        7.578325   1.000000
   20        8.216964   0.000000
   21        8.216964   0.000000
   22        8.414318   0.000000
   23        8.414456   0.000000
   24        8.492740   0.000000

  0.7692308E-01  0.7692308E-01 -0.7682439E-18  0.2730997E-02
    1      -36.065666   1.000000
    2      -14.525780   1.000000
    3      -14.523612   1.000000
    4      -14.503041   1.000000
    5      -14.502617   1.000000
    6      -14.502617   1.000000
    7      -11.259318   1.000000
    8      -11.256514   1.000000
    9      -11.256514   1.000000
   10       -3.503578   1.000000
   11        3.879600   1.000000
   12        4.201437   1.000000
   13        4.201437   1.000000
   14        4.547059   1.000000
   15        4.617437   1.000000
   16        6.006165   1.000000
   17        7.116313   1.000000
   18        7.116313   1.000000
   19        7.468655   1.000000
   20        8.056827   1.000000
   21        8.207987   0.000010
   22        8.207987   0.000010
   23        8.348666   0.000000
   24        8.349451   0.000000

  0.1538462E+00  0.7692308E-01 -0.5307246E-17  0.1092399E-01
    1      -36.065443   1.000000
    2      -14.528013   1.000000
    3      -14.524178   1.000000
    4      -14.503326   1.000000
    5      -14.502381   1.000000
    6      -14.502323   1.000000
    7      -11.274126   1.000000
    8      -11.256069   1.000000
    9      -11.251826   1.000000
   10       -3.406566   1.000000
   11        3.616114   1.000000
   12        4.117834   1.000000
   13        4.159900   1.000000
   14        4.603544   1.000000
   15        4.684116   1.000000
   16        5.815882   1.000000
   17        6.979435   1.000000
   18        6.993118   1.000000
   19        7.594647   1.000000
   20        8.114932   1.000000
   21        8.180073   0.376695
   22        8.195227   0.006998
   23        8.353832   0.000000
   24        8.392227   0.000000

  0.2307692E+00  0.7692308E-01  0.1599858E-17  0.1092399E-01
    1      -36.065083   1.000000
    2      -14.530724   1.000000
    3      -14.526122   1.000000
    4      -14.503734   1.000000
    5      -14.502047   1.000000
    6      -14.501850   1.000000
    7      -11.298382   1.000000
    8      -11.252850   1.000000
    9      -11.245665   1.000000
   10       -3.246923   1.000000
   11        3.326760   1.000000
   12        3.962095   1.000000
   13        4.080773   1.000000
   14        4.660672   1.000000
   15        4.754237   1.000000
   16        5.494865   1.000000
   17        6.831060   1.000000
   18        6.885374   1.000000
   19        7.599195   1.000000
   20        8.154448   0.999533
   21        8.165202   0.963181
   22        8.353380   0.000000
   23        8.355714   0.000000
   24        8.497384   0.000000

  0.3076923E+00  0.7692308E-01 -0.9340952E-17  0.1092399E-01
    1      -36.064666   1.000000
    2      -14.533299   1.000000
    3      -14.528981   1.000000
    4      -14.504252   1.000000
    5      -14.501634   1.000000
    6      -14.501300   1.000000
    7      -11.325110   1.000000
    8      -11.247607   1.000000
    9      -11.240245   1.000000
   10       -3.059137   1.000000
   11        3.046924   1.000000
   12        3.849914   1.000000
   13        4.015079   1.000000
   14        4.659264   1.000000
   15        4.768653   1.000000
   16        5.154184   1.000000
   17        6.736805   1.000000
   18        6.826571   1.000000
   19        7.591819   1.000000
   20        8.166851   0.940101
   21        8.168707   0.902019
   22        8.357143   0.000000
   23        8.403139   0.000000
   24        8.522935   0.000000

  0.3846154E+00  0.7692308E-01  0.9377854E-18  0.1092399E-01
    1      -36.064290   1.000000
    2      -14.535156   1.000000
    3      -14.532083   1.000000
    4      -14.504784   1.000000
    5      -14.501211   1.000000
    6      -14.500818   1.000000
    7      -11.348218   1.000000
    8      -11.241549   1.000000
    9      -11.236763   1.000000
   10       -2.885845   1.000000
   11        2.821105   1.000000
   12        3.805611   1.000000
   13        3.965398   1.000000
   14        4.617761   1.000000
   15        4.722789   1.000000
   16        4.882449   1.000000
   17        6.695918   1.000000
   18        6.811309   1.000000
   19        7.613835   1.000000
   20        8.183848   0.198193
   21        8.193730   0.012365
   22        8.357289   0.000000
   23        8.424441   0.000000
   24        8.484679   0.000000

  0.4615385E+00  0.7692308E-01 -0.1317903E-16  0.1092399E-01
    1      -36.064042   1.000000
    2      -14.535886   1.000000
    3      -14.534700   1.000000
    4      -14.505169   1.000000
    5      -14.500896   1.000000
    6      -14.500545   1.000000
    7      -11.363020   1.000000
    8      -11.236057   1.000000
    9      -11.235962   1.000000
   10       -2.768455   1.000000
   11        2.681589   1.000000
   12        3.820439   1.000000
   13        3.914419   1.000000
   14        4.591346   1.000000
   15        4.649861   1.000000
   16        4.718694   1.000000
   17        6.683271   1.000000
   18        6.815561   1.000000
   19        7.650152   1.000000
   20        8.211786   0.000001
   21        8.217648   0.000000
   22        8.354046   0.000000
   23        8.407335   0.000000
   24        8.486226   0.000000

 -0.4615385E+00  0.7692308E-01 -0.1712362E-16  0.1092399E-01
    1      -36.063975   1.000000
    2      -14.536238   1.000000
    3      -14.535298   1.000000
    4      -14.505265   1.000000
    5      -14.500758   1.000000
    6      -14.500530   1.000000
    7      -11.366813   1.000000
    8      -11.237967   1.000000
    9      -11.232366   1.000000
   10       -2.736246   1.000000
   11        2.645146   1.000000
   12        3.851834   1.000000
   13        3.872653   1.000000
   14        4.594110   1.000000
   15        4.619505   1.000000
   16        4.675963   1.000000
   17        6.671811   1.000000
   18        6.824215   1.000000
   19        7.664941   1.000000
   20        8.217208   0.000000
   21        8.233444   0.000000
   22        8.349202   0.000000
   23        8.411980   0.000000
   24        8.468865   0.000000

 -0.3846154E+00  0.7692308E-01  0.8239598E-19  0.1092399E-01
    1      -36.064107   1.000000
    2      -14.536353   1.000000
    3      -14.533527   1.000000
    4      -14.505025   1.000000
    5      -14.500859   1.000000
    6      -14.500784   1.000000
    7      -11.358983   1.000000
    8      -11.242279   1.000000
    9      -11.231315   1.000000
   10       -2.797507   1.000000
   11        2.717415   1.000000
   12        3.794511   1.000000
   13        3.937341   1.000000
   14        4.583527   1.000000
   15        4.692538   1.000000
   16        4.759598   1.000000
   17        6.646855   1.000000
   18        6.841023   1.000000
   19        7.642822   1.000000
   20        8.193562   0.013145
   21        8.221097   0.000000
   22        8.351496   0.000000
   23        8.434814   0.000000
   24        8.446204   0.000000

 -0.3076923E+00  0.7692308E-01 -0.7083914E-17  0.1092399E-01
    1      -36.064408   1.000000
    2      -14.535038   1.000000
    3      -14.530964   1.000000
    4      -14.504546   1.000000
    5      -14.501231   1.000000
    6      -14.501166   1.000000
    7      -11.340974   1.000000
    8      -11.247872   1.000000
    9      -11.233154   1.000000
   10       -2.936828   1.000000
   11        2.894732   1.000000
   12        3.768886   1.000000
   13        4.004013   1.000000
   14        4.615383   1.000000
   15        4.768934   1.000000
   16        4.960978   1.000000
   17        6.616774   1.000000
   18        6.883562   1.000000
   19        7.607023   1.000000
   20        8.170955   0.835292
   21        8.191750   0.024671
   22        8.355063   0.000000
   23        8.430441   0.000000
   24        8.487942   0.000000

 -0.2307692E+00  0.7692308E-01 -0.4146936E-17  0.1092399E-01
    1      -36.064807   1.000000
    2      -14.532593   1.000000
    3      -14.528193   1.000000
    4      -14.503981   1.000000
    5      -14.501751   1.000000
    6      -14.501609   1.000000
    7      -11.316309   1.000000
    8      -11.253383   1.000000
    9      -11.237474   1.000000
   10       -3.119805   1.000000
   11        3.161410   1.000000
   12        3.791935   1.000000
   13        4.081179   1.000000
   14        4.641614   1.000000
   15        4.805096   1.000000
   16        5.260582   1.000000
   17        6.619378   1.000000
   18        6.967414   1.000000
   19        7.587514   1.000000
   20        8.160056   0.994075
   21        8.168664   0.903082
   22        8.353958   0.000000
   23        8.395963   0.000000
   24        8.550434   0.000000

 -0.1538462E+00  0.7692308E-01 -0.4178726E-17  0.1092399E-01
    1      -36.065214   1.000000
    2      -14.529576   1.000000
    3      -14.525862   1.000000
    4      -14.503482   1.000000
    5      -14.502230   1.000000
    6      -14.502076   1.000000
    7      -11.290480   1.000000
    8      -11.257308   1.000000
    9      -11.243297   1.000000
   10       -3.303201   1.000000
   11        3.484426   1.000000
   12        3.867877   1.000000
   13        4.169926   1.000000
   14        4.618508   1.000000
   15        4.777924   1.000000
   16        5.598121   1.000000
   17        6.716496   1.000000
   18        7.081831   1.000000
   19        7.582078   1.000000
   20        8.161525   0.989524
   21        8.161697   0.988832
   22        8.324386   0.000000
   23        8.350949   0.000000
   24        8.452971   0.000000

 -0.7692308E-01  0.7692308E-01 -0.1241749E-17  0.5461994E-02
    1      -36.065538   1.000000
    2      -14.526672   1.000000
    3      -14.524543   1.000000
    4      -14.503121   1.000000
    5      -14.502559   1.000000
    6      -14.502457   1.000000
    7      -11.270688   1.000000
    8      -11.257718   1.000000
    9      -11.249294   1.000000
   10       -3.445999   1.000000
   11        3.809405   1.000000
   12        3.987845   1.000000
   13        4.213696   1.000000
   14        4.576950   1.000000
   15        4.695551   1.000000
   16        5.868973   1.000000
   17        6.947952   1.000000
   18        7.177476   1.000000
   19        7.500434   1.000000
   20        8.120811   1.000000
   21        8.178467   0.465316
   22        8.196306   0.004528
   23        8.346627   0.000000
   24        8.373838   0.000000

  0.1538462E+00  0.1538462E+00 -0.1536488E-17  0.2730997E-02
    1      -36.065291   1.000000
    2      -14.529948   1.000000
    3      -14.523090   1.000000
    4      -14.503699   1.000000
    5      -14.502062   1.000000
    6      -14.502062   1.000000
    7      -11.270977   1.000000
    8      -11.259509   1.000000
    9      -11.259509   1.000000
   10       -3.348703   1.000000
   11        3.365773   1.000000
   12        4.234732   1.000000
   13        4.234732   1.000000
   14        4.583631   1.000000
   15        4.633297   1.000000
   16        5.805854   1.000000
   17        6.870592   1.000000
   18        6.870592   1.000000
   19        7.704619   1.000000
   20        8.103226   1.000000
   21        8.177060   0.544556
   22        8.177060   0.544555
   23        8.373867   0.000000
   24        8.413725   0.000000

  0.2307692E+00  0.1538462E+00 -0.1750635E-17  0.1092399E-01
    1      -36.064994   1.000000
    2      -14.531879   1.000000
    3      -14.523569   1.000000
    4      -14.504113   1.000000
    5      -14.501721   1.000000
    6      -14.501614   1.000000
    7      -11.289096   1.000000
    8      -11.259748   1.000000
    9      -11.255228   1.000000
   10       -3.230448   1.000000
   11        3.140672   1.000000
   12        4.148574   1.000000
   13        4.211889   1.000000
   14        4.623123   1.000000
   15        4.670732   1.000000
   16        5.630270   1.000000
   17        6.695653   1.000000
   18        6.770963   1.000000
   19        7.725476   1.000000
   20        8.150890   0.999931
   21        8.171761   0.805463
   22        8.298857   0.000000
   23        8.383648   0.000000
   24        8.485492   0.000000

  0.3076923E+00  0.1538462E+00 -0.1489102E-17  0.1092399E-01
    1      -36.064620   1.000000
    2      -14.533372   1.000000
    3      -14.525502   1.000000
    4      -14.504461   1.000000
    5      -14.501441   1.000000
    6      -14.501056   1.000000
    7      -11.313645   1.000000
    8      -11.256750   1.000000
    9      -11.250084   1.000000
   10       -3.079200   1.000000
   11        2.971577   1.000000
   12        3.985385   1.000000
   13        4.155011   1.000000
   14        4.639409   1.000000
   15        4.731483   1.000000
   16        5.348308   1.000000
   17        6.508566   1.000000
   18        6.724440   1.000000
   19        7.737494   1.000000
   20        8.163096   0.981539
   21        8.173610   0.725676
   22        8.360370   0.000000
   23        8.384783   0.000000
   24        8.525168   0.000000

  0.3846154E+00  0.1538462E+00 -0.3304522E-17  0.1092399E-01
    1      -36.064257   1.000000
    2      -14.534109   1.000000
    3      -14.528416   1.000000
    4      -14.504717   1.000000
    5      -14.501268   1.000000
    6      -14.500562   1.000000
    7      -11.336220   1.000000
    8      -11.251219   1.000000
    9      -11.247830   1.000000
   10       -2.929877   1.000000
   11        2.866499   1.000000
   12        3.861785   1.000000
   13        4.086183   1.000000
   14        4.624002   1.000000
   15        4.741016   1.000000
   16        5.056977   1.000000
   17        6.398095   1.000000
   18        6.721069   1.000000
   19        7.745050   1.000000
   20        8.187236   0.092212
   21        8.190030   0.042508
   22        8.376094   0.000000
   23        8.380980   0.000000
   24        8.506041   0.000000

  0.4615385E+00  0.1538462E+00 -0.1742134E-16  0.1092399E-01
    1      -36.063985   1.000000
    2      -14.533928   1.000000
    3      -14.531606   1.000000
    4      -14.504848   1.000000
    5      -14.501179   1.000000
    6      -14.500261   1.000000
    7      -11.351966   1.000000
    8      -11.249004   1.000000
    9      -11.244415   1.000000
   10       -2.816173   1.000000
   11        2.814212   1.000000
   12        3.814072   1.000000
   13        3.995332   1.000000
   14        4.624573   1.000000
   15        4.690827   1.000000
   16        4.849636   1.000000
   17        6.346452   1.000000
   18        6.732061   1.000000
   19        7.764308   1.000000
   20        8.213752   0.000000
   21        8.213958   0.000000
   22        8.370677   0.000000
   23        8.385101   0.000000
   24        8.491737   0.000000

 -0.4615385E+00  0.1538462E+00 -0.2136593E-16  0.1092399E-01
    1      -36.063867   1.000000
    2      -14.534342   1.000000
    3      -14.532894   1.000000
    4      -14.504807   1.000000
    5      -14.501165   1.000000
    6      -14.500236   1.000000
    7      -11.358041   1.000000
    8      -11.253138   1.000000
    9      -11.237884   1.000000
   10       -2.762859   1.000000
   11        2.793854   1.000000
   12        3.845564   1.000000
   13        3.886141   1.000000
   14        4.619223   1.000000
   15        4.670943   1.000000
   16        4.768436   1.000000
   17        6.312303   1.000000
   18        6.742035   1.000000
   19        7.783159   1.000000
   20        8.213415   0.000000
   21        8.248729   0.000000
   22        8.348808   0.000000
   23        8.405198   0.000000
   24        8.470297   0.000000

 -0.3846154E+00  0.1538462E+00 -0.4159911E-17  0.1092399E-01
    1      -36.063931   1.000000
    2      -14.536007   1.000000
    3      -14.531214   1.000000
    4      -14.504581   1.000000
    5      -14.501225   1.000000
    6      -14.500477   1.000000
    7      -11.353690   1.000000
    8      -11.258974   1.000000
    9      -11.233109   1.000000
   10       -2.781635   1.000000
   11        2.799929   1.000000
   12        3.785614   1.000000
   13        3.937828   1.000000
   14        4.579690   1.000000
   15        4.749472   1.000000
   16        4.811830   1.000000
   17        6.263569   1.000000
   18        6.758770   1.000000
   19        7.781831   1.000000
   20        8.192124   0.021770
   21        8.262842   0.000000
   22        8.336319   0.000000
   23        8.429588   0.000000
   24        8.434376   0.000000

 -0.3076923E+00  0.1538462E+00  0.1286210E-16  0.1092399E-01
    1      -36.064161   1.000000
    2      -14.536262   1.000000
    3      -14.529252   1.000000
    4      -14.504267   1.000000
    5      -14.501350   1.000000
    6      -14.500911   1.000000
    7      -11.340236   1.000000
    8      -11.264666   1.000000
    9      -11.231177   1.000000
   10       -2.869554   1.000000
   11        2.854690   1.000000
   12        3.721491   1.000000
   13        4.059732   1.000000
   14        4.569656   1.000000
   15        4.824924   1.000000
   16        4.984412   1.000000
   17        6.199454   1.000000
   18        6.803174   1.000000
   19        7.762088   1.000000
   20        8.171425   0.818261
   21        8.232255   0.000000
   22        8.356847   0.000000
   23        8.423186   0.000000
   24        8.450382   0.000000

 -0.2307692E+00  0.1538462E+00 -0.4821984E-17  0.1092399E-01
    1      -36.064507   1.000000
    2      -14.535043   1.000000
    3      -14.527432   1.000000
    4      -14.503968   1.000000
    5      -14.501528   1.000000
    6      -14.501423   1.000000
    7      -11.321257   1.000000
    8      -11.267879   1.000000
    9      -11.232547   1.000000
   10       -3.007976   1.000000
   11        2.987336   1.000000
   12        3.711219   1.000000
   13        4.176774   1.000000
   14        4.572520   1.000000
   15        4.862297   1.000000
   16        5.240561   1.000000
   17        6.176971   1.000000
   18        6.889134   1.000000
   19        7.737595   1.000000
   20        8.160774   0.992134
   21        8.197033   0.003336
   22        8.364404   0.000000
   23        8.402741   0.000000
   24        8.503301   0.000000

 -0.1538462E+00  0.1538462E+00 -0.8421034E-17  0.5461994E-02
    1      -36.064887   1.000000
    2      -14.532647   1.000000
    3      -14.526204   1.000000
    4      -14.503722   1.000000
    5      -14.501900   1.000000
    6      -14.501770   1.000000
    7      -11.302834   1.000000
    8      -11.265675   1.000000
    9      -11.236917   1.000000
   10       -3.164962   1.000000
   11        3.205996   1.000000
   12        3.761381   1.000000
   13        4.242089   1.000000
   14        4.573241   1.000000
   15        4.844349   1.000000
   16        5.467324   1.000000
   17        6.332255   1.000000
   18        6.999790   1.000000
   19        7.700197   1.000000
   20        8.158627   0.996723
   21        8.171034   0.832480
   22        8.360172   0.000000
   23        8.377795   0.000000
   24        8.519185   0.000000

  0.2307692E+00  0.2307692E+00 -0.2304732E-17  0.2730997E-02
    1      -36.064771   1.000000
    2      -14.532559   1.000000
    3      -14.522366   1.000000
    4      -14.504652   1.000000
    5      -14.501204   1.000000
    6      -14.501204   1.000000
    7      -11.289885   1.000000
    8      -11.263914   1.000000
    9      -11.263914   1.000000
   10       -3.163665   1.000000
   11        2.976714   1.000000
   12        4.262727   1.000000
   13        4.262727   1.000000
   14        4.555329   1.000000
   15        4.636401   1.000000
   16        5.605149   1.000000
   17        6.679597   1.000000
   18        6.679597   1.000000
   19        7.709887   1.000000
   20        8.175334   0.639092
   21        8.175334   0.639092
   22        8.268010   0.000000
   23        8.413065   0.000000
   24        8.555437   0.000000

  0.3076923E+00  0.2307692E+00 -0.1870826E-17  0.1092399E-01
    1      -36.064462   1.000000
    2      -14.532601   1.000000
    3      -14.522815   1.000000
    4      -14.505076   1.000000
    5      -14.500806   1.000000
    6      -14.500671   1.000000
    7      -11.307156   1.000000
    8      -11.264407   1.000000
    9      -11.262703   1.000000
   10       -3.065032   1.000000
   11        2.891645   1.000000
   12        4.156413   1.000000
   13        4.243175   1.000000
   14        4.590091   1.000000
   15        4.659528   1.000000
   16        5.443972   1.000000
   17        6.510791   1.000000
   18        6.641671   1.000000
   19        7.771240   1.000000
   20        8.166141   0.951140
   21        8.180864   0.335000
   22        8.304119   0.000000
   23        8.426901   0.000000
   24        8.567249   0.000000

  0.3846154E+00  0.2307692E+00 -0.1010801E-17  0.1092399E-01
    1      -36.064141   1.000000
    2      -14.532003   1.000000
    3      -14.524799   1.000000
    4      -14.505253   1.000000
    5      -14.500679   1.000000
    6      -14.500168   1.000000
    7      -11.326551   1.000000
    8      -11.262029   1.000000
    9      -11.261131   1.000000
   10       -2.958917   1.000000
   11        2.895502   1.000000
   12        3.989653   1.000000
   13        4.182530   1.000000
   14        4.663545   1.000000
   15        4.664091   1.000000
   16        5.216585   1.000000
   17        6.268573   1.000000
   18        6.645224   1.000000
   19        7.833276   1.000000
   20        8.178068   0.487756
   21        8.193680   0.012592
   22        8.325209   0.000000
   23        8.425706   0.000000
   24        8.538040   0.000000

  0.4615385E+00  0.2307692E+00 -0.8384352E-17  0.1092399E-01
    1      -36.063880   1.000000
    2      -14.530931   1.000000
    3      -14.527806   1.000000
    4      -14.505120   1.000000
    5      -14.500841   1.000000
    6      -14.499847   1.000000
    7      -11.340421   1.000000
    8      -11.265396   1.000000
    9      -11.254844   1.000000
   10       -2.868256   1.000000
   11        2.961332   1.000000
   12        3.871342   1.000000
   13        4.082610   1.000000
   14        4.679364   1.000000
   15        4.679754   1.000000
   16        5.004388   1.000000
   17        6.084044   1.000000
   18        6.656398   1.000000
   19        7.860060   1.000000
   20        8.200588   0.000651
   21        8.217028   0.000000
   22        8.351475   0.000000
   23        8.412284   0.000000
   24        8.506862   0.000000

 -0.4615385E+00  0.2307692E+00  0.8683369E-17  0.1092399E-01
    1      -36.063738   1.000000
    2      -14.531118   1.000000
    3      -14.529658   1.000000
    4      -14.504682   1.000000
    5      -14.501233   1.000000
    6      -14.499805   1.000000
    7      -11.345785   1.000000
    8      -11.272243   1.000000
    9      -11.246979   1.000000
   10       -2.809673   1.000000
   11        3.019862   1.000000
   12        3.831008   1.000000
   13        3.955150   1.000000
   14        4.621012   1.000000
   15        4.728638   1.000000
   16        4.908751   1.000000
   17        5.967069   1.000000
   18        6.658673   1.000000
   19        7.876343   1.000000
   20        8.203311   0.000159
   21        8.250469   0.000000
   22        8.382496   0.000000
   23        8.392296   0.000000
   24        8.485278   0.000000

 -0.3846154E+00  0.2307692E+00  0.1162035E-16  0.1092399E-01
    1      -36.063748   1.000000
    2      -14.534005   1.000000
    3      -14.528478   1.000000
    4      -14.504071   1.000000
    5      -14.501696   1.000000
    6      -14.500034   1.000000
    7      -11.342522   1.000000
    8      -11.280209   1.000000
    9      -11.239320   1.000000
   10       -2.793444   1.000000
   11        3.001625   1.000000
   12        3.829917   1.000000
   13        3.879840   1.000000
   14        4.575072   1.000000
   15        4.798179   1.000000
   16        4.936408   1.000000
   17        5.885372   1.000000
   18        6.664873   1.000000
   19        7.879988   1.000000
   20        8.186034   0.123593
   21        8.288352   0.000000
   22        8.338388   0.000000