 vasp.6.0.8 29Jun18 (build Jun 13 2019 12:54:44) complex

 executed on      IFC18_CrayMPICH date 2021.12.05  14:21:48
 running   64 mpi-ranks, with    1 threads/rank
 distrk:  each k-point on   16 cores,    4 groups
 distr:  one band on NCORES_PER_BAND=   4 cores,    4 groups


--------------------------------------------------------------------------------------------------------


 INCAR:
 POTCAR:    PAW_PBE U 06Sep2000
 POTCAR:    PAW_PBE Bi_d 06Sep2000
 POTCAR:    PAW_PBE Pt 04Feb2005
 POTCAR:    PAW_PBE U 06Sep2000
   VRHFIN =U:  [Xe,5d,4f]
   LEXCH  = PE
   EATOM  =  1405.3058 eV,  103.2871 Ry

   TITEL  = PAW_PBE U 06Sep2000
   LULTRA =        F    use ultrasoft PP ?
   IUNSCR =        1    unscreen: 0-lin 1-nonlin 2-no
   RPACOR =    2.200    partial core radius
   POMASS =  238.029; ZVAL   =   14.000    mass and valenz
   RCORE  =    2.800    outmost cutoff radius
   RWIGS  =    3.000; RWIGS  =    1.588    wigner-seitz radius (au A)
   ENMAX  =  252.502; ENMIN  =  189.376 eV
   RCLOC  =    1.811    cutoff for local pot
   LCOR   =        T    correct aug charges
   LPAW   =        T    paw PP
   EAUG   =  526.410
   DEXC   =    0.000
   RMAX   =    2.863    core radius for proj-oper
   RAUG   =    1.300    factor for augmentation sphere
   RDEP   =    2.950    radius for radial grids
   RDEPT  =    2.270    core radius for aug-charge

   Atomic configuration
   18 entries
     n  l   j            E        occ.
     1  0  0.50   -116038.1941   2.0000
     2  0  0.50    -21694.8835   2.0000
     2  1  1.50    -18009.1553   6.0000
     3  0  0.50     -5481.2929   2.0000
     3  1  1.50     -4458.9283   6.0000
     3  2  2.50     -3575.9978  10.0000
     4  0  0.50     -1400.5351   2.0000
     4  1  1.50     -1066.7807   6.0000
     4  2  2.50      -732.1336  10.0000
     4  3  3.50      -377.4393  14.0000
     5  0  0.50      -314.7366   2.0000
     5  1  1.50      -211.6057   6.0000
     5  2  2.50      -103.2045  10.0000
     6  0  0.50       -50.6026   2.0000
     7  0  0.50        -4.5896   2.0000
     6  1  1.50       -25.2884   6.0000
     6  2  1.50        -3.1039   2.0000
     5  3  2.50        -6.3670   2.0000
   Description
     l       E           TYP  RCUT    TYP  RCUT
     0    -50.6026097     23  2.600
     0     -4.5896371     23  2.600
     1    -25.2883770     23  2.500
     1     27.2116520     23  2.500
     2     -3.1038686     23  2.500
     2      0.8290654     23  2.500
     3     -6.3670133     23  2.800
     3     -7.7275959     23  2.800
  local pseudopotential read in
  partial core-charges read in
  partial kinetic energy density read in
  atomic valenz-charges read in
  non local Contribution for L=           0  read in
    real space projection operators read in
  non local Contribution for L=           0  read in
    real space projection operators read in
  non local Contribution for L=           1  read in
    real space projection operators read in
  non local Contribution for L=           1  read in
    real space projection operators read in
  non local Contribution for L=           2  read in
    real space projection operators read in
  non local Contribution for L=           2  read in
    real space projection operators read in
  non local Contribution for L=           3  read in
    real space projection operators read in
  non local Contribution for L=           3  read in
    real space projection operators read in
    PAW grid and wavefunctions read in

   number of l-projection  operators is LMAX  =           8
   number of lm-projection operators is LMMAX =          32

 POTCAR:    PAW_PBE Bi_d 06Sep2000
   VRHFIN =Bi:
   LEXCH  = PE
   EATOM  =  1959.2045 eV,  143.9975 Ry

   TITEL  = PAW_PBE Bi_d 06Sep2000
   LULTRA =        F    use ultrasoft PP ?
   IUNSCR =        1    unscreen: 0-lin 1-nonlin 2-no
   RPACOR =    2.200    partial core radius
   POMASS =  208.980; ZVAL   =   15.000    mass and valenz
   RCORE  =    2.500    outmost cutoff radius
   RWIGS  =    3.090; RWIGS  =    1.635    wigner-seitz radius (au A)
   ENMAX  =  242.839; ENMIN  =  182.129 eV
   ICORE  =        3    local potential
   LCOR   =        T    correct aug charges
   LPAW   =        T    paw PP
   EAUG   =  442.899
   DEXC   =    0.000
   RMAX   =    2.551    core radius for proj-oper
   RAUG   =    1.300    factor for augmentation sphere
   RDEP   =    2.650    radius for radial grids
   RDEPT  =    2.039    core radius for aug-charge

   Atomic configuration
   16 entries
     n  l   j            E        occ.
     1  0  0.50    -90639.6581   2.0000
     2  0  0.50    -16282.4666   2.0000
     2  1  1.50    -13922.8286   6.0000
     3  0  0.50     -3930.4763   2.0000
     3  1  1.50     -3256.7013   6.0000
     3  2  2.50     -2581.6168  10.0000
     4  0  0.50      -902.2614   2.0000
     4  1  1.50      -681.5915   6.0000
     4  2  2.50      -429.8249  10.0000
     4  3  3.50      -152.6004  14.0000
     5  0  0.50      -157.7156   2.0000
     5  1  1.50       -95.8054   6.0000
     5  2  2.50       -27.0806  10.0000
     6  0  0.50       -14.4732   2.0000
     6  1  1.50        -4.5702   3.0000
     5  3  2.50        -2.7212   0.0000
   Description
     l       E           TYP  RCUT    TYP  RCUT
     2    -27.0805982     23  2.500
     2     -1.3605826     23  2.500
     0    -14.4732271     23  2.500
     0      6.8029130     23  2.500
     1     -4.5701651     23  2.500
     1     13.6058260     23  2.500
     3     -1.3605826      7  2.500
  local pseudopotential read in
  partial core-charges read in
  partial kinetic energy density read in
  atomic valenz-charges read in
  non local Contribution for L=           2  read in
    real space projection operators read in
  non local Contribution for L=           2  read in
    real space projection operators read in
  non local Contribution for L=           0  read in
    real space projection operators read in
  non local Contribution for L=           0  read in
    real space projection operators read in
  non local Contribution for L=           1  read in
    real space projection operators read in
  non local Contribution for L=           1  read in
    real space projection operators read in
    PAW grid and wavefunctions read in

   number of l-projection  operators is LMAX  =           6
   number of lm-projection operators is LMMAX =          18

 POTCAR:    PAW_PBE Pt 04Feb2005
   VRHFIN =Pt: s1d9
   LEXCH  = PE
   EATOM  =   729.1176 eV,   53.5886 Ry

   TITEL  = PAW_PBE Pt 04Feb2005
   LULTRA =        F    use ultrasoft PP ?
   IUNSCR =        1    unscreen: 0-lin 1-nonlin 2-no
   RPACOR =    2.330    partial core radius
   POMASS =  195.080; ZVAL   =   10.000    mass and valenz
   RCORE  =    2.600    outmost cutoff radius
   RWIGS  =    2.750; RWIGS  =    1.455    wigner-seitz radius (au A)
   ENMAX  =  230.283; ENMIN  =  172.712 eV
   ICORE  =        3    local potential
   LCOR   =        T    correct aug charges
   LPAW   =        T    paw PP
   EAUG   =  358.966
   DEXC   =    0.000
   RMAX   =    2.658    core radius for proj-oper
   RAUG   =    1.300    factor for augmentation sphere
   RDEP   =    2.761    radius for radial grids
   RDEPT  =    2.203    core radius for aug-charge

   Atomic configuration
   16 entries
     n  l   j            E        occ.
     1  0  0.50    -78401.1885   2.0000
     2  0  0.50    -13770.7750   2.0000
     2  1  1.50    -11931.0468   6.0000
     3  0  0.50     -3234.7234   2.0000
     3  1  1.50     -2699.2216   6.0000
     3  2  2.50     -2119.5714  10.0000
     4  0  0.50      -695.1528   2.0000
     4  1  1.50      -519.6034   6.0000
     4  2  2.50      -306.6786  10.0000
     4  3  3.50       -70.1041  14.0000
     5  0  0.50      -101.7747   2.0000
     5  1  1.50       -55.9873   6.0000
     5  2  2.50        -6.1423   9.0000
     6  0  0.50        -5.6573   1.0000
     6  1  1.50        -6.8029   0.0000
     5  3  2.50        -1.3606   0.0000
   Description
     l       E           TYP  RCUT    TYP  RCUT
     2     -6.1423404     23  2.500
     2     -7.5029230     23  2.500
     0     -5.6573207     23  2.500
     0      0.7416693     23  2.500
     1     -2.7211652     23  2.600
     1     20.4087390     23  2.600
     3     -1.3605826     23  2.500
  local pseudopotential read in
  partial core-charges read in
  partial kinetic energy density read in
  atomic valenz-charges read in
  non local Contribution for L=           2  read in
    real space projection operators read in
  non local Contribution for L=           2  read in
    real space projection operators read in
  non local Contribution for L=           0  read in
    real space projection operators read in
  non local Contribution for L=           0  read in
    real space projection operators read in
  non local Contribution for L=           1  read in
    real space projection operators read in
  non local Contribution for L=           1  read in
    real space projection operators read in
    PAW grid and wavefunctions read in

   number of l-projection  operators is LMAX  =           6
   number of lm-projection operators is LMMAX =          18

 WARNING: PSMAXN for non-local potential too small
          PSMAXN should be >   13.5545592237991       NTYP=           1

 -----------------------------------------------------------------------------
|                                                                             |
|  ADVICE TO THIS USER RUNNING 'VASP/VAMP'   (HEAR YOUR MASTER'S VOICE ...):  |
|                                                                             |
|      You enforced a specific xc-type in the INCAR file,                     |
|      a different type was found on the POTCAR file                          |
|          I HOPE YOU KNOW, WHAT YOU ARE  DOING                               |
|                                                                             |
 -----------------------------------------------------------------------------

  PAW_PBE U 06Sep2000                   :
 energy of atom  1       EATOM=-1405.3058
 kinetic energy error for atom=    0.0006 (will be added to EATOM!!)
  PAW_PBE Bi_d 06Sep2000                :
 energy of atom  2       EATOM=-1959.2045
 kinetic energy error for atom=    0.0012 (will be added to EATOM!!)
  PAW_PBE Pt 04Feb2005                  :
 energy of atom  3       EATOM= -729.1176
 kinetic energy error for atom=    0.0010 (will be added to EATOM!!)


 POSCAR: U1 Bi1 Pt1
  positions in direct lattice
  No initial velocities read in
 exchange correlation table for  LEXCH =       14
   RHO(1)=    0.500       N(1)  =     2000
   RHO(2)=  100.500       N(2)  =     4000



--------------------------------------------------------------------------------------------------------


 ion  position               nearest neighbor table
   1  0.250  0.250  0.250-   3 3.02   3 3.02   3 3.02   3 3.02   2 3.49   2 3.49   2 3.49   2 3.49
                             2 3.49   2 3.49
   2  0.750  0.750  0.750-   3 3.02   3 3.02   3 3.02   3 3.02   1 3.49   1 3.49   1 3.49   1 3.49
                             1 3.49   1 3.49
   3  0.000  0.000  0.000-   2 3.02   2 3.02   2 3.02   1 3.02   2 3.02   1 3.02   1 3.02   1 3.02


  LATTYP: Found a face centered cubic cell.
 ALAT       =     6.9718074092

  Lattice vectors:

 A1 = (   0.0000000000,   3.4859037046,   3.4859037046)
 A2 = (   3.4859037046,   0.0000000000,   3.4859037046)
 A3 = (   3.4859037046,   3.4859037046,   0.0000000000)


Analysis of symmetry for initial positions (statically):
=====================================================================
 Subroutine PRICEL returns:
 Original cell was already a primitive cell.


 Routine SETGRP: Setting up the symmetry group for a
 face centered cubic supercell.


 Subroutine GETGRP returns: Found 24 space group operations
 (whereof 24 operations were pure point group operations)
 out of a pool of 48 trial point group operations.


The static configuration has the point symmetry T_d .


Analysis of symmetry for dynamics (positions and initial velocities):
=====================================================================
 Subroutine PRICEL returns:
 Original cell was already a primitive cell.


 Routine SETGRP: Setting up the symmetry group for a
 face centered cubic supercell.


 Subroutine GETGRP returns: Found 24 space group operations
 (whereof 24 operations were pure point group operations)
 out of a pool of 48 trial point group operations.


The dynamic configuration has the point symmetry T_d .


 Subroutine INISYM returns: Found 24 space group operations
 (whereof 24 operations are pure point group operations),
 and found     1 'primitive' translations


----------------------------------------------------------------------------------------

                                     Primitive cell

  volume of cell :      84.7181

  direct lattice vectors                    reciprocal lattice vectors
     0.000000000  3.485903705  3.485903705    -0.143434828  0.143434828  0.143434828
     3.485903705  0.000000000  3.485903705     0.143434828 -0.143434828  0.143434828
     3.485903705  3.485903705  0.000000000     0.143434828  0.143434828 -0.143434828

  length of vectors
     4.929812296  4.929812296  4.929812296     0.248436411  0.248436411  0.248436411

  position of ions in fractional coordinates (direct lattice)
     0.250000000  0.250000000  0.250000000
     0.750000000  0.750000000  0.750000000
     0.000000000  0.000000000  0.000000000

  ion indices of the primitive-cell ions
   primitive index   ion index
                 1           1
                 2           2
                 3           3

----------------------------------------------------------------------------------------



 KPOINTS: KPOINTS

Automatic generation of k-mesh.
Space group operators:
 irot       det(A)        alpha          n_x          n_y          n_z        tau_x        tau_y        tau_z
    1     1.000000     0.000000     1.000000     0.000000     0.000000     0.000000     0.000000     0.000000
    2     1.000000   120.000000    -0.577350    -0.577350    -0.577350     0.000000     0.000000     0.000000
    3     1.000000   120.000000     0.577350     0.577350     0.577350     0.000000     0.000000     0.000000
    4    -1.000000    90.000000     0.000000     0.000000    -1.000000     0.000000     0.000000     0.000000
    5    -1.000000   180.000000    -0.000000     0.707107     0.707107     0.000000     0.000000     0.000000
    6    -1.000000    90.000000     0.000000     1.000000    -0.000000     0.000000     0.000000     0.000000
    7     1.000000   180.000000     0.000000     0.000000     1.000000     0.000000     0.000000     0.000000
    8     1.000000   120.000000    -0.577350     0.577350     0.577350     0.000000     0.000000     0.000000
    9     1.000000   120.000000    -0.577350     0.577350    -0.577350     0.000000     0.000000     0.000000
   10    -1.000000    90.000000     0.000000     0.000000     1.000000     0.000000     0.000000     0.000000
   11    -1.000000    90.000000    -1.000000    -0.000000     0.000000     0.000000     0.000000     0.000000
   12    -1.000000   180.000000     0.707107     0.000000     0.707107     0.000000     0.000000     0.000000
   13     1.000000   120.000000     0.577350    -0.577350     0.577350     0.000000     0.000000     0.000000
   14     1.000000   120.000000    -0.577350    -0.577350     0.577350     0.000000     0.000000     0.000000
   15     1.000000   180.000000     1.000000     0.000000     0.000000     0.000000     0.000000     0.000000
   16    -1.000000    90.000000     0.000000    -1.000000     0.000000     0.000000     0.000000     0.000000
   17    -1.000000   180.000000     0.707107     0.707107     0.000000     0.000000     0.000000     0.000000
   18    -1.000000    90.000000     1.000000     0.000000    -0.000000     0.000000     0.000000     0.000000
   19     1.000000   120.000000     0.577350    -0.577350    -0.577350     0.000000     0.000000     0.000000
   20     1.000000   180.000000     0.000000    -1.000000     0.000000     0.000000     0.000000     0.000000
   21     1.000000   120.000000     0.577350     0.577350    -0.577350     0.000000     0.000000     0.000000
   22    -1.000000   180.000000    -0.000000    -0.707107     0.707107     0.000000     0.000000     0.000000
   23    -1.000000   180.000000     0.707107    -0.707107    -0.000000     0.000000     0.000000     0.000000
   24    -1.000000   180.000000     0.707107     0.000000    -0.707107     0.000000     0.000000     0.000000

 Subroutine IBZKPT returns following result:
 ===========================================

 Found     84 irreducible k-points:

 Following reciprocal coordinates:
            Coordinates               Weight
  0.000000  0.000000  0.000000      1.000000
  0.076923 -0.000000 -0.000000      8.000000
  0.153846 -0.000000  0.000000      8.000000
  0.230769 -0.000000  0.000000      8.000000
  0.307692 -0.000000  0.000000      8.000000
  0.384615 -0.000000  0.000000      8.000000
  0.461538  0.000000 -0.000000      8.000000
  0.076923  0.076923 -0.000000      6.000000
  0.153846  0.076923 -0.000000     24.000000
  0.230769  0.076923  0.000000     24.000000
  0.307692  0.076923 -0.000000     24.000000
  0.384615  0.076923  0.000000     24.000000
  0.461538  0.076923 -0.000000     24.000000
 -0.461538  0.076923 -0.000000     24.000000
 -0.384615  0.076923  0.000000     24.000000
 -0.307692  0.076923 -0.000000     24.000000
 -0.230769  0.076923 -0.000000     24.000000
 -0.153846  0.076923 -0.000000     24.000000
 -0.076923  0.076923 -0.000000     12.000000
  0.153846  0.153846 -0.000000      6.000000
  0.230769  0.153846 -0.000000     24.000000
  0.307692  0.153846 -0.000000     24.000000
  0.384615  0.153846 -0.000000     24.000000
  0.461538  0.153846 -0.000000     24.000000
 -0.461538  0.153846 -0.000000     24.000000
 -0.384615  0.153846 -0.000000     24.000000
 -0.307692  0.153846  0.000000     24.000000
 -0.230769  0.153846 -0.000000     24.000000
 -0.153846  0.153846 -0.000000     12.000000
  0.230769  0.230769 -0.000000      6.000000
  0.307692  0.230769 -0.000000     24.000000
  0.384615  0.230769 -0.000000     24.000000
  0.461538  0.230769 -0.000000     24.000000
 -0.461538  0.230769  0.000000     24.000000
 -0.384615  0.230769  0.000000     24.000000
 -0.307692  0.230769 -0.000000     24.000000
 -0.230769  0.230769 -0.000000     12.000000
  0.307692  0.307692 -0.000000      6.000000
  0.384615  0.307692 -0.000000     24.000000
  0.461538  0.307692 -0.000000     24.000000
 -0.461538  0.307692  0.000000     24.000000
 -0.384615  0.307692  0.000000     24.000000
 -0.307692  0.307692 -0.000000     12.000000
  0.384615  0.384615 -0.000000      6.000000
  0.461538  0.384615 -0.000000     24.000000
 -0.461538  0.384615  0.000000     24.000000
 -0.384615  0.384615 -0.000000     12.000000
  0.461538  0.461538 -0.000000      6.000000
 -0.461538  0.461538  0.000000     12.000000
  0.230769  0.153846  0.076923     24.000000
  0.307692  0.153846  0.076923     48.000000
  0.384615  0.153846  0.076923     48.000000
  0.461538  0.153846  0.076923     48.000000
 -0.461538  0.153846  0.076923     48.000000
  0.307692  0.230769  0.076923     24.000000
  0.384615  0.230769  0.076923     48.000000
  0.461538  0.230769  0.076923     48.000000
 -0.461538  0.230769  0.076923     48.000000
 -0.384615  0.230769  0.076923     48.000000
 -0.307692  0.230769  0.076923     48.000000
 -0.230769  0.230769  0.076923     48.000000
 -0.153846  0.230769  0.076923     24.000000
  0.384615  0.307692  0.076923     24.000000
  0.461538  0.307692  0.076923     48.000000
 -0.461538  0.307692  0.076923     48.000000
 -0.384615  0.307692  0.076923     48.000000
 -0.307692  0.307692  0.076923     48.000000
 -0.230769  0.307692  0.076923     24.000000
  0.461538  0.384615  0.076923     24.000000
 -0.461538  0.384615  0.076923     48.000000
 -0.384615  0.384615  0.076923     48.000000
 -0.307692  0.384615  0.076923     24.000000
 -0.461538  0.461538  0.076923     24.000000
 -0.384615  0.461538  0.076923     24.000000
  0.461538  0.307692  0.153846     24.000000
 -0.461538  0.307692  0.153846     48.000000
 -0.384615  0.307692  0.153846     48.000000
 -0.461538  0.384615  0.153846     24.000000
 -0.384615  0.384615  0.153846     48.000000
 -0.307692  0.384615  0.153846     48.000000
 -0.230769  0.384615  0.153846     24.000000
 -0.384615  0.461538  0.153846     24.000000
 -0.307692  0.461538  0.153846     24.000000
 -0.307692  0.461538  0.230769     24.000000

 Following cartesian coordinates:
            Coordinates               Weight
  0.000000  0.000000  0.000000      1.000000
 -0.011593  0.011593  0.011593      8.000000
 -0.023186  0.023186  0.023186      8.000000
 -0.034779  0.034779  0.034779      8.000000
 -0.046372  0.046372  0.046372      8.000000
 -0.057965  0.057965  0.057965      8.000000
 -0.069558  0.069558  0.069558      8.000000
 -0.000000  0.000000  0.023186      6.000000
 -0.011593  0.011593  0.034779     24.000000
 -0.023186  0.023186  0.046372     24.000000
 -0.034779  0.034779  0.057965     24.000000
 -0.046372  0.046372  0.069558     24.000000
 -0.057965  0.057965  0.081151     24.000000
  0.081151 -0.081151 -0.057965     24.000000
  0.069558 -0.069558 -0.046372     24.000000
  0.057965 -0.057965 -0.034779     24.000000
  0.046372 -0.046372 -0.023186     24.000000
  0.034779 -0.034779 -0.011593     24.000000
  0.023186 -0.023186  0.000000     12.000000
 -0.000000  0.000000  0.046372      6.000000
 -0.011593  0.011593  0.057965     24.000000
 -0.023186  0.023186  0.069558     24.000000
 -0.034779  0.034779  0.081151     24.000000
 -0.046372  0.046372  0.092744     24.000000
  0.092744 -0.092744 -0.046372     24.000000
  0.081151 -0.081151 -0.034779     24.000000
  0.069558 -0.069558 -0.023186     24.000000
  0.057965 -0.057965 -0.011593     24.000000
  0.046372 -0.046372  0.000000     12.000000
  0.000000 -0.000000  0.069558      6.000000
 -0.011593  0.011593  0.081151     24.000000
 -0.023186  0.023186  0.092744     24.000000
 -0.034779  0.034779  0.104337     24.000000
  0.104337 -0.104337 -0.034779     24.000000
  0.092744 -0.092744 -0.023186     24.000000
  0.081151 -0.081151 -0.011593     24.000000
  0.069558 -0.069558  0.000000     12.000000
 -0.000000  0.000000  0.092744      6.000000
 -0.011593  0.011593  0.104337     24.000000
 -0.023186  0.023186  0.115930     24.000000
  0.115930 -0.115930 -0.023186     24.000000
  0.104337 -0.104337 -0.011593     24.000000
  0.092744 -0.092744  0.000000     12.000000
  0.000000 -0.000000  0.115930      6.000000
 -0.011593  0.011593  0.127523     24.000000
  0.127523 -0.127523 -0.011593     24.000000
  0.115930 -0.115930  0.000000     12.000000
 -0.000000  0.000000  0.139116      6.000000
  0.139116 -0.139116 -0.000000     12.000000
 -0.000000  0.023186  0.046372     24.000000
 -0.011593  0.034779  0.057965     48.000000
 -0.023186  0.046372  0.069558     48.000000
 -0.034779  0.057965  0.081151     48.000000
  0.104337 -0.081151 -0.057965     48.000000
  0.000000  0.023186  0.069558     24.000000
 -0.011593  0.034779  0.081151     48.000000
 -0.023186  0.046372  0.092744     48.000000
  0.115930 -0.092744 -0.046372     48.000000
  0.104337 -0.081151 -0.034779     48.000000
  0.092744 -0.069558 -0.023186     48.000000
  0.081151 -0.057965 -0.011593     48.000000
  0.069558 -0.046372  0.000000     24.000000
  0.000000  0.023186  0.092744     24.000000
 -0.011593  0.034779  0.104337     48.000000
  0.127523 -0.104337 -0.034779     48.000000
  0.115930 -0.092744 -0.023186     48.000000
  0.104337 -0.081151 -0.011593     48.000000
  0.092744 -0.069558 -0.000000     24.000000
  0.000000  0.023186  0.115930     24.000000
  0.139116 -0.115930 -0.023186     48.000000
  0.127523 -0.104337 -0.011593     48.000000
  0.115930 -0.092744  0.000000     24.000000
  0.150709 -0.127523 -0.011593     24.000000
  0.139116 -0.115930 -0.000000     24.000000
 -0.000000  0.046372  0.092744     24.000000
  0.139116 -0.092744 -0.046372     48.000000
  0.127523 -0.081151 -0.034779     48.000000
  0.150709 -0.104337 -0.034779     24.000000
  0.139116 -0.092744 -0.023186     48.000000
  0.127523 -0.081151 -0.011593     48.000000
  0.115930 -0.069558 -0.000000     24.000000
  0.150709 -0.104337 -0.011593     24.000000
  0.139116 -0.092744 -0.000000     24.000000
  0.150709 -0.081151 -0.011593     24.000000



--------------------------------------------------------------------------------------------------------




 Dimension of arrays:
   k-points           NKPTS =     84   k-points in BZ     NKDIM =     84   number of bands    NBANDS=     24
   number of dos      NEDOS =    301   number of ions     NIONS =      3
   non local maximal  LDIM  =      8   non local SUM 2l+1 LMDIM =     32
   total plane-waves  NPLWV = 110592
   max r-space proj   IRMAX =      1   max aug-charges    IRDMAX= 637081
   dimension x,y,z NGX =    48 NGY =   48 NGZ =   48
   dimension x,y,z NGXF=    96 NGYF=   96 NGZF=   96
   support grid    NGXF=   192 NGYF=  192 NGZF=  192
   ions per type =               1   1   1
   NGX,Y,Z   is equivalent  to a cutoff of  16.19, 16.19, 16.19 a.u.
   NGXF,Y,Z  is equivalent  to a cutoff of  32.37, 32.37, 32.37 a.u.

 SYSTEM =  unknown system
 POSCAR =  U1 Bi1 Pt1

 Startparameter for this run:
   NWRITE =      2    write-flag & timer
   PREC   = acc       normal or accurate (medium, high low for compatibility)
   ISTART =      0    job   : 0-new  1-cont  2-samecut
   ICHARG =      2    charge: 1-file 2-atom 10-const
   ISPIN  =      1    spin polarized calculation?
   LNONCOLLINEAR =      F non collinear calculations
   LSORBIT =      F    spin-orbit coupling
   INIWAV =      1    electr: 0-lowe 1-rand  2-diag
   LASPH  =      F    aspherical Exc in radial PAW
   METAGGA=      F    non-selfconsistent MetaGGA calc.

 Electronic Relaxation 1
   ENCUT  =  700.0 eV  51.45 Ry    7.17 a.u.  10.63 10.63 10.63*2*pi/ulx,y,z
   ENINI  =  700.0     initial cutoff
   ENAUG  =  526.4 eV  augmentation charge cutoff
   NELM   =     60;   NELMIN=  5; NELMDL= -5     # of ELM steps
   EDIFF  = 0.1E-06   stopping-criterion for ELM
   LREAL  =      F    real-space projection
   NLSPLINE    = F    spline interpolate recip. space projectors
   LCOMPAT=      F    compatible to vasp.4.4
   GGA_COMPAT  = T    GGA compatible to vasp.4.4-vasp.4.6
   LMAXPAW     = -100 max onsite density
   LMAXMIX     =    2 max onsite mixed and CHGCAR
   VOSKOWN=      0    Vosko Wilk Nusair interpolation
   ROPT   =    0.00000   0.00000   0.00000
 Ionic relaxation
   EDIFFG = 0.1E-05   stopping-criterion for IOM
   NSW    =      0    number of steps for IOM
   NBLOCK =      1;   KBLOCK =      1    inner block; outer block
   IBRION =     -1    ionic relax: 0-MD 1-quasi-New 2-CG
   NFREE  =      0    steps in history (QN), initial steepest desc. (CG)
   ISIF   =      3    stress and relaxation
   IWAVPR =     10    prediction:  0-non 1-charg 2-wave 3-comb
   ISYM   =      2    0-nonsym 1-usesym 2-fastsym
   LCORR  =      T    Harris-Foulkes like correction to forces

   POTIM  = 0.5000    time-step for ionic-motion
   TEIN   =    0.0    initial temperature
   TEBEG  =    0.0;   TEEND  =   0.0 temperature during run
   SMASS  =  -3.00    Nose mass-parameter (am)
   estimated Nose-frequenzy (Omega)   =  0.10E-29 period in steps = 0.13E+47 mass=  -0.555E-27a.u.
   SCALEE = 1.0000    scale energy and forces
   NPACO  =    256;   APACO  = 16.0  distance and # of slots for P.C.
   PSTRESS=    0.0 pullay stress

  Mass of Ions in am
   POMASS = 238.03208.98195.08
  Ionic Valenz
   ZVAL   =  14.00 15.00 10.00
  Atomic Wigner-Seitz radii
   RWIGS  =  -1.00 -1.00 -1.00
  virtual crystal weights
   VCA    =   1.00  1.00  1.00
   NELECT =      39.0000    total number of electrons
   NUPDOWN=      -1.0000    fix difference up-down

 DOS related values:
   EMIN   =  10.00;   EMAX   =-10.00  energy-range for DOS
   EFERMI =   0.00
   ISMEAR =     0;   SIGMA  =   0.01  broadening in eV -4-tet -1-fermi 0-gaus

 Electronic relaxation 2 (details)
   IALGO  =     38    algorithm
   LDIAG  =      T    sub-space diagonalisation (order eigenvalues)
   LSUBROT=      F    optimize rotation matrix (better conditioning)
   TURBO    =      0    0=normal 1=particle mesh
   IRESTART =      0    0=no restart 2=restart with 2 vectors
   NREBOOT  =      0    no. of reboots
   NMIN     =      0    reboot dimension
   EREF     =   0.00    reference energy to select bands
   IMIX   =      4    mixing-type and parameters
     AMIX     =   0.40;   BMIX     =  1.00
     AMIX_MAG =   1.60;   BMIX_MAG =  1.00
     AMIN     =   0.10
     WC   =   100.;   INIMIX=   1;  MIXPRE=   1;  MAXMIX= -45

 Intra band minimization:
   WEIMIN = 0.0000     energy-eigenvalue tresh-hold
   EBREAK =  0.10E-08  absolut break condition
   DEPER  =   0.30     relativ break condition

   TIME   =   0.40     timestep for ELM

  volume/ion in A,a.u.               =      28.24       190.57
  Fermi-wavevector in a.u.,A,eV,Ry     =   1.264070  2.388745 21.740367  1.597872
  Thomas-Fermi vector in A             =   2.397394

 Write flags
   LWAVE        =      F    write WAVECAR
   LDOWNSAMPLE  =      F    k-point downsampling of WAVECAR
   LCHARG       =      F    write CHGCAR
   LVTOT        =      F    write LOCPOT, total local potential
   LVHAR        =      F    write LOCPOT, Hartree potential only
   LELF         =      F    write electronic localiz. function (ELF)
   LORBIT       =      0    0 simple, 1 ext, 2 COOP (PROOUT), +10 PAW based schemes


 Dipole corrections
   LMONO  =      F    monopole corrections only (constant potential shift)
   LDIPOL =      F    correct potential (dipole corrections)
   IDIPOL =      0    1-x, 2-y, 3-z, 4-all directions
   EPSILON=  1.0000000 bulk dielectric constant

 Exchange correlation treatment:
   GGA     =    PS    GGA type
   LEXCH   =    14    internal setting for exchange type
   VOSKOWN=      0    Vosko Wilk Nusair interpolation
   LHFCALC =     F    Hartree Fock is set to
   LHFONE  =     F    Hartree Fock one center treatment
   AEXX    =    0.0000 exact exchange contribution

 Linear response parameters
   LEPSILON=     F    determine dielectric tensor
   LRPA    =     F    only Hartree local field effects (RPA)
   LNABLA  =     F    use nabla operator in PAW spheres
   LVEL    =     F    velocity operator in full k-point grid
   LINTERFAST=   F  fast interpolation
   KINTER  =     0    interpolate to denser k-point grid
   CSHIFT  =0.1000    complex shift for real part using Kramers Kronig
   OMEGAMAX=  -1.0    maximum frequency
   DEG_THRESHOLD= 0.2000000E-02 threshold for treating states as degnerate
   RTIME   =   -0.100 relaxation time in fs
  (WPLASMAI=    0.000 imaginary part of plasma frequency in eV, 0.658/RTIME)
   DFIELD  = 0.0000000 0.0000000 0.0000000 field for delta impulse in time

 Orbital magnetization related:
   ORBITALMAG=     F  switch on orbital magnetization
   LCHIMAG   =     F  perturbation theory with respect to B field
   DQ        =  0.001000  dq finite difference perturbation B field
   LLRAUG    =     F  two centre corrections for induced B field



--------------------------------------------------------------------------------------------------------


 Static calculation
 charge density and potential will be updated during run
 non-spin polarized calculation
 Variant of blocked Davidson
 Davidson routine will perform the subspace rotation
 perform sub-space diagonalisation
    after iterative eigenvector-optimisation
 modified Broyden-mixing scheme, WC =      100.0
 initial mixing is a Kerker type mixing with AMIX =  0.4000 and BMIX =      1.0000
 Hartree-type preconditioning will be used
 using additional bands            4
 reciprocal scheme for non local part
 use partial core corrections
 calculate Harris-corrections to forces
   (improved forces if not selfconsistent)
 use gradient corrections
 use of overlap-Matrix (Vanderbilt PP)
 Gauss-broadening in eV      SIGMA  =   0.01


--------------------------------------------------------------------------------------------------------


  energy-cutoff  :      700.00
  volume of cell :       84.72
      direct lattice vectors                 reciprocal lattice vectors
     0.000000000  3.485903705  3.485903705    -0.143434828  0.143434828  0.143434828
     3.485903705  0.000000000  3.485903705     0.143434828 -0.143434828  0.143434828
     3.485903705  3.485903705  0.000000000     0.143434828  0.143434828 -0.143434828

  length of vectors
     4.929812296  4.929812296  4.929812296     0.248436411  0.248436411  0.248436411



 k-points in units of 2pi/SCALE and weight: KPOINTS
   0.00000000  0.00000000  0.00000000       0.000
  -0.01159304  0.01159304  0.01159304       0.004
  -0.02318608  0.02318608  0.02318608       0.004
  -0.03477911  0.03477911  0.03477911       0.004
  -0.04637215  0.04637215  0.04637215       0.004
  -0.05796519  0.05796519  0.05796519       0.004
  -0.06955823  0.06955823  0.06955823       0.004
  -0.00000000  0.00000000  0.02318608       0.003
  -0.01159304  0.01159304  0.03477911       0.011
  -0.02318608  0.02318608  0.04637215       0.011
  -0.03477911  0.03477911  0.05796519       0.011
  -0.04637215  0.04637215  0.06955823       0.011
  -0.05796519  0.05796519  0.08115127       0.011
   0.08115127 -0.08115127 -0.05796519       0.011
   0.06955823 -0.06955823 -0.04637215       0.011
   0.05796519 -0.05796519 -0.03477911       0.011
   0.04637215 -0.04637215 -0.02318608       0.011
   0.03477911 -0.03477911 -0.01159304       0.011
   0.02318608 -0.02318608  0.00000000       0.005
  -0.00000000  0.00000000  0.04637215       0.003
  -0.01159304  0.01159304  0.05796519       0.011
  -0.02318608  0.02318608  0.06955823       0.011
  -0.03477911  0.03477911  0.08115127       0.011
  -0.04637215  0.04637215  0.09274430       0.011
   0.09274430 -0.09274430 -0.04637215       0.011
   0.08115127 -0.08115127 -0.03477911       0.011
   0.06955823 -0.06955823 -0.02318608       0.011
   0.05796519 -0.05796519 -0.01159304       0.011
   0.04637215 -0.04637215  0.00000000       0.005
   0.00000000 -0.00000000  0.06955823       0.003
  -0.01159304  0.01159304  0.08115127       0.011
  -0.02318608  0.02318608  0.09274430       0.011
  -0.03477911  0.03477911  0.10433734       0.011
   0.10433734 -0.10433734 -0.03477911       0.011
   0.09274430 -0.09274430 -0.02318608       0.011
   0.08115127 -0.08115127 -0.01159304       0.011
   0.06955823 -0.06955823  0.00000000       0.005
  -0.00000000  0.00000000  0.09274430       0.003
  -0.01159304  0.01159304  0.10433734       0.011
  -0.02318608  0.02318608  0.11593038       0.011
   0.11593038 -0.11593038 -0.02318608       0.011
   0.10433734 -0.10433734 -0.01159304       0.011
   0.09274430 -0.09274430  0.00000000       0.005
   0.00000000 -0.00000000  0.11593038       0.003
  -0.01159304  0.01159304  0.12752342       0.011
   0.12752342 -0.12752342 -0.01159304       0.011
   0.11593038 -0.11593038  0.00000000       0.005
  -0.00000000  0.00000000  0.13911646       0.003
   0.13911646 -0.13911646 -0.00000000       0.005
  -0.00000000  0.02318608  0.04637215       0.011
  -0.01159304  0.03477911  0.05796519       0.022
  -0.02318608  0.04637215  0.06955823       0.022
  -0.03477911  0.05796519  0.08115127       0.022
   0.10433734 -0.08115127 -0.05796519       0.022
   0.00000000  0.02318608  0.06955823       0.011
  -0.01159304  0.03477911  0.08115127       0.022
  -0.02318608  0.04637215  0.09274430       0.022
   0.11593038 -0.09274430 -0.04637215       0.022
   0.10433734 -0.08115127 -0.03477911       0.022
   0.09274430 -0.06955823 -0.02318608       0.022
   0.08115127 -0.05796519 -0.01159304       0.022
   0.06955823 -0.04637215  0.00000000       0.011
   0.00000000  0.02318608  0.09274430       0.011
  -0.01159304  0.03477911  0.10433734       0.022
   0.12752342 -0.10433734 -0.03477911       0.022
   0.11593038 -0.09274430 -0.02318608       0.022
   0.10433734 -0.08115127 -0.01159304       0.022
   0.09274430 -0.06955823 -0.00000000       0.011
   0.00000000  0.02318608  0.11593038       0.011
   0.13911646 -0.11593038 -0.02318608       0.022
   0.12752342 -0.10433734 -0.01159304       0.022
   0.11593038 -0.09274430  0.00000000       0.011
   0.15070950 -0.12752342 -0.01159304       0.011
   0.13911646 -0.11593038 -0.00000000       0.011
  -0.00000000  0.04637215  0.09274430       0.011
   0.13911646 -0.09274430 -0.04637215       0.022
   0.12752342 -0.08115127 -0.03477911       0.022
   0.15070950 -0.10433734 -0.03477911       0.011
   0.13911646 -0.09274430 -0.02318608       0.022
   0.12752342 -0.08115127 -0.01159304       0.022
   0.11593038 -0.06955823 -0.00000000       0.011
   0.15070950 -0.10433734 -0.01159304       0.011
   0.13911646 -0.09274430 -0.00000000       0.011
   0.15070950 -0.08115127 -0.01159304       0.011

 k-points in reciprocal lattice and weights: KPOINTS
   0.00000000  0.00000000  0.00000000       0.000
   0.07692308 -0.00000000 -0.00000000       0.004
   0.15384615 -0.00000000  0.00000000       0.004
   0.23076923 -0.00000000  0.00000000       0.004
   0.30769231 -0.00000000  0.00000000       0.004
   0.38461538 -0.00000000  0.00000000       0.004
   0.46153846  0.00000000 -0.00000000       0.004
   0.07692308  0.07692308 -0.00000000       0.003
   0.15384615  0.07692308 -0.00000000       0.011
   0.23076923  0.07692308  0.00000000       0.011
   0.30769231  0.07692308 -0.00000000       0.011
   0.38461538  0.07692308  0.00000000       0.011
   0.46153846  0.07692308 -0.00000000       0.011
  -0.46153846  0.07692308 -0.00000000       0.011
  -0.38461538  0.07692308  0.00000000       0.011
  -0.30769231  0.07692308 -0.00000000       0.011
  -0.23076923  0.07692308 -0.00000000       0.011
  -0.15384615  0.07692308 -0.00000000       0.011
  -0.07692308  0.07692308 -0.00000000       0.005
   0.15384615  0.15384615 -0.00000000       0.003
   0.23076923  0.15384615 -0.00000000       0.011
   0.30769231  0.15384615 -0.00000000       0.011
   0.38461538  0.15384615 -0.00000000       0.011
   0.46153846  0.15384615 -0.00000000       0.011
  -0.46153846  0.15384615 -0.00000000       0.011
  -0.38461538  0.15384615 -0.00000000       0.011
  -0.30769231  0.15384615  0.00000000       0.011
  -0.23076923  0.15384615 -0.00000000       0.011
  -0.15384615  0.15384615 -0.00000000       0.005
   0.23076923  0.23076923 -0.00000000       0.003
   0.30769231  0.23076923 -0.00000000       0.011
   0.38461538  0.23076923 -0.00000000       0.011
   0.46153846  0.23076923 -0.00000000       0.011
  -0.46153846  0.23076923  0.00000000       0.011
  -0.38461538  0.23076923  0.00000000       0.011
  -0.30769231  0.23076923 -0.00000000       0.011
  -0.23076923  0.23076923 -0.00000000       0.005
   0.30769231  0.30769231 -0.00000000       0.003
   0.38461538  0.30769231 -0.00000000       0.011
   0.46153846  0.30769231 -0.00000000       0.011
  -0.46153846  0.30769231  0.00000000       0.011
  -0.38461538  0.30769231  0.00000000       0.011
  -0.30769231  0.30769231 -0.00000000       0.005
   0.38461538  0.38461538 -0.00000000       0.003
   0.46153846  0.38461538 -0.00000000       0.011
  -0.46153846  0.38461538  0.00000000       0.011
  -0.38461538  0.38461538 -0.00000000       0.005
   0.46153846  0.46153846 -0.00000000       0.003
  -0.46153846  0.46153846  0.00000000       0.005
   0.23076923  0.15384615  0.07692308       0.011
   0.30769231  0.15384615  0.07692308       0.022
   0.38461538  0.15384615  0.07692308       0.022
   0.46153846  0.15384615  0.07692308       0.022
  -0.46153846  0.15384615  0.07692308       0.022
   0.30769231  0.23076923  0.07692308       0.011
   0.38461538  0.23076923  0.07692308       0.022
   0.46153846  0.23076923  0.07692308       0.022
  -0.46153846  0.23076923  0.07692308       0.022
  -0.38461538  0.23076923  0.07692308       0.022
  -0.30769231  0.23076923  0.07692308       0.022
  -0.23076923  0.23076923  0.07692308       0.022
  -0.15384615  0.23076923  0.07692308       0.011
   0.38461538  0.30769231  0.07692308       0.011
   0.46153846  0.30769231  0.07692308       0.022
  -0.46153846  0.30769231  0.07692308       0.022
  -0.38461538  0.30769231  0.07692308       0.022
  -0.30769231  0.30769231  0.07692308       0.022
  -0.23076923  0.30769231  0.07692308       0.011
   0.46153846  0.38461538  0.07692308       0.011
  -0.46153846  0.38461538  0.07692308       0.022
  -0.38461538  0.38461538  0.07692308       0.022
  -0.30769231  0.38461538  0.07692308       0.011
  -0.46153846  0.46153846  0.07692308       0.011
  -0.38461538  0.46153846  0.07692308       0.011
   0.46153846  0.30769231  0.15384615       0.011
  -0.46153846  0.30769231  0.15384615       0.022
  -0.38461538  0.30769231  0.15384615       0.022
  -0.46153846  0.38461538  0.15384615       0.011
  -0.38461538  0.38461538  0.15384615       0.022
  -0.30769231  0.38461538  0.15384615       0.022
  -0.23076923  0.38461538  0.15384615       0.011
  -0.38461538  0.46153846  0.15384615       0.011
  -0.30769231  0.46153846  0.15384615       0.011
  -0.30769231  0.46153846  0.23076923       0.011

 position of ions in fractional coordinates (direct lattice)
   0.25000000  0.25000000  0.25000000
   0.75000000  0.75000000  0.75000000
   0.00000000  0.00000000  0.00000000

 position of ions in cartesian coordinates  (Angst):
   1.74295185  1.74295185  1.74295185
   5.22885556  5.22885556  5.22885556
   0.00000000  0.00000000  0.00000000



--------------------------------------------------------------------------------------------------------


 k-point  1 :   0.0000 0.0000 0.0000  plane waves:    3527
 k-point  2 :   0.0769-0.0000-0.0000  plane waves:    3575
 k-point  3 :   0.1538-0.0000 0.0000  plane waves:    3590
 k-point  4 :   0.2308-0.0000 0.0000  plane waves:    3584
 k-point  5 :   0.3077-0.0000 0.0000  plane waves:    3587
 k-point  6 :   0.3846-0.0000 0.0000  plane waves:    3573
 k-point  7 :   0.4615 0.0000-0.0000  plane waves:    3573
 k-point  8 :   0.0769 0.0769-0.0000  plane waves:    3579
 k-point  9 :   0.1538 0.0769-0.0000  plane waves:    3579
 k-point 10 :   0.2308 0.0769 0.0000  plane waves:    3575
 k-point 11 :   0.3077 0.0769-0.0000  plane waves:    3573
 k-point 12 :   0.3846 0.0769 0.0000  plane waves:    3568
 k-point 13 :   0.4615 0.0769-0.0000  plane waves:    3558
 k-point 14 :  -0.4615 0.0769-0.0000  plane waves:    3571
 k-point 15 :  -0.3846 0.0769 0.0000  plane waves:    3563
 k-point 16 :  -0.3077 0.0769-0.0000  plane waves:    3570
 k-point 17 :  -0.2308 0.0769-0.0000  plane waves:    3573
 k-point 18 :  -0.1538 0.0769-0.0000  plane waves:    3570
 k-point 19 :  -0.0769 0.0769-0.0000  plane waves:    3581
 k-point 20 :   0.1538 0.1538-0.0000  plane waves:    3579
 k-point 21 :   0.2308 0.1538-0.0000  plane waves:    3575
 k-point 22 :   0.3077 0.1538-0.0000  plane waves:    3560
 k-point 23 :   0.3846 0.1538-0.0000  plane waves:    3560
 k-point 24 :   0.4615 0.1538-0.0000  plane waves:    3562
 k-point 25 :  -0.4615 0.1538-0.0000  plane waves:    3568
 k-point 26 :  -0.3846 0.1538-0.0000  plane waves:    3570
 k-point 27 :  -0.3077 0.1538 0.0000  plane waves:    3563
 k-point 28 :  -0.2308 0.1538-0.0000  plane waves:    3567
 k-point 29 :  -0.1538 0.1538-0.0000  plane waves:    3565
 k-point 30 :   0.2308 0.2308-0.0000  plane waves:    3571
 k-point 31 :   0.3077 0.2308-0.0000  plane waves:    3561
 k-point 32 :   0.3846 0.2308-0.0000  plane waves:    3552
 k-point 33 :   0.4615 0.2308-0.0000  plane waves:    3563
 k-point 34 :  -0.4615 0.2308 0.0000  plane waves:    3560
 k-point 35 :  -0.3846 0.2308 0.0000  plane waves:    3563
 k-point 36 :  -0.3077 0.2308-0.0000  plane waves:    3565
 k-point 37 :  -0.2308 0.2308-0.0000  plane waves:    3561
 k-point 38 :   0.3077 0.3077-0.0000  plane waves:    3559
 k-point 39 :   0.3846 0.3077-0.0000  plane waves:    3548
 k-point 40 :   0.4615 0.3077-0.0000  plane waves:    3554
 k-point 41 :  -0.4615 0.3077 0.0000  plane waves:    3567
 k-point 42 :  -0.3846 0.3077 0.0000  plane waves:    3555
 k-point 43 :  -0.3077 0.3077-0.0000  plane waves:    3555
 k-point 44 :   0.3846 0.3846-0.0000  plane waves:    3559
 k-point 45 :   0.4615 0.3846-0.0000  plane waves:    3551
 k-point 46 :  -0.4615 0.3846 0.0000  plane waves:    3559
 k-point 47 :  -0.3846 0.3846-0.0000  plane waves:    3552
 k-point 48 :   0.4615 0.4615-0.0000  plane waves:    3547
 k-point 49 :  -0.4615 0.4615 0.0000  plane waves:    3536
 k-point 50 :   0.2308 0.1538 0.0769  plane waves:    3576
 k-point 51 :   0.3077 0.1538 0.0769  plane waves:    3582
 k-point 52 :   0.3846 0.1538 0.0769  plane waves:    3561
 k-point 53 :   0.4615 0.1538 0.0769  plane waves:    3559
 k-point 54 :  -0.4615 0.1538 0.0769  plane waves:    3577
 k-point 55 :   0.3077 0.2308 0.0769  plane waves:    3571
 k-point 56 :   0.3846 0.2308 0.0769  plane waves:    3557
 k-point 57 :   0.4615 0.2308 0.0769  plane waves:    3563
 k-point 58 :  -0.4615 0.2308 0.0769  plane waves:    3565
 k-point 59 :  -0.3846 0.2308 0.0769  plane waves:    3582
 k-point 60 :  -0.3077 0.2308 0.0769  plane waves:    3567
 k-point 61 :  -0.2308 0.2308 0.0769  plane waves:    3561
 k-point 62 :  -0.1538 0.2308 0.0769  plane waves:    3559
 k-point 63 :   0.3846 0.3077 0.0769  plane waves:    3562
 k-point 64 :   0.4615 0.3077 0.0769  plane waves:    3550
 k-point 65 :  -0.4615 0.3077 0.0769  plane waves:    3562
 k-point 66 :  -0.3846 0.3077 0.0769  plane waves:    3571
 k-point 67 :  -0.3077 0.3077 0.0769  plane waves:    3564
 k-point 68 :  -0.2308 0.3077 0.0769  plane waves:    3572
 k-point 69 :   0.4615 0.3846 0.0769  plane waves:    3547
 k-point 70 :  -0.4615 0.3846 0.0769  plane waves:    3553
 k-point 71 :  -0.3846 0.3846 0.0769  plane waves:    3556
 k-point 72 :  -0.3077 0.3846 0.0769  plane waves:    3559
 k-point 73 :  -0.4615 0.4615 0.0769  plane waves:    3548
 k-point 74 :  -0.3846 0.4615 0.0769  plane waves:    3548
 k-point 75 :   0.4615 0.3077 0.1538  plane waves:    3549
 k-point 76 :  -0.4615 0.3077 0.1538  plane waves:    3564
 k-point 77 :  -0.3846 0.3077 0.1538  plane waves:    3567
 k-point 78 :  -0.4615 0.3846 0.1538  plane waves:    3557
 k-point 79 :  -0.3846 0.3846 0.1538  plane waves:    3556
 k-point 80 :  -0.3077 0.3846 0.1538  plane waves:    3559
 k-point 81 :  -0.2308 0.3846 0.1538  plane waves:    3557
 k-point 82 :  -0.3846 0.4615 0.1538  plane waves:    3560
 k-point 83 :  -0.3077 0.4615 0.1538  plane waves:    3564
 k-point 84 :  -0.3077 0.4615 0.2308  plane waves:    3559

 maximum and minimum number of plane-waves per node :       919      875

 maximum number of plane-waves:      3590
 maximum index in each direction:
   IXMAX=   11   IYMAX=   10   IZMAX=   10
   IXMIN=  -11   IYMIN=  -11   IZMIN=  -10


 parallel 3D FFT for wavefunctions:
    minimum data exchange during FFTs selected (reduces bandwidth)
 parallel 3D FFT for charge:
    minimum data exchange during FFTs selected (reduces bandwidth)


 total amount of memory used by VASP MPI-rank0   109328. kBytes
=======================================================================

   base      :      30000. kBytes
   nonl-proj :      58104. kBytes
   fftplans  :       8951. kBytes
   grid      :       4709. kBytes
   one-center:         49. kBytes
   wavefun   :       7515. kBytes

     INWAV:  cpu time    0.0002: real time    0.0004
 Broyden mixing: mesh for mixing (old mesh)
   NGX = 21   NGY = 21   NGZ = 21
  (NGX  = 96   NGY  = 96   NGZ  = 96)
  gives a total of   9261 points

 initial charge density was supplied:
 charge density of overlapping atoms calculated
 number of electron      39.0000000 magnetization
 keeping initial charge density in first step


--------------------------------------------------------------------------------------------------------


 Maximum index for augmentation-charges        38961 (set IRDMAX)


--------------------------------------------------------------------------------------------------------


 First call to EWALD:  gamma=   0.404
 Maximum number of real-space cells 3x 3x 3
 Maximum number of reciprocal cells 3x 3x 3

    FEWALD:  cpu time    0.0053: real time    0.0060


--------------------------------------- Iteration      1(   1)  ---------------------------------------


    POTLOK:  cpu time    0.0583: real time    0.1356
    SETDIJ:  cpu time    0.1384: real time    0.1388
     EDDAV:  cpu time    1.6888: real time    1.6943
       DOS:  cpu time    0.0044: real time    0.0049
    --------------------------------------------
      LOOP:  cpu time    1.8901: real time    1.9743

 eigenvalue-minimisations  :  4032
 total energy-change (2. order) : 0.4260059E+03  (-0.2215680E+04)
 number of electron      39.0000000 magnetization
 augmentation part       39.0000000 magnetization

 Free energy of the ion-electron system (eV)
  ---------------------------------------------------
  alpha Z        PSCENC =       185.61306996
  Ewald energy   TEWEN  =     -3419.86203582
  -Hartree energ DENC   =      -860.46365882
  -exchange      EXHF   =         0.00000000
  -V(xc)+E(xc)   XCENC  =        88.68742125
  PAW double counting   =      3513.29252893    -3436.88002192
  entropy T*S    EENTRO =        -0.00002031
  eigenvalues    EBANDS =       260.26656902
  atomic energy  EATOM  =      4095.35208632
  Solvation  Ediel_sol  =         0.00000000
  ---------------------------------------------------
  free energy    TOTEN  =       426.00593860 eV

  energy without entropy =      426.00595891  energy(sigma->0) =      426.00594876


--------------------------------------------------------------------------------------------------------




--------------------------------------- Iteration      1(   2)  ---------------------------------------


     EDDAV:  cpu time    1.8863: real time    1.9130
       DOS:  cpu time    0.0030: real time    0.0037
    --------------------------------------------
      LOOP:  cpu time    1.8892: real time    1.9176

 eigenvalue-minimisations  :  4672
 total energy-change (2. order) :-0.3976502E+03  (-0.3906268E+03)
 number of electron      39.0000000 magnetization
 augmentation part       39.0000000 magnetization

 Free energy of the ion-electron system (eV)
  ---------------------------------------------------
  alpha Z        PSCENC =       185.61306996
  Ewald energy   TEWEN  =     -3419.86203582
  -Hartree energ DENC   =      -860.46365882
  -exchange      EXHF   =         0.00000000
  -V(xc)+E(xc)   XCENC  =        88.68742125
  PAW double counting   =      3513.29252893    -3436.88002192
  entropy T*S    EENTRO =        -0.00081267
  eigenvalues    EBANDS =      -137.38287769
  atomic energy  EATOM  =      4095.35208632
  Solvation  Ediel_sol  =         0.00000000
  ---------------------------------------------------
  free energy    TOTEN  =        28.35569954 eV

  energy without entropy =       28.35651220  energy(sigma->0) =       28.35610587


--------------------------------------------------------------------------------------------------------




--------------------------------------- Iteration      1(   3)  ---------------------------------------


     EDDAV:  cpu time    1.9428: real time    1.9631
       DOS:  cpu time    0.0032: real time    0.0034
    --------------------------------------------
      LOOP:  cpu time    1.9460: real time    1.9671

 eigenvalue-minimisations  :  4944
 total energy-change (2. order) :-0.4837340E+02  (-0.4732574E+02)
 number of electron      39.0000000 magnetization
 augmentation part       39.0000000 magnetization

 Free energy of the ion-electron system (eV)
  ---------------------------------------------------
  alpha Z        PSCENC =       185.61306996
  Ewald energy   TEWEN  =     -3419.86203582
  -Hartree energ DENC   =      -860.46365882
  -exchange      EXHF   =         0.00000000
  -V(xc)+E(xc)   XCENC  =        88.68742125
  PAW double counting   =      3513.29252893    -3436.88002192
  entropy T*S    EENTRO =        -0.00116302
  eigenvalues    EBANDS =      -185.75592678
  atomic energy  EATOM  =      4095.35208632
  Solvation  Ediel_sol  =         0.00000000
  ---------------------------------------------------
  free energy    TOTEN  =       -20.01769991 eV

  energy without entropy =      -20.01653689  energy(sigma->0) =      -20.01711840


--------------------------------------------------------------------------------------------------------




--------------------------------------- Iteration      1(   4)  ---------------------------------------


     EDDAV:  cpu time    2.7835: real time    2.8034
       DOS:  cpu time    0.0033: real time    0.0036
    --------------------------------------------
      LOOP:  cpu time    2.7868: real time    2.8075

 eigenvalue-minimisations  :  7800
 total energy-change (2. order) :-0.5221926E+01  (-0.5193456E+01)
 number of electron      39.0000000 magnetization
 augmentation part       39.0000000 magnetization

 Free energy of the ion-electron system (eV)
  ---------------------------------------------------
  alpha Z        PSCENC =       185.61306996
  Ewald energy   TEWEN  =     -3419.86203582
  -Hartree energ DENC   =      -860.46365882
  -exchange      EXHF   =         0.00000000
  -V(xc)+E(xc)   XCENC  =        88.68742125
  PAW double counting   =      3513.29252893    -3436.88002192
  entropy T*S    EENTRO =        -0.00118269
  eigenvalues    EBANDS =      -190.97783275
  atomic energy  EATOM  =      4095.35208632
  Solvation  Ediel_sol  =         0.00000000
  ---------------------------------------------------
  free energy    TOTEN  =       -25.23962555 eV

  energy without entropy =      -25.23844286  energy(sigma->0) =      -25.23903421


--------------------------------------------------------------------------------------------------------




--------------------------------------- Iteration      1(   5)  ---------------------------------------


     EDDAV:  cpu time    2.1392: real time    2.1661
       DOS:  cpu time    0.0031: real time    0.0034
    CHARGE:  cpu time    0.4882: real time    0.4918
    MIXING:  cpu time    0.0112: real time    0.0114
    --------------------------------------------
      LOOP:  cpu time    2.6418: real time    2.6725

 eigenvalue-minimisations  :  5584
 total energy-change (2. order) :-0.2019726E+00  (-0.2016938E+00)
 number of electron      39.0000000 magnetization
 augmentation part        9.1843980 magnetization

 Broyden mixing:
  rms(total) = 0.15001E+01    rms(broyden)= 0.15001E+01
  rms(prec ) = 0.46167E+01
  weight for this iteration     100.00

 Free energy of the ion-electron system (eV)
  ---------------------------------------------------
  alpha Z        PSCENC =       185.61306996
  Ewald energy   TEWEN  =     -3419.86203582
  -Hartree energ DENC   =      -860.46365882
  -exchange      EXHF   =         0.00000000
  -V(xc)+E(xc)   XCENC  =        88.68742125
  PAW double counting   =      3513.29252893    -3436.88002192
  entropy T*S    EENTRO =        -0.00128105
  eigenvalues    EBANDS =      -191.17970700
  atomic energy  EATOM  =      4095.35208632
  Solvation  Ediel_sol  =         0.00000000
  ---------------------------------------------------
  free energy    TOTEN  =       -25.44159816 eV

  energy without entropy =      -25.44031711  energy(sigma->0) =      -25.44095763


--------------------------------------------------------------------------------------------------------




--------------------------------------- Iteration      1(   6)  ---------------------------------------


    POTLOK:  cpu time    0.0634: real time    0.0880
    SETDIJ:  cpu time    0.1215: real time    0.1216
     EDDAV:  cpu time    2.2821: real time    2.2825
       DOS:  cpu time    0.0029: real time    0.0038
    CHARGE:  cpu time    0.4286: real time    0.4288
    MIXING:  cpu time    0.0147: real time    0.0153
    --------------------------------------------
      LOOP:  cpu time    2.9132: real time    2.9409

 eigenvalue-minimisations  :  6040
 total energy-change (2. order) :-0.1116215E+02  (-0.2639300E+02)
 number of electron      39.0000000 magnetization
 augmentation part        7.0326590 magnetization

 Broyden mixing:
  rms(total) = 0.22200E+01    rms(broyden)= 0.22200E+01
  rms(prec ) = 0.63837E+01
  weight for this iteration     100.00

 eigenvalues of (default mixing * dielectric matrix)
  average eigenvalue GAMMA=   0.3793
  0.3793

 Free energy of the ion-electron system (eV)
  ---------------------------------------------------
  alpha Z        PSCENC =       185.61306996
  Ewald energy   TEWEN  =     -3419.86203582
  -Hartree energ DENC   =      -876.01781942
  -exchange      EXHF   =         0.00000000
  -V(xc)+E(xc)   XCENC  =        89.50297471
  PAW double counting   =      3716.85597532    -3639.19025799
  entropy T*S    EENTRO =        -0.00007162
  eigenvalues    EBANDS =      -188.85767163
  atomic energy  EATOM  =      4095.35208632
  Solvation  Ediel_sol  =         0.00000000
  ---------------------------------------------------
  free energy    TOTEN  =       -36.60375018 eV

  energy without entropy =      -36.60367856  energy(sigma->0) =      -36.60371437


--------------------------------------------------------------------------------------------------------




--------------------------------------- Iteration      1(   7)  ---------------------------------------


    POTLOK:  cpu time    0.0504: real time    0.0777
    SETDIJ:  cpu time    0.1298: real time    0.1299
     EDDAV:  cpu time    2.1579: real time    2.1582
       DOS:  cpu time    0.0032: real time    0.0035
    CHARGE:  cpu time    0.3984: real time    0.3985
    MIXING:  cpu time    0.0134: real time    0.0135
    --------------------------------------------
      LOOP:  cpu time    2.7531: real time    2.7812

 eigenvalue-minimisations  :  5752
 total energy-change (2. order) : 0.1150498E+02  (-0.2788144E+01)
 number of electron      39.0000000 magnetization
 augmentation part        7.3187135 magnetization

 Broyden mixing:
  rms(total) = 0.12827E+01    rms(broyden)= 0.12827E+01
  rms(prec ) = 0.38681E+01
  weight for this iteration     100.00

 eigenvalues of (default mixing * dielectric matrix)
  average eigenvalue GAMMA=   0.7084
  0.7084  0.7084

 Free energy of the ion-electron system (eV)
  ---------------------------------------------------
  alpha Z        PSCENC =       185.61306996
  Ewald energy   TEWEN  =     -3419.86203582
  -Hartree energ DENC   =      -860.38112462
  -exchange      EXHF   =         0.00000000
  -V(xc)+E(xc)   XCENC  =        88.77775076
  PAW double counting   =      3780.87754160    -3707.74510113
  entropy T*S    EENTRO =        -0.00041531
  eigenvalues    EBANDS =      -187.73054234
  atomic energy  EATOM  =      4095.35208632
  Solvation  Ediel_sol  =         0.00000000
  ---------------------------------------------------
  free energy    TOTEN  =       -25.09877059 eV

  energy without entropy =      -25.09835528  energy(sigma->0) =      -25.09856294


--------------------------------------------------------------------------------------------------------




--------------------------------------- Iteration      1(   8)  ---------------------------------------


    POTLOK:  cpu time    0.0463: real time    0.0823
    SETDIJ:  cpu time    0.1289: real time    0.1290
     EDDAV:  cpu time    2.2348: real time    2.2352
       DOS:  cpu time    0.0033: real time    0.0035
    CHARGE:  cpu time    0.4158: real time    0.4162
    MIXING:  cpu time    0.0063: real time    0.0064
    --------------------------------------------
      LOOP:  cpu time    2.8353: real time    2.8716

 eigenvalue-minimisations  :  6024
 total energy-change (2. order) : 0.8974233E+00  (-0.4817481E+01)
 number of electron      39.0000000 magnetization
 augmentation part        9.2929765 magnetization

 Broyden mixing:
  rms(total) = 0.98040E+00    rms(broyden)= 0.98040E+00
  rms(prec ) = 0.30827E+01
  weight for this iteration     100.00

 eigenvalues of (default mixing * dielectric matrix)
  average eigenvalue GAMMA=   0.8194
  1.4349  0.5117  0.5117

 Free energy of the ion-electron system (eV)
  ---------------------------------------------------
  alpha Z        PSCENC =       185.61306996
  Ewald energy   TEWEN  =     -3419.86203582
  -Hartree energ DENC   =      -847.07503740
  -exchange      EXHF   =         0.00000000
  -V(xc)+E(xc)   XCENC  =        88.20786620
  PAW double counting   =      3783.66823932    -3713.39342464
  entropy T*S    EENTRO =        -0.00184746
  eigenvalues    EBANDS =      -196.71026375
  atomic energy  EATOM  =      4095.35208632
  Solvation  Ediel_sol  =         0.00000000
  ---------------------------------------------------
  free energy    TOTEN  =       -24.20134727 eV

  energy without entropy =      -24.19949981  energy(sigma->0) =      -24.20042354


--------------------------------------------------------------------------------------------------------




--------------------------------------- Iteration      1(   9)  ---------------------------------------


    POTLOK:  cpu time    0.0529: real time    0.0961
    SETDIJ:  cpu time    0.1273: real time    0.1274
     EDDAV:  cpu time    2.2851: real time    2.2855
       DOS:  cpu time    0.0032: real time    0.0035
    CHARGE:  cpu time    0.4147: real time    0.4149
    MIXING:  cpu time    0.0085: real time    0.0086
    --------------------------------------------
      LOOP:  cpu time    2.8917: real time    2.9377

 eigenvalue-minimisations  :  6216
 total energy-change (2. order) : 0.9590106E+00  (-0.9716071E+00)
 number of electron      39.0000000 magnetization
 augmentation part        8.3206998 magnetization

 Broyden mixing:
  rms(total) = 0.22423E+00    rms(broyden)= 0.22423E+00
  rms(prec ) = 0.51869E+00
  weight for this iteration     100.00

 eigenvalues of (default mixing * dielectric matrix)
  average eigenvalue GAMMA=   0.8321
  1.7569  0.5690  0.5690  0.4336

 Free energy of the ion-electron system (eV)
  ---------------------------------------------------
  alpha Z        PSCENC =       185.61306996
  Ewald energy   TEWEN  =     -3419.86203582
  -Hartree energ DENC   =      -852.50131821
  -exchange      EXHF   =         0.00000000
  -V(xc)+E(xc)   XCENC  =        88.46225169
  PAW double counting   =      3857.40935542    -3787.47909891
  entropy T*S    EENTRO =        -0.00192954
  eigenvalues    EBANDS =      -190.23471755
  atomic energy  EATOM  =      4095.35208632
  Solvation  Ediel_sol  =         0.00000000
  ---------------------------------------------------
  free energy    TOTEN  =       -23.24233664 eV

  energy without entropy =      -23.24040710  energy(sigma->0) =      -23.24137187


--------------------------------------------------------------------------------------------------------




--------------------------------------- Iteration      1(  10)  ---------------------------------------


    POTLOK:  cpu time    0.0472: real time    0.0807
    SETDIJ:  cpu time    0.1292: real time    0.1294
     EDDAV:  cpu time    2.2604: real time    2.2607
       DOS:  cpu time    0.0032: real time    0.0035
    CHARGE:  cpu time    0.4080: real time    0.4082
    MIXING:  cpu time    0.0137: real time    0.0138
    --------------------------------------------
      LOOP:  cpu time    2.8618: real time    2.8961

 eigenvalue-minimisations  :  6136
 total energy-change (2. order) :-0.1191558E+00  (-0.2259883E+00)
 number of electron      39.0000000 magnetization
 augmentation part        7.9066317 magnetization

 Broyden mixing:
  rms(total) = 0.30861E+00    rms(broyden)= 0.30861E+00
  rms(prec ) = 0.97936E+00
  weight for this iteration     100.00

 eigenvalues of (default mixing * dielectric matrix)
  average eigenvalue GAMMA=   0.9393
  1.9002  1.1326  0.5064  0.5064  0.6510

 Free energy of the ion-electron system (eV)
  ---------------------------------------------------
  alpha Z        PSCENC =       185.61306996
  Ewald energy   TEWEN  =     -3419.86203582
  -Hartree energ DENC   =      -853.20717307
  -exchange      EXHF   =         0.00000000
  -V(xc)+E(xc)   XCENC  =        88.51187177
  PAW double counting   =      3923.63854810    -3854.41525985
  entropy T*S    EENTRO =        -0.00140495
  eigenvalues    EBANDS =      -188.99119493
  atomic energy  EATOM  =      4095.35208632
  Solvation  Ediel_sol  =         0.00000000
  ---------------------------------------------------
  free energy    TOTEN  =       -23.36149248 eV

  energy without entropy =      -23.36008754  energy(sigma->0) =      -23.36079001


--------------------------------------------------------------------------------------------------------




--------------------------------------- Iteration      1(  11)  ---------------------------------------


    POTLOK:  cpu time    0.0463: real time    0.0781
    SETDIJ:  cpu time    0.1287: real time    0.1288
     EDDAV:  cpu time    2.2202: real time    2.2204
       DOS:  cpu time    0.0032: real time    0.0036
    CHARGE:  cpu time    0.4125: real time    0.4129
    MIXING:  cpu time    0.0103: real time    0.0103
    --------------------------------------------
      LOOP:  cpu time    2.8212: real time    2.8539

 eigenvalue-minimisations  :  5984
 total energy-change (2. order) : 0.1091455E+00  (-0.6130079E-01)
 number of electron      39.0000000 magnetization
 augmentation part        8.1394556 magnetization

 Broyden mixing:
  rms(total) = 0.87161E-01    rms(broyden)= 0.87161E-01
  rms(prec ) = 0.27544E+00
  weight for this iteration     100.00

 eigenvalues of (default mixing * dielectric matrix)
  average eigenvalue GAMMA=   1.0118
  1.8382  1.8382  0.5143  0.5143  0.6829  0.6829

 Free energy of the ion-electron system (eV)
  ---------------------------------------------------
  alpha Z        PSCENC =       185.61306996
  Ewald energy   TEWEN  =     -3419.86203582
  -Hartree energ DENC   =      -851.35003171
  -exchange      EXHF   =         0.00000000
  -V(xc)+E(xc)   XCENC  =        88.43599025
  PAW double counting   =      3918.42212716    -3849.51529322
  entropy T*S    EENTRO =        -0.00202275
  eigenvalues    EBANDS =      -190.34623713
  atomic energy  EATOM  =      4095.35208632
  Solvation  Ediel_sol  =         0.00000000
  ---------------------------------------------------
  free energy    TOTEN  =       -23.25234696 eV

  energy without entropy =      -23.25032420  energy(sigma->0) =      -23.25133558


--------------------------------------------------------------------------------------------------------




--------------------------------------- Iteration      1(  12)  ---------------------------------------


    POTLOK:  cpu time    0.0587: real time    0.0848
    SETDIJ:  cpu time    0.1270: real time    0.1271
     EDDAV:  cpu time    2.6093: real time    2.6098
       DOS:  cpu time    0.0033: real time    0.0036
    CHARGE:  cpu time    0.4193: real time    0.4194
    MIXING:  cpu time    0.0067: real time    0.0068
    --------------------------------------------
      LOOP:  cpu time    3.2242: real time    3.2502

 eigenvalue-minimisations  :  7256
 total energy-change (2. order) : 0.3063547E-02  (-0.1906158E-01)
 number of electron      39.0000000 magnetization
 augmentation part        8.2573979 magnetization

 Broyden mixing:
  rms(total) = 0.53626E-01    rms(broyden)= 0.53626E-01
  rms(prec ) = 0.14717E+00
  weight for this iteration     100.00

 eigenvalues of (default mixing * dielectric matrix)
  average eigenvalue GAMMA=   1.2289
  2.5322  2.5322  0.9346  0.9346  0.5139  0.5139  0.6406

 Free energy of the ion-electron system (eV)
  ---------------------------------------------------
  alpha Z        PSCENC =       185.61306996
  Ewald energy   TEWEN  =     -3419.86203582
  -Hartree energ DENC   =      -850.74707601
  -exchange      EXHF   =         0.00000000
  -V(xc)+E(xc)   XCENC  =        88.40818485
  PAW double counting   =      3916.03717083    -3847.21484234
  entropy T*S    EENTRO =        -0.00232766
  eigenvalues    EBANDS =      -190.83351353
  atomic energy  EATOM  =      4095.35208632
  Solvation  Ediel_sol  =         0.00000000
  ---------------------------------------------------
  free energy    TOTEN  =       -23.24928341 eV

  energy without entropy =      -23.24695575  energy(sigma->0) =      -23.24811958


--------------------------------------------------------------------------------------------------------




--------------------------------------- Iteration      1(  13)  ---------------------------------------


    POTLOK:  cpu time    0.0457: real time    0.0805
    SETDIJ:  cpu time    0.1267: real time    0.1268
     EDDAV:  cpu time    2.3889: real time    2.3893
       DOS:  cpu time    0.0032: real time    0.0035
    CHARGE:  cpu time    0.4131: real time    0.4133
    MIXING:  cpu time    0.0109: real time    0.0115
    --------------------------------------------
      LOOP:  cpu time    2.9886: real time    3.0262

 eigenvalue-minimisations  :  6392
 total energy-change (2. order) :-0.4924961E-02  (-0.1627282E-02)
 number of electron      39.0000000 magnetization
 augmentation part        8.2816198 magnetization

 Broyden mixing:
  rms(total) = 0.78694E-01    rms(broyden)= 0.78694E-01
  rms(prec ) = 0.24268E+00
  weight for this iteration     100.00

 eigenvalues of (default mixing * dielectric matrix)
  average eigenvalue GAMMA=   1.2058
  2.5855  2.0554  1.5591  0.5147  0.5147  0.8905  0.8905  0.6358

 Free energy of the ion-electron system (eV)
  ---------------------------------------------------
  alpha Z        PSCENC =       185.61306996
  Ewald energy   TEWEN  =     -3419.86203582
  -Hartree energ DENC   =      -850.95781207
  -exchange      EXHF   =         0.00000000
  -V(xc)+E(xc)   XCENC  =        88.40963353
  PAW double counting   =      3913.99458029    -3845.08843029
  entropy T*S    EENTRO =        -0.00238596
  eigenvalues    EBANDS =      -190.71291431
  atomic energy  EATOM  =      4095.35208632
  Solvation  Ediel_sol  =         0.00000000
  ---------------------------------------------------
  free energy    TOTEN  =       -23.25420837 eV

  energy without entropy =      -23.25182241  energy(sigma->0) =      -23.25301539


--------------------------------------------------------------------------------------------------------




--------------------------------------- Iteration      1(  14)  ---------------------------------------


    POTLOK:  cpu time    0.0469: real time    0.0815
    SETDIJ:  cpu time    0.1277: real time    0.1279
     EDDAV:  cpu time    2.2756: real time    2.2759
       DOS:  cpu time    0.0033: real time    0.0036
    CHARGE:  cpu time    0.4203: real time    0.4204
    MIXING:  cpu time    0.0059: real time    0.0060
    --------------------------------------------
      LOOP:  cpu time    2.8797: real time    2.9140

 eigenvalue-minimisations  :  6112
 total energy-change (2. order) : 0.6542786E-02  (-0.7608370E-02)
 number of electron      39.0000000 magnetization
 augmentation part        8.1978913 magnetization

 Broyden mixing:
  rms(total) = 0.14046E-01    rms(broyden)= 0.14046E-01
  rms(prec ) = 0.43479E-01
  weight for this iteration     100.00

 eigenvalues of (default mixing * dielectric matrix)
  average eigenvalue GAMMA=   1.1802
  2.4069  2.4069  1.2479  1.2479  0.5147  0.5147  0.6306  0.8260  0.8260

 Free energy of the ion-electron system (eV)
  ---------------------------------------------------
  alpha Z        PSCENC =       185.61306996
  Ewald energy   TEWEN  =     -3419.86203582
  -Hartree energ DENC   =      -851.58106872
  -exchange      EXHF   =         0.00000000
  -V(xc)+E(xc)   XCENC  =        88.43386222
  PAW double counting   =      3920.13264595    -3851.12133151
  entropy T*S    EENTRO =        -0.00224674
  eigenvalues    EBANDS =      -190.21264723
  atomic energy  EATOM  =      4095.35208632
  Solvation  Ediel_sol  =         0.00000000
  ---------------------------------------------------
  free energy    TOTEN  =       -23.24766558 eV

  energy without entropy =      -23.24541884  energy(sigma->0) =      -23.24654221


--------------------------------------------------------------------------------------------------------




--------------------------------------- Iteration      1(  15)  ---------------------------------------


    POTLOK:  cpu time    0.0471: real time    0.0793
    SETDIJ:  cpu time    0.1294: real time    0.1295
     EDDAV:  cpu time    2.5221: real time    2.5226
       DOS:  cpu time    0.0033: real time    0.0036
    CHARGE:  cpu time    0.4196: real time    0.4198
    MIXING:  cpu time    0.0063: real time    0.0065
    --------------------------------------------
      LOOP:  cpu time    3.1278: real time    3.1624

 eigenvalue-minimisations  :  7016
 total energy-change (2. order) :-0.1208313E-03  (-0.5736304E-03)
 number of electron      39.0000000 magnetization
 augmentation part        8.2100448 magnetization

 Broyden mixing:
  rms(total) = 0.38682E-02    rms(broyden)= 0.38682E-02
  rms(prec ) = 0.88114E-02
  weight for this iteration     100.00

 eigenvalues of (default mixing * dielectric matrix)
  average eigenvalue GAMMA=   1.1648
  2.9087  2.0623  1.2831  1.2831  0.5147  0.5147  0.9463  0.9463  0.6367  0.5516

 Free energy of the ion-electron system (eV)
  ---------------------------------------------------
  alpha Z        PSCENC =       185.61306996
  Ewald energy   TEWEN  =     -3419.86203582
  -Hartree energ DENC   =      -851.49618000
  -exchange      EXHF   =         0.00000000
  -V(xc)+E(xc)   XCENC  =        88.43043734
  PAW double counting   =      3919.21929801    -3850.19074160
  entropy T*S    EENTRO =        -0.00231119
  eigenvalues    EBANDS =      -190.31140944
  atomic energy  EATOM  =      4095.35208632
  Solvation  Ediel_sol  =         0.00000000
  ---------------------------------------------------
  free energy    TOTEN  =       -23.24778641 eV

  energy without entropy =      -23.24547523  energy(sigma->0) =      -23.24663082


--------------------------------------------------------------------------------------------------------




--------------------------------------- Iteration      1(  16)  ---------------------------------------


    POTLOK:  cpu time    0.0540: real time    0.0825
    SETDIJ:  cpu time    0.1285: real time    0.1286
     EDDAV:  cpu time    2.2378: real time    2.2382
       DOS:  cpu time    0.0033: real time    0.0035
    CHARGE:  cpu time    0.4190: real time    0.4191
    MIXING:  cpu time    0.0066: real time    0.0067
    --------------------------------------------
      LOOP:  cpu time    2.8493: real time    2.8788

 eigenvalue-minimisations  :  5832
 total energy-change (2. order) :-0.5909421E-04  (-0.6402140E-04)
 number of electron      39.0000000 magnetization
 augmentation part        8.2107639 magnetization

 Broyden mixing:
  rms(total) = 0.25982E-02    rms(broyden)= 0.25982E-02
  rms(prec ) = 0.51384E-02
  weight for this iteration     100.00

 eigenvalues of (default mixing * dielectric matrix)
  average eigenvalue GAMMA=   1.1889
  2.7889  2.0981  1.4373  1.4373  0.5147  0.5147  1.0700  1.0700  0.6325  0.7574
  0.7574

 Free energy of the ion-electron system (eV)
  ---------------------------------------------------
  alpha Z        PSCENC =       185.61306996
  Ewald energy   TEWEN  =     -3419.86203582
  -Hartree energ DENC   =      -851.49657605
  -exchange      EXHF   =         0.00000000
  -V(xc)+E(xc)   XCENC  =        88.43063705
  PAW double counting   =      3919.47616977    -3850.44895444
  entropy T*S    EENTRO =        -0.00230350
  eigenvalues    EBANDS =      -190.30993880
  atomic energy  EATOM  =      4095.35208632
  Solvation  Ediel_sol  =         0.00000000
  ---------------------------------------------------
  free energy    TOTEN  =       -23.24784551 eV

  energy without entropy =      -23.24554201  energy(sigma->0) =      -23.24669376


--------------------------------------------------------------------------------------------------------




--------------------------------------- Iteration      1(  17)  ---------------------------------------


    POTLOK:  cpu time    0.0585: real time    0.0822
    SETDIJ:  cpu time    0.1283: real time    0.1284
     EDDAV:  cpu time    2.5074: real time    2.5078
       DOS:  cpu time    0.0032: real time    0.0036
    CHARGE:  cpu time    0.4156: real time    0.4160
    MIXING:  cpu time    0.0088: real time    0.0089
    --------------------------------------------
      LOOP:  cpu time    3.1216: real time    3.1469

 eigenvalue-minimisations  :  6848
 total energy-change (2. order) :-0.8343713E-05  (-0.1350600E-04)
 number of electron      39.0000000 magnetization
 augmentation part        8.2115980 magnetization

 Broyden mixing:
  rms(total) = 0.48051E-03    rms(broyden)= 0.48048E-03
  rms(prec ) = 0.76839E-03
  weight for this iteration     100.00

 eigenvalues of (default mixing * dielectric matrix)
  average eigenvalue GAMMA=   1.2495
  2.5337  2.5337  2.0479  1.4280  1.4280  0.5147  0.5147  0.6309  0.9227  0.8331
  0.8331  0.7732

 Free energy of the ion-electron system (eV)
  ---------------------------------------------------
  alpha Z        PSCENC =       185.61306996
  Ewald energy   TEWEN  =     -3419.86203582
  -Hartree energ DENC   =      -851.45751010
  -exchange      EXHF   =         0.00000000
  -V(xc)+E(xc)   XCENC  =        88.42993446
  PAW double counting   =      3919.45123846    -3850.43826987
  entropy T*S    EENTRO =        -0.00230920
  eigenvalues    EBANDS =      -190.33405807
  atomic energy  EATOM  =      4095.35208632
  Solvation  Ediel_sol  =         0.00000000
  ---------------------------------------------------
  free energy    TOTEN  =       -23.24785385 eV

  energy without entropy =      -23.24554465  energy(sigma->0) =      -23.24669925


--------------------------------------------------------------------------------------------------------




--------------------------------------- Iteration      1(  18)  ---------------------------------------


    POTLOK:  cpu time    0.0571: real time    0.0791
    SETDIJ:  cpu time    0.1300: real time    0.1301
     EDDAV:  cpu time    2.5613: real time    2.5620
       DOS:  cpu time    0.0032: real time    0.0034
    CHARGE:  cpu time    0.4196: real time    0.4198
    MIXING:  cpu time    0.0067: real time    0.0071
    --------------------------------------------
      LOOP:  cpu time    3.1778: real time    3.2023

 eigenvalue-minimisations  :  7016
 total energy-change (2. order) :-0.6250038E-06  (-0.8057432E-06)
 number of electron      39.0000000 magnetization
 augmentation part        8.2117691 magnetization

 Broyden mixing:
  rms(total) = 0.51171E-03    rms(broyden)= 0.51168E-03
  rms(prec ) = 0.12548E-02
  weight for this iteration     100.00

 eigenvalues of (default mixing * dielectric matrix)
  average eigenvalue GAMMA=   1.3159
  2.7546  2.7546  1.6749  1.6749  1.8288  0.5147  0.5147  1.1601  1.1601  0.6319
  0.8703  0.7837  0.7837

 Free energy of the ion-electron system (eV)
  ---------------------------------------------------
  alpha Z        PSCENC =       185.61306996
  Ewald energy   TEWEN  =     -3419.86203582
  -Hartree energ DENC   =      -851.44622556
  -exchange      EXHF   =         0.00000000
  -V(xc)+E(xc)   XCENC  =        88.42971523
  PAW double counting   =      3919.63860594    -3850.62748028
  entropy T*S    EENTRO =        -0.00230884
  eigenvalues    EBANDS =      -190.34328142
  atomic energy  EATOM  =      4095.35208632
  Solvation  Ediel_sol  =         0.00000000
  ---------------------------------------------------
  free energy    TOTEN  =       -23.24785448 eV

  energy without entropy =      -23.24554564  energy(sigma->0) =      -23.24670006


--------------------------------------------------------------------------------------------------------




[...]
  212              fftbas_plan_mpi                       0.100282                     12   6
  213                dfftw_execute                         0.040253                   36   7
  214                map_backward                          0.006225                   12   7
  215                  map_gather                            0.001564                  6   8
  216                  m_alltoallv_z                         0.002149                  6   8
  217                  map_scatter                           0.002222                  6   8
  218                map_forward                           0.050469                   12   7
  219                  map_gather                            0.028838                  6   8
  220                  m_alltoallv_z                         0.008883                  6   8
  221                  map_scatter                           0.012436                  6   8
  222            M_sumb_d                              0.008263                        6   5
  223          M_sumb_d                              0.000021                          1   4
  224        setdij_                               2.143843                           20   3
  225          fft3d_mpi                             0.357892                         40   4
  226            fftbas_plan_mpi                       0.328845                       40   5
  227              dfftw_execute                         0.137209                    120   6
  228              map_backward                          0.021387                     40   6
  229                map_gather                            0.005504                   20   7
  230                m_alltoallv_z                         0.007653                   20   7
  231                map_scatter                           0.007187                   20   7
  232              map_forward                           0.159309                     40   6
  233                map_gather                            0.087175                   20   7
  234                m_alltoallv_z                         0.029053                   20   7
  235                map_scatter                           0.042059                   20   7
  236          M_sumb_d                              0.015874                         20   4
  237        set_dd_magatom                        0.000003                            1   3
  238        set_dd_paw                            0.019003                            1   3
  239          set_rsgf_all                          0.000004                          1   4
  240          M_sumb_d                              0.018696                          8   4
  241        strkin                                0.002829                            1   3
  242          M_sumb_d                              0.000273                          1   4
  243        strelo                                0.004220                            1   3
  244          M_sumb_d                              0.000275                          2   4
  245        strenl                                1.246270                            1   3
  246          spher                                 0.933249                         19   4
  247          phase                                 0.014577                        189   4
  248          proj1                                 0.267897                       1134   4
  249            crexp_mul_wave                        0.034798                     3402   5
  250            M_sumb_d                              0.072010                     1134   5
  251          M_sumb_d                              0.007175                          1   4
  252        M_sumb_d                              0.000230                            6   3
  253        fft3d_mpi                             0.022466                           11   3
  254          fftbas_plan_mpi                       0.020713                         11   4
  255            dfftw_execute                         0.007678                       33   5
  256            map_forward                           0.004492                       10   5
  257              map_gather                            0.001426                      5   6
  258              m_alltoallv_z                         0.001660                      5   6
  259              map_scatter                           0.001156                      5   6
  260            map_backward                          0.005799                       12   5
  261              map_gather                            0.001545                      6   6
  262              m_alltoallv_z                         0.001860                      6   6
  263              map_scatter                           0.002089                      6   6
  264        ggaall_grid                           0.002606                            1   3
  265        forhar                                0.010540                            2   3
  266          M_sumb_d                              0.000404                          2   4
  267        strehar                               0.004080                            1   3
  268          M_sumb_d                              0.000054                          1   4
  269        chggra                                0.009479                            1   3
  270          fft3d_mpi                             0.005885                          3   4
  271            fftbas_plan_mpi                       0.005411                        3   5
  272              dfftw_execute                         0.002086                      9   6
  273              map_backward                          0.000983                      2   6
  274                map_gather                            0.000254                    1   7
  275                m_alltoallv_z                         0.000309                    1   7
  276                map_scatter                           0.000363                    1   7
  277              map_forward                           0.001592                      4   6
  278                map_gather                            0.000524                    2   7
  279                m_alltoallv_z                         0.000567                    2   7
  280                map_scatter                           0.000400                    2   7
  281          M_sumb_d                              0.000130                          3   4
  282        brmix                                 0.013522                            1   3
  283          M_sumb_d                              0.000300                          6   4
  284          brpre                                 0.000046                          1   4
  285          setg0                                 0.002347                          1   4
  286          broyd                                 0.003218                          1   4
  287            M_sumb_d                              0.000819                       23   5
  288            brget                                 0.000447                       89   5
  289            brsav                                 0.000102                       21   5
  290          M_bcast_z                             0.005952                          1   4
  291          M_bcast_d                             0.000042                          1   4
  292        M_bcast_d                             0.000475                            2   3
  293      potlok                                0.039567                              1   2
  294        fft3d_mpi                             0.025823                           13   3
  295          fftbas_plan_mpi                       0.023653                         13   4
  296            dfftw_execute                         0.008545                       39   5
  297            map_forward                           0.005677                       14   5
  298              map_gather                            0.001819                      8   6
  299              m_alltoallv_z                         0.002067                      8   6
  300              map_scatter                           0.001428                      8   6
  301            map_backward                          0.006227                       12   5
  302              map_gather                            0.001607                      6   6
  303              m_alltoallv_z                         0.001999                      6   6
  304              map_scatter                           0.002310                      6   6
  305        ggaall_grid                           0.002636                            1   3
  306        M_sumb_d                              0.000339                            6   3
  307        M_bcast_d                             0.000125                            1   3
  308      potlok_metagga                        0.000004                              1   2
  309      set_dd_magatom                        0.000004                              1   2
  310      set_dd_paw                            0.000463                              1   2
  311        set_rsgf_all                          0.000003                            1   3
  312        M_sumb_d                              0.000254                            8   3
  313      densta                                0.002684                              1   2
  314        M_sumb_d                              0.000974                           45   3
  315      lprj_proall                           0.000007                              1   2

 Flat profile
 ============

             routine name                   CPU           calls
 ---------------------------------------------------------------
 total_time                             15.174148           1
 dfftw_execute                          10.378674       69666
 eddav                                   7.589411          21
 fftbas_plan_mpi                         4.975246       23224
 setdij_                                 4.244463          45
 set_charge                              4.206253          17
 M_sumb_d                                3.799154       62945
 m_alltoallv_z                           2.921061       23257
 pdssyex_zheevx                          1.954229         441
 vhamil                                  1.776204       10426
 M_alltoall_d                            1.679453       76258
 elmin                                   1.522026           1
 fftwav_mpi                              1.482508       12423
 map_forward                             1.455145       25204
 proj1                                   1.427886        9040
 gemm                                    1.364465       31278
 orth1                                   1.335481       15660
 map_gather                              1.214407       23257
 map_scatter                             1.169220       23257
 spher                                   1.079309          20
 vnlac0                                  0.712707       10426
 redis_pw                                0.663769       29556
 hamiltmu                                0.591793        5213
 M_bcast_z                               0.585584        7774
 redis_proj                              0.569992       37357
 w1_copy                                 0.488513       31278
 fft3d_mpi                               0.428037       23222
 eccp                                    0.401232        2646
 map_backward                            0.385123       21240
 work_mul_crexp                          0.380003       31278
 fftext_mpi                              0.364847       10426
 crexp_mul_wave                          0.300110       27120
 pw_charge                               0.288508        1997
 crpa_reader                             0.260322           1
 kinhamil                                0.218340       10426
 overl                                   0.204223       18227
 potlok                                  0.187623          18
 M_bcast_d                               0.171282        5255
 overl1                                  0.128717       10426
 apply_precond                           0.114364        7780
 setup_precond                           0.096562        2646
 lincom                                  0.086189         462
 w1_projall                              0.085791        3890
 brmix                                   0.065761          17
 soft_charge                             0.060595          17
 fornl                                   0.054074           1
 force_and_stress                        0.053019           1
 phase                                   0.050797         673
 ggaall_grid                             0.050103          19
 truncate_high_frequency_w1              0.044667       13072
 densta                                  0.036489          22
 setg0                                   0.033708          18
 strenl                                  0.023372           1
 broyd                                   0.016463          17
 forhar                                  0.010136           2
 depsum                                  0.007270          17
 forloc                                  0.004808           1
 brget                                   0.004083         827
 strehar                                 0.004026           1
 strelo                                  0.003945           1
 set_dd_paw                              0.003684          19
 chggra                                  0.003464           1
 strkin                                  0.002556           1
 orthch                                  0.002339           1
 choleski                                0.001772          21
 proj                                    0.001711          21
 brsav                                   0.001482         224
 brgrid                                  0.001414           1
 brpre                                   0.001161          17
 fordep                                  0.000111           1
 vectorpot                               0.000097          18
 set_rsgf_all                            0.000082          19
 potlok_metagga                          0.000071          18
 set_dd_magatom                          0.000067          19
 set_kineden                             0.000059          16
 rotate_active_occupied_orbital          0.000015           1
 lprj_proall                             0.000007           1
 redis_pw_over_bands                     0.000003           1
 ---------------------------------------------------------------
  summed up times    79.0057830810547

 Accumulative profile
 ====================

             routine name                   CPU           calls
 ---------------------------------------------------------------
 total_time                             79.005783           1
 elmin                                  57.930710           1
 eddav                                  46.635603          21
 fft3d_mpi                              22.899985       23222
 fftbas_plan_mpi                        22.498876       23224
 hamiltmu                               15.295667        5213
 fftwav_mpi                             13.609092       12423
 dfftw_execute                          10.378674       69666
 kinhamil                                9.660642       10426
 fftext_mpi                              9.442302       10426
 set_charge                              7.139859          17
 setdij_                                 5.133555          45
 force_and_stress                        4.686797           1
 map_forward                             4.437675       25204
 M_sumb_d                                3.799154       62945
 vnlac0                                  3.138311       10426
 m_alltoallv_z                           2.921061       23257
 map_backward                            2.707281       21240
 soft_charge                             2.566775          17
 proj1                                   2.341056        9040
 w1_projall                              2.128572        3890
 pdssyex_zheevx                          1.954229         441
 vhamil                                  1.776204       10426
 M_alltoall_d                            1.679453       76258
 redis_pw                                1.637430       29556
 gemm                                    1.364465       31278
 orth1                                   1.335481       15660
 redis_proj                              1.275784       37357
 strenl                                  1.246270           1
 map_gather                              1.214407       23257
 map_scatter                             1.169220       23257
 spher                                   1.079309          20
 potlok                                  0.716200          18
 fordep                                  0.654151           1
 M_bcast_z                               0.585584        7774
 eccp                                    0.563998        2646
 w1_copy                                 0.488513       31278
 work_mul_crexp                          0.380003       31278
 crexp_mul_wave                          0.300110       27120
 pw_charge                               0.288508        1997
 crpa_reader                             0.260322           1
 set_dd_paw                              0.212531          19
 overl                                   0.204223       18227
 M_bcast_d                               0.171282        5255
 setup_precond                           0.159710        2646
 brmix                                   0.159099          17
 overl1                                  0.128717       10426
 apply_precond                           0.114364        7780
 lincom                                  0.086189         462
 fornl                                   0.070668           1
 densta                                  0.054467          22
 phase                                   0.050797         673
 ggaall_grid                             0.050103          19
 truncate_high_frequency_w1              0.044667       13072
 orthch                                  0.036426           1
 setg0                                   0.033708          18
 proj                                    0.032089          21
 broyd                                   0.031207          17
 depsum                                  0.012021          17
 forhar                                  0.010540           2
 chggra                                  0.009479           1
 forloc                                  0.007004           1
 strelo                                  0.004220           1
 brget                                   0.004083         827
 strehar                                 0.004080           1
 strkin                                  0.002829           1
 choleski                                0.001772          21
 brsav                                   0.001482         224
 brgrid                                  0.001414           1
 brpre                                   0.001161          17
 vectorpot                               0.000097          18
 set_rsgf_all                            0.000082          19
 potlok_metagga                          0.000071          18
 set_dd_magatom                          0.000067          19
 set_kineden                             0.000059          16
 rotate_active_occupied_orbital          0.000015           1
 lprj_proall                             0.000007           1
 redis_pw_over_bands                     0.000003           1
 ---------------------------------------------------------------

Profiling took   1.887444  2.202918  0.005994  0.004488 seconds
Profiling took   1.879729 seconds
