 ----------------------------------------------------
    OOO  PPPP  EEEEE N   N M   M PPPP
   O   O P   P E     NN  N MM MM P   P
   O   O PPPP  EEEEE N N N M M M PPPP   -- VERSION
   O   O P     E     N  NN M   M P
    OOO  P     EEEEE N   N M   M P
 ----------------------------------------------------
 running   64 mpi-ranks, with    1 threads/rank
 distrk:  each k-point on   16 cores,    4 groups
 distr:  one band on    4 cores,    4 groups
 using from now: INCAR
 vasp.6.0.8 29Jun18 (build Jun 13 2019 12:54:44) complex

 POSCAR found type information on POSCAR  U  Bi Pt
 POSCAR found :  3 types and       3 ions
 scaLAPACK will be used
 WARNING: PSMAXN for non-local potential too small

 -----------------------------------------------------------------------------
|                                                                             |
|  ADVICE TO THIS USER RUNNING 'VASP/VAMP'   (HEAR YOUR MASTER'S VOICE ...):  |
|                                                                             |
|      You enforced a specific xc-type in the INCAR file,                     |
|      a different type was found on the POTCAR file                          |
|          I HOPE YOU KNOW, WHAT YOU ARE  DOING                               |
|                                                                             |
 -----------------------------------------------------------------------------

 LDA part: xc-table for Pade appr. of Perdew
 POSCAR, INCAR and KPOINTS ok, starting setup
 FFT: planning ...
 WAVECAR not read
 entering main loop
       N       E                     dE             d eps       ncg     rms          rms(c)
 ELPA: falling back to scaLAPACK
 ELPA: falling back to scaLAPACK
 ELPA: falling back to scaLAPACK
 ELPA: falling back to scaLAPACK
DAV:   1     0.426005938603E+03    0.42601E+03   -0.22157E+04  4032   0.223E+03
DAV:   2     0.283556995364E+02   -0.39765E+03   -0.39063E+03  4672   0.491E+02
DAV:   3    -0.200176999073E+02   -0.48373E+02   -0.47326E+02  4944   0.174E+02
DAV:   4    -0.252396255546E+02   -0.52219E+01   -0.51935E+01  7800   0.445E+01
DAV:   5    -0.254415981560E+02   -0.20197E+00   -0.20169E+00  5584   0.738E+00    0.150E+01
DAV:   6    -0.366037501822E+02   -0.11162E+02   -0.26393E+02  6040   0.983E+01    0.222E+01
DAV:   7    -0.250987705906E+02    0.11505E+02   -0.27881E+01  5752   0.286E+01    0.128E+01
DAV:   8    -0.242013472699E+02    0.89742E+00   -0.48175E+01  6024   0.242E+01    0.980E+00
DAV:   9    -0.232423366398E+02    0.95901E+00   -0.97161E+00  6216   0.170E+01    0.224E+00
DAV:  10    -0.233614924808E+02   -0.11916E+00   -0.22599E+00  6136   0.592E+00    0.309E+00
DAV:  11    -0.232523469558E+02    0.10915E+00   -0.61301E-01  5984   0.331E+00    0.872E-01
DAV:  12    -0.232492834083E+02    0.30635E-02   -0.19062E-01  7256   0.159E+00    0.536E-01
DAV:  13    -0.232542083694E+02   -0.49250E-02   -0.16273E-02  6392   0.484E-01    0.787E-01
DAV:  14    -0.232476655834E+02    0.65428E-02   -0.76084E-02  6112   0.117E+00    0.140E-01
DAV:  15    -0.232477864147E+02   -0.12083E-03   -0.57363E-03  7016   0.297E-01    0.387E-02
DAV:  16    -0.232478455089E+02   -0.59094E-04   -0.64021E-04  5832   0.476E-02    0.260E-02
DAV:  17    -0.232478538526E+02   -0.83437E-05   -0.13506E-04  6848   0.244E-02    0.481E-03
DAV:  18    -0.232478544776E+02   -0.62500E-06   -0.80574E-06  7016   0.920E-03    0.512E-03
DAV:  19    -0.232478549638E+02   -0.48615E-06   -0.22577E-06  5056   0.437E-03    0.546E-03
DAV:  20    -0.232478546308E+02    0.33298E-06   -0.44876E-06  5992   0.896E-03    0.160E-03
DAV:  21    -0.232478546092E+02    0.21620E-07   -0.14546E-07  3624   0.208E-03
   1 F= -.23247855E+02 E0= -.23246700E+02  d E =-.230929E-02
