<?xml version="1.0" encoding="ISO-8859-1"?>
<modeling>
 <generator>
  <i name="program" type="string">vasp </i>
  <i name="version" type="string">6.0.8  </i>
  <i name="subversion" type="string">29Jun18 (build Jun 13 2019 12:54:44) complex                          parallel </i>
  <i name="platform" type="string">IFC18_CrayMPICH </i>
  <i name="date" type="string">2021 12 05 </i>
  <i name="time" type="string">14:21:48 </i>
 </generator>
 <incar>
  <i type="int" name="KPAR">     4</i>
  <i type="int" name="NPAR">     4</i>
  <i type="int" name="ISTART">     0</i>
  <i type="string" name="PREC"> ACC</i>
  <i type="string" name="ALGO"> Normal</i>
  <i type="logical" name="ADDGRID"> T  </i>
  <i type="int" name="ISPIN">     1</i>
  <i type="int" name="NELMIN">     5</i>
  <i type="int" name="IBRION">    -1</i>
  <i name="EDIFF">      0.00000010</i>
  <i type="int" name="NSW">     0</i>
  <i type="int" name="ISIF">     3</i>
  <i name="ENCUT">    700.00000000</i>
  <i type="logical" name="LREAL"> F  </i>
  <i type="int" name="ISMEAR">     0</i>
  <i name="SIGMA">      0.01000000</i>
  <i type="logical" name="LWAVE"> F  </i>
  <i type="logical" name="LCHARG"> F  </i>
  <i type="logical" name="LVTOT"> F  </i>
  <i type="string" name="ALGO"> Normal</i>
  <i type="string" name="GGA"> PS</i>
  <i name="EDIFF">      0.00000010</i>
  <i type="int" name="ISPIN">     1</i>
 </incar>
 <structure name="primitive_cell" >
  <crystal>
   <varray name="basis" >
    <v>       0.00000000       3.48590370       3.48590370 </v>
    <v>       3.48590370       0.00000000       3.48590370 </v>
    <v>       3.48590370       3.48590370       0.00000000 </v>
   </varray>
   <i name="volume">     84.71808950 </i>
   <varray name="rec_basis" >
    <v>      -0.14343483       0.14343483       0.14343483 </v>
    <v>       0.14343483      -0.14343483       0.14343483 </v>
    <v>       0.14343483       0.14343483      -0.14343483 </v>
   </varray>
  </crystal>
  <varray name="positions" >
   <v>       0.25000000       0.25000000       0.25000000 </v>
   <v>       0.75000000       0.75000000       0.75000000 </v>
   <v>       0.00000000       0.00000000       0.00000000 </v>
  </varray>
 </structure>
 <varray name="primitive_index" >
  <v type="int" >        1 </v>
  <v type="int" >        2 </v>
  <v type="int" >        3 </v>
 </varray>
 <kpoints>
  <generation param="Gamma">
   <v type="int" name="divisions">      13       13       13 </v>
   <v name="usershift">      0.00000000       0.00000000       0.00000000 </v>
   <v name="genvec1">      0.07692308       0.00000000      -0.00000000 </v>
   <v name="genvec2">      0.00000000       0.07692308       0.00000000 </v>
   <v name="genvec3">     -0.00000000      -0.00000000       0.07692308 </v>
   <v name="shift">      0.00000000       0.00000000       0.00000000 </v>
  </generation>
  <varray name="kpointlist" >
   <v>       0.00000000       0.00000000       0.00000000 </v>
   <v>       0.07692308      -0.00000000      -0.00000000 </v>
   <v>       0.15384615      -0.00000000       0.00000000 </v>
   <v>       0.23076923      -0.00000000       0.00000000 </v>
   <v>       0.30769231      -0.00000000       0.00000000 </v>
   <v>       0.38461538      -0.00000000       0.00000000 </v>
   <v>       0.46153846       0.00000000      -0.00000000 </v>
   <v>       0.07692308       0.07692308      -0.00000000 </v>
   <v>       0.15384615       0.07692308      -0.00000000 </v>
   <v>       0.23076923       0.07692308       0.00000000 </v>
   <v>       0.30769231       0.07692308      -0.00000000 </v>
   <v>       0.38461538       0.07692308       0.00000000 </v>
   <v>       0.46153846       0.07692308      -0.00000000 </v>
   <v>      -0.46153846       0.07692308      -0.00000000 </v>
   <v>      -0.38461538       0.07692308       0.00000000 </v>
   <v>      -0.30769231       0.07692308      -0.00000000 </v>
   <v>      -0.23076923       0.07692308      -0.00000000 </v>
   <v>      -0.15384615       0.07692308      -0.00000000 </v>
   <v>      -0.07692308       0.07692308      -0.00000000 </v>
   <v>       0.15384615       0.15384615      -0.00000000 </v>
   <v>       0.23076923       0.15384615      -0.00000000 </v>
   <v>       0.30769231       0.15384615      -0.00000000 </v>
   <v>       0.38461538       0.15384615      -0.00000000 </v>
   <v>       0.46153846       0.15384615      -0.00000000 </v>
   <v>      -0.46153846       0.15384615      -0.00000000 </v>
   <v>      -0.38461538       0.15384615      -0.00000000 </v>
   <v>      -0.30769231       0.15384615       0.00000000 </v>
   <v>      -0.23076923       0.15384615      -0.00000000 </v>
   <v>      -0.15384615       0.15384615      -0.00000000 </v>
   <v>       0.23076923       0.23076923      -0.00000000 </v>
   <v>       0.30769231       0.23076923      -0.00000000 </v>
   <v>       0.38461538       0.23076923      -0.00000000 </v>
   <v>       0.46153846       0.23076923      -0.00000000 </v>
   <v>      -0.46153846       0.23076923       0.00000000 </v>
   <v>      -0.38461538       0.23076923       0.00000000 </v>
   <v>      -0.30769231       0.23076923      -0.00000000 </v>
   <v>      -0.23076923       0.23076923      -0.00000000 </v>
   <v>       0.30769231       0.30769231      -0.00000000 </v>
   <v>       0.38461538       0.30769231      -0.00000000 </v>
   <v>       0.46153846       0.30769231      -0.00000000 </v>
   <v>      -0.46153846       0.30769231       0.00000000 </v>
   <v>      -0.38461538       0.30769231       0.00000000 </v>
   <v>      -0.30769231       0.30769231      -0.00000000 </v>
   <v>       0.38461538       0.38461538      -0.00000000 </v>
   <v>       0.46153846       0.38461538      -0.00000000 </v>
   <v>      -0.46153846       0.38461538       0.00000000 </v>
   <v>      -0.38461538       0.38461538      -0.00000000 </v>
   <v>       0.46153846       0.46153846      -0.00000000 </v>
   <v>      -0.46153846       0.46153846       0.00000000 </v>
   <v>       0.23076923       0.15384615       0.07692308 </v>
   <v>       0.30769231       0.15384615       0.07692308 </v>
   <v>       0.38461538       0.15384615       0.07692308 </v>
   <v>       0.46153846       0.15384615       0.07692308 </v>
   <v>      -0.46153846       0.15384615       0.07692308 </v>
   <v>       0.30769231       0.23076923       0.07692308 </v>
   <v>       0.38461538       0.23076923       0.07692308 </v>
   <v>       0.46153846       0.23076923       0.07692308 </v>
   <v>      -0.46153846       0.23076923       0.07692308 </v>
   <v>      -0.38461538       0.23076923       0.07692308 </v>
   <v>      -0.30769231       0.23076923       0.07692308 </v>
   <v>      -0.23076923       0.23076923       0.07692308 </v>
   <v>      -0.15384615       0.23076923       0.07692308 </v>
   <v>       0.38461538       0.30769231       0.07692308 </v>
   <v>       0.46153846       0.30769231       0.07692308 </v>
   <v>      -0.46153846       0.30769231       0.07692308 </v>
   <v>      -0.38461538       0.30769231       0.07692308 </v>
   <v>      -0.30769231       0.30769231       0.07692308 </v>
   <v>      -0.23076923       0.30769231       0.07692308 </v>
   <v>       0.46153846       0.38461538       0.07692308 </v>
   <v>      -0.46153846       0.38461538       0.07692308 </v>
   <v>      -0.38461538       0.38461538       0.07692308 </v>
   <v>      -0.30769231       0.38461538       0.07692308 </v>
   <v>      -0.46153846       0.46153846       0.07692308 </v>
   <v>      -0.38461538       0.46153846       0.07692308 </v>
   <v>       0.46153846       0.30769231       0.15384615 </v>
   <v>      -0.46153846       0.30769231       0.15384615 </v>
   <v>      -0.38461538       0.30769231       0.15384615 </v>
   <v>      -0.46153846       0.38461538       0.15384615 </v>
   <v>      -0.38461538       0.38461538       0.15384615 </v>
   <v>      -0.30769231       0.38461538       0.15384615 </v>
   <v>      -0.23076923       0.38461538       0.15384615 </v>
   <v>      -0.38461538       0.46153846       0.15384615 </v>
   <v>      -0.30769231       0.46153846       0.15384615 </v>
   <v>      -0.30769231       0.46153846       0.23076923 </v>
  </varray>
  <varray name="weights" >
   <v>       0.00045517 </v>
   <v>       0.00364133 </v>
   <v>       0.00364133 </v>
   <v>       0.00364133 </v>
   <v>       0.00364133 </v>
   <v>       0.00364133 </v>
   <v>       0.00364133 </v>
   <v>       0.00273100 </v>
   <v>       0.01092399 </v>
   <v>       0.01092399 </v>
   <v>       0.01092399 </v>
   <v>       0.01092399 </v>
   <v>       0.01092399 </v>
   <v>       0.01092399 </v>
   <v>       0.01092399 </v>
   <v>       0.01092399 </v>
   <v>       0.01092399 </v>
   <v>       0.01092399 </v>
   <v>       0.00546199 </v>
   <v>       0.00273100 </v>
   <v>       0.01092399 </v>
   <v>       0.01092399 </v>
   <v>       0.01092399 </v>
   <v>       0.01092399 </v>
   <v>       0.01092399 </v>
   <v>       0.01092399 </v>
   <v>       0.01092399 </v>
   <v>       0.01092399 </v>
   <v>       0.00546199 </v>
   <v>       0.00273100 </v>
   <v>       0.01092399 </v>
   <v>       0.01092399 </v>
   <v>       0.01092399 </v>
   <v>       0.01092399 </v>
   <v>       0.01092399 </v>
   <v>       0.01092399 </v>
   <v>       0.00546199 </v>
   <v>       0.00273100 </v>
   <v>       0.01092399 </v>
   <v>       0.01092399 </v>
   <v>       0.01092399 </v>
   <v>       0.01092399 </v>
   <v>       0.00546199 </v>
   <v>       0.00273100 </v>
   <v>       0.01092399 </v>
   <v>       0.01092399 </v>
   <v>       0.00546199 </v>
   <v>       0.00273100 </v>
   <v>       0.00546199 </v>
   <v>       0.01092399 </v>
   <v>       0.02184797 </v>
   <v>       0.02184797 </v>
   <v>       0.02184797 </v>
   <v>       0.02184797 </v>
   <v>       0.01092399 </v>
   <v>       0.02184797 </v>
   <v>       0.02184797 </v>
   <v>       0.02184797 </v>
   <v>       0.02184797 </v>
   <v>       0.02184797 </v>
   <v>       0.02184797 </v>
   <v>       0.01092399 </v>
   <v>       0.01092399 </v>
   <v>       0.02184797 </v>
   <v>       0.02184797 </v>
   <v>       0.02184797 </v>
   <v>       0.02184797 </v>
   <v>       0.01092399 </v>
   <v>       0.01092399 </v>
   <v>       0.02184797 </v>
   <v>       0.02184797 </v>
   <v>       0.01092399 </v>
   <v>       0.01092399 </v>
   <v>       0.01092399 </v>
   <v>       0.01092399 </v>
   <v>       0.02184797 </v>
   <v>       0.02184797 </v>
   <v>       0.01092399 </v>
   <v>       0.02184797 </v>
   <v>       0.02184797 </v>
   <v>       0.01092399 </v>
   <v>       0.01092399 </v>
   <v>       0.01092399 </v>
   <v>       0.01092399 </v>
  </varray>
 </kpoints>
 <parameters>
  <separator name="general" >
   <i type="string" name="SYSTEM">unknown system</i>
   <i type="logical" name="LCOMPAT"> F  </i>
  </separator>
  <separator name="electronic" >
   <i type="string" name="PREC">acc</i>
   <i name="ENMAX">    700.00000000</i>
   <i name="ENAUG">    526.41000000</i>
   <i name="EDIFF">      0.00000010</i>
   <i type="int" name="IALGO">    38</i>
   <i type="int" name="IWAVPR">    10</i>
   <i type="int" name="NBANDS">    24</i>
   <i type="int" name="NBANDSLOW">    -1</i>
   <i type="int" name="NBANDSHIGH">    -1</i>
   <i name="NELECT">     39.00000000</i>
   <i type="int" name="TURBO">     0</i>
   <i type="int" name="IRESTART">     0</i>
   <i type="int" name="NREBOOT">     0</i>
   <i type="int" name="NMIN">     0</i>
   <i name="EREF">      0.00000000</i>
   <separator name="electronic smearing" >
    <i type="int" name="ISMEAR">     0</i>
    <i name="SIGMA">      0.01000000</i>
    <i name="KSPACING">      0.50000000</i>
    <i type="logical" name="KGAMMA"> T  </i>
    <i type="logical" name="KBLOWUP"> T  </i>
   </separator>
   <separator name="electronic projectors" >
    <i type="logical" name="LREAL"> F  </i>
    <v name="ROPT">      0.00000000      0.00000000      0.00000000</v>
    <i type="int" name="LMAXPAW">  -100</i>
    <i type="int" name="LMAXMIX">     2</i>
    <i type="logical" name="NLSPLINE"> F  </i>
   </separator>
   <separator name="electronic startup" >
    <i type="int" name="ISTART">     0</i>
    <i type="int" name="ICHARG">     2</i>
    <i type="int" name="INIWAV">     1</i>
   </separator>
   <separator name="electronic spin" >
    <i type="int" name="ISPIN">     1</i>
    <i type="logical" name="LNONCOLLINEAR"> F  </i>
    <v name="MAGMOM">      1.00000000      1.00000000      1.00000000</v>
    <i name="NUPDOWN">     -1.00000000</i>
    <i type="logical" name="LSORBIT"> F  </i>
    <v name="SAXIS">      0.00000000      0.00000000      1.00000000</v>
    <i type="logical" name="LSPIRAL"> F  </i>
    <v name="QSPIRAL">      0.00000000      0.00000000      0.00000000</v>
    <i type="logical" name="LZEROZ"> F  </i>
   </separator>
   <separator name="electronic exchange-correlation" >
    <i type="logical" name="LASPH"> F  </i>
    <i type="logical" name="LMETAGGA"> F  </i>
   </separator>
   <separator name="electronic convergence" >
    <i type="int" name="NELM">    60</i>
    <i type="int" name="NELMDL">    -5</i>
    <i type="int" name="NELMIN">     5</i>
    <i name="ENINI">    700.00000000</i>
    <separator name="electronic convergence detail" >
     <i type="logical" name="LDIAG"> T  </i>
     <i type="logical" name="LSUBROT"> F  </i>
     <i name="WEIMIN">      0.00000000</i>
     <i name="EBREAK">      0.00000000</i>
     <i name="DEPER">      0.30000000</i>
     <i type="int" name="NRMM">     4</i>
     <i name="TIME">      0.40000000</i>
    </separator>
   </separator>
   <separator name="electronic mixer" >
    <i name="AMIX">      0.40000000</i>
    <i name="BMIX">      1.00000000</i>
    <i name="AMIN">      0.10000000</i>
    <i name="AMIX_MAG">      1.60000000</i>
    <i name="BMIX_MAG">      1.00000000</i>
    <separator name="electronic mixer details" >
     <i type="int" name="IMIX">     4</i>
     <i type="logical" name="MIXFIRST"> F  </i>
     <i type="int" name="MAXMIX">   -45</i>
     <i name="WC">    100.00000000</i>
     <i type="int" name="INIMIX">     1</i>
     <i type="int" name="MIXPRE">     1</i>
     <i type="int" name="MREMOVE">     5</i>
    </separator>
   </separator>
   <separator name="electronic dipolcorrection" >
    <i type="logical" name="LDIPOL"> F  </i>
    <i type="logical" name="LMONO"> F  </i>
    <i type="int" name="IDIPOL">     0</i>
    <i name="EPSILON">      1.00000000</i>
    <v name="DIPOL">   -100.00000000   -100.00000000   -100.00000000</v>
    <i name="EFIELD">      0.00000000</i>
   </separator>
  </separator>
  <separator name="grids" >
   <i type="int" name="NGX">    48</i>
   <i type="int" name="NGY">    48</i>
   <i type="int" name="NGZ">    48</i>
   <i type="int" name="NGXF">    96</i>
   <i type="int" name="NGYF">    96</i>
   <i type="int" name="NGZF">    96</i>
   <i type="logical" name="ADDGRID"> T  </i>
  </separator>
  <separator name="ionic" >
   <i type="int" name="NSW">     0</i>
   <i type="int" name="IBRION">    -1</i>
   <i type="int" name="MDALGO">     0</i>
   <i type="int" name="ISIF">     3</i>
   <i name="PSTRESS">      0.00000000</i>
   <i name="EDIFFG">      0.00000100</i>
   <i type="int" name="NFREE">     0</i>
   <i name="POTIM">      0.50000000</i>
   <i name="SMASS">     -3.00000000</i>
   <i name="SCALEE">      1.00000000</i>
  </separator>
  <separator name="ionic md" >
   <i name="TEBEG">      0.00010000</i>
   <i name="TEEND">      0.00010000</i>
   <i type="int" name="NBLOCK">     1</i>
   <i type="int" name="KBLOCK">     1</i>
   <i type="int" name="NPACO">   256</i>
   <i name="APACO">     16.00000000</i>
  </separator>
  <separator name="symmetry" >
   <i type="int" name="ISYM">     2</i>
   <i name="SYMPREC">      0.00001000</i>
  </separator>
  <separator name="dos" >
   <i type="int" name="LORBIT">     0</i>
   <v name="RWIGS">     -1.00000000     -1.00000000     -1.00000000</v>
   <i type="int" name="NEDOS">   301</i>
   <i name="EMIN">     10.00000000</i>
   <i name="EMAX">    -10.00000000</i>
   <i name="EFERMI">      0.00000000</i>
  </separator>
  <separator name="writing" >
   <i type="int" name="NWRITE">     2</i>
   <i type="logical" name="LWAVE"> F  </i>
   <i type="logical" name="LDOWNSAMPLE"> F  </i>
   <i type="logical" name="LCHARG"> F  </i>
   <i type="logical" name="LPARD"> F  </i>
   <i type="logical" name="LVTOT"> F  </i>
   <i type="logical" name="LVHAR"> F  </i>
   <i type="logical" name="LELF"> F  </i>
   <i type="logical" name="LOPTICS"> F  </i>
   <v name="STM">      0.00000000      0.00000000      0.00000000      0.00000000      0.00000000      0.00000000      0.00000000</v>
  </separator>
  <separator name="performance" >
   <i type="int" name="NPAR">     4</i>
   <i type="int" name="NSIM">     4</i>
   <i type="int" name="NBLK">    -1</i>
   <i type="logical" name="LPLANE"> T  </i>
   <i type="logical" name="LSCALAPACK"> T  </i>
   <i type="logical" name="LSCAAWARE"> F  </i>
   <i type="logical" name="LSCALU"> F  </i>
   <i type="logical" name="LASYNC"> F  </i>
   <i type="logical" name="LORBITALREAL"> F  </i>
  </separator>
  <separator name="miscellaneous" >
   <i type="int" name="IDIOT">     3</i>
   <i type="int" name="PHON_NSTRUCT">    -1</i>
   <i type="logical" name="LMUSIC"> F  </i>
   <v name="POMASS">    238.02900000    208.98000000    195.08000000</v>
   <v name="DARWINR">      0.00000000      0.00000000      0.00000000</v>
   <v name="DARWINV">      1.00000000      1.00000000      1.00000000</v>
   <i type="logical" name="LCORR"> T  </i>
  </separator>
  <i type="logical" name="GGA_COMPAT"> T  </i>
  <i type="logical" name="LBERRY"> F  </i>
  <i type="int" name="ICORELEVEL">     0</i>
  <i type="logical" name="LDAU"> F  </i>
  <i type="int" name="I_CONSTRAINED_M">     0</i>
  <separator name="electronic exchange-correlation" >
   <i type="string" name="GGA">PS</i>
   <i type="int" name="VOSKOWN">     0</i>
   <i type="logical" name="LHFCALC"> F  </i>
   <i type="string" name="PRECFOCK"></i>
   <i type="logical" name="LSYMGRAD"> F  </i>
   <i type="logical" name="LHFONE"> F  </i>
   <i type="logical" name="LRHFCALC"> F  </i>
   <i type="logical" name="LTHOMAS"> F  </i>
   <i type="logical" name="LMODELHF"> F  </i>
   <i type="logical" name="LFOCKACE"> F  </i>
   <i name="ENCUT4O">     -1.00000000</i>
   <i type="int" name="EXXOEP">     0</i>
   <i type="int" name="FOURORBIT">     0</i>
   <i name="AEXX">      0.00000000</i>
   <i name="HFALPHA">      0.00000000</i>
   <i name="MCALPHA">      0.00000000</i>
   <i name="ALDAX">      1.00000000</i>
   <i name="AGGAX">      1.00000000</i>
   <i name="ALDAC">      1.00000000</i>
   <i name="AGGAC">      1.00000000</i>
   <i type="int" name="NKREDX">     1</i>
   <i type="int" name="NKREDY">     1</i>
   <i type="int" name="NKREDZ">     1</i>
   <i type="logical" name="SHIFTRED"> F  </i>
   <i type="logical" name="ODDONLY"> F  </i>
   <i type="logical" name="EVENONLY"> F  </i>
   <i type="int" name="LMAXFOCK">     0</i>
   <i type="int" name="NMAXFOCKAE">     0</i>
   <i type="logical" name="LFOCKAEDFT"> F  </i>
   <i name="HFSCREEN">      0.00000000</i>
   <i name="HFSCREENC">      0.00000000</i>
   <i type="int" name="NBANDSGWLOW">     0</i>
  </separator>
  <separator name="vdW DFT" >
   <i type="logical" name="LUSE_VDW"> F  </i>
   <i name="Zab_VDW">     -0.84910000</i>
   <i name="PARAM1">      0.12340000</i>
   <i name="PARAM2">      1.00000000</i>
   <i name="PARAM3">      0.00000000</i>
  </separator>
  <separator name="model GW" >
   <i type="int" name="MODEL_GW">     0</i>
   <i name="MODEL_EPS0">     16.94361790</i>
   <i name="MODEL_ALPHA">      1.00000000</i>
  </separator>
  <separator name="linear response parameters" >
   <i type="logical" name="LEPSILON"> F  </i>
   <i type="logical" name="LRPA"> F  </i>
   <i type="logical" name="LNABLA"> F  </i>
   <i type="logical" name="LVEL"> F  </i>
   <i type="int" name="KINTER">     0</i>
   <i name="CSHIFT">      0.10000000</i>
   <i name="OMEGAMAX">     -1.00000000</i>
   <i name="DEG_THRESHOLD">      0.00200000</i>
   <i name="RTIME">     -0.10000000</i>
   <i name="WPLASMAI">      0.00000000</i>
   <v name="DFIELD">      0.00000000      0.00000000      0.00000000</v>
   <v name="WPLASMA">      0.00000000      0.00000000      0.00000000      0.00000000      0.00000000      0.00000000      0.00000000      0.00000000      0.00000000</v>
  </separator>
  <separator name="orbital magnetization" >
   <i type="logical" name="NUCIND"> F  </i>
   <v name="MAGPOS">      0.00000000      0.00000000      0.00000000</v>
   <i type="logical" name="LNICSALL"> T  </i>
   <i type="logical" name="ORBITALMAG"> F  </i>
   <i type="logical" name="LMAGBLOCH"> F  </i>
   <i type="logical" name="LCHIMAG"> F  </i>
   <i type="logical" name="LGAUGE"> T  </i>
   <i type="int" name="MAGATOM">     0</i>
   <v name="MAGDIPOL">      0.00000000      0.00000000      0.00000000</v>
   <v name="AVECCONST">      0.00000000      0.00000000      0.00000000</v>
  </separator>
  <separator name="response functions" >
   <i type="logical" name="LFINITE_TEMPERATURE"> F  </i>
   <i type="logical" name="LADDER"> F  </i>
   <i type="logical" name="LRPAFORCE"> F  </i>
   <i type="logical" name="LFXC"> F  </i>
   <i type="logical" name="LHARTREE"> T  </i>
   <i type="int" name="IBSE">     0</i>
   <v type="int" name="KPOINT">    -1     0     0     0</v>
   <i type="logical" name="LTCTC"> F  </i>
   <i type="logical" name="LTCTE"> F  </i>
   <i type="logical" name="LTETE"> F  </i>
   <i type="logical" name="LTRIPLET"> F  </i>
   <i type="logical" name="LFXCEPS"> F  </i>
   <i type="logical" name="LFXHEG"> F  </i>
   <i type="int" name="NATURALO">     2</i>
   <i type="logical" name="L2ORDER"> F  </i>
   <i type="logical" name="LDMP1"> F  </i>
   <i type="logical" name="LMP2LT"> F  </i>
   <i type="logical" name="LSMP2LT"> F  </i>
   <i type="logical" name="LUSEW"> F  </i>
   <i name="ENCUTGW">     -2.00000000</i>
   <i name="ENCUTGWSOFT">     -2.00000000</i>
   <i name="ENCUTLF">     -1.00000000</i>
   <i type="int" name="LMAXMP2">    -1</i>
   <i name="SCISSOR">      0.00000000</i>
   <i type="int" name="NOMEGA">     0</i>
   <i type="int" name="NOMEGAR">     0</i>
   <i type="int" name="NBANDSGW">    -1</i>
   <i type="int" name="NBANDSO">    -1</i>
   <i type="int" name="NBANDSV">    -1</i>
   <i type="int" name="NELM">     1</i>
   <i type="int" name="NELMHF">     1</i>
   <i type="int" name="DIM">     3</i>
   <i type="int" name="IESPILON">     4</i>
   <i type="int" name="ANTIRES">     0</i>
   <i name="OMEGAMAX">    -30.00000000</i>
   <i name="OMEGAMIN">    -30.00000000</i>
   <i name="OMEGATL">   -200.00000000</i>
   <i type="int" name="OMEGAGRID">   145</i>
   <i name="CSHIFT">     -0.10000000</i>
   <i type="logical" name="LSELFENERGY"> F  </i>
   <i type="logical" name="LSPECTRAL"> F  </i>
   <i type="logical" name="LSPECTRALGW"> F  </i>
   <i type="logical" name="LSINGLES"> F  </i>
   <i type="logical" name="LFERMIGW"> F  </i>
   <i type="logical" name="ODDONLYGW"> F  </i>
   <i type="logical" name="EVENONLYGW"> F  </i>
   <i type="int" name="NKREDLFX">     1</i>
   <i type="int" name="NKREDLFY">     1</i>
   <i type="int" name="NKREDLFZ">     1</i>
   <i type="int" name="MAXMEM">  2800</i>
   <i type="int" name="TELESCOPE">     0</i>
   <i type="int" name="NTAUPAR">     1</i>
   <i type="int" name="NOMEGAPAR">    -1</i>
   <i name="LAMBDA">      1.00000000</i>
  </separator>
  <separator name="External order field" >
   <i name="OFIELD_KAPPA">      0.00000000</i>
   <v name="OFIELD_K">      0.00000000      0.00000000      0.00000000</v>
   <i name="OFIELD_Q6_NEAR">      0.00000000</i>
   <i name="OFIELD_Q6_FAR">      0.00000000</i>
   <i name="OFIELD_A">      0.00000000</i>
  </separator>
 </parameters>
 <atominfo>
  <atoms>       3 </atoms>
  <types>       3 </types>
  <array name="atoms" >
   <dimension dim="1">ion</dimension>
   <field type="string">element</field>
   <field type="int">atomtype</field>
   <set>
    <rc><c>U </c><c>   1</c></rc>
    <rc><c>Bi</c><c>   2</c></rc>
    <rc><c>Pt</c><c>   3</c></rc>
   </set>
  </array>
  <array name="atomtypes" >
   <dimension dim="1">type</dimension>
   <field type="int">atomspertype</field>
   <field type="string">element</field>
   <field>mass</field>
   <field>valence</field>
   <field type="string">pseudopotential</field>
   <set>
    <rc><c>   1</c><c>U </c><c>    238.02900000</c><c>     14.00000000</c><c>  PAW_PBE U 06Sep2000                   </c></rc>
    <rc><c>   1</c><c>Bi</c><c>    208.98000000</c><c>     15.00000000</c><c>  PAW_PBE Bi_d 06Sep2000                </c></rc>
    <rc><c>   1</c><c>Pt</c><c>    195.08000000</c><c>     10.00000000</c><c>  PAW_PBE Pt 04Feb2005                  </c></rc>
   </set>
  </array>
 </atominfo>
 <structure name="initialpos" >
  <crystal>
   <varray name="basis" >
    <v>       0.00000000       3.48590370       3.48590370 </v>
    <v>       3.48590370       0.00000000       3.48590370 </v>
    <v>       3.48590370       3.48590370       0.00000000 </v>
   </varray>
   <i name="volume">     84.71808950 </i>
   <varray name="rec_basis" >
    <v>      -0.14343483       0.14343483       0.14343483 </v>
    <v>       0.14343483      -0.14343483       0.14343483 </v>
    <v>       0.14343483       0.14343483      -0.14343483 </v>
   </varray>
  </crystal>
  <varray name="positions" >
   <v>       0.25000000       0.25000000       0.25000000 </v>
   <v>       0.75000000       0.75000000       0.75000000 </v>
   <v>       0.00000000       0.00000000       0.00000000 </v>
  </varray>
 </structure>
 <calculation>
  <scstep>
   <time name="dav">    1.69    1.69</time>
   <time name="total">    1.89    1.97</time>
   <energy>
    <i name="alphaZ">    185.61306996 </i>
    <i name="ewald">  -3419.86203582 </i>
    <i name="hartreedc">   -860.46365882 </i>
    <i name="XCdc">     88.68742125 </i>
    <i name="pawpsdc">   3513.29252893 </i>
    <i name="pawaedc">  -3436.88002192 </i>
    <i name="eentropy">     -0.00002031 </i>
    <i name="bandstr">    260.26656902 </i>
    <i name="atom">   4095.35208632 </i>
    <i name="e_fr_energy">    426.00593860 </i>
    <i name="e_wo_entrp">    426.00595891 </i>
    <i name="e_0_energy">    426.00594876 </i>
   </energy>
  </scstep>
  <scstep>
   <time name="dav">    1.89    1.91</time>
   <time name="total">    1.89    1.92</time>
   <energy>
    <i name="e_fr_energy">     28.35569954 </i>
    <i name="e_wo_entrp">     28.35651220 </i>
    <i name="e_0_energy">     28.35610587 </i>
   </energy>
  </scstep>
  <scstep>
   <time name="dav">    1.94    1.96</time>
   <time name="total">    1.95    1.97</time>
   <energy>
    <i name="e_fr_energy">    -20.01769991 </i>
    <i name="e_wo_entrp">    -20.01653689 </i>
    <i name="e_0_energy">    -20.01711840 </i>
   </energy>
  </scstep>
  <scstep>
   <time name="dav">    2.78    2.80</time>
   <time name="total">    2.79    2.81</time>
   <energy>
    <i name="e_fr_energy">    -25.23962555 </i>
    <i name="e_wo_entrp">    -25.23844286 </i>
    <i name="e_0_energy">    -25.23903421 </i>
   </energy>
  </scstep>
  <scstep>
   <time name="dav">    2.14    2.17</time>
   <time name="total">    2.64    2.67</time>
   <energy>
    <i name="e_fr_energy">    -25.44159816 </i>
    <i name="e_wo_entrp">    -25.44031711 </i>
    <i name="e_0_energy">    -25.44095763 </i>
   </energy>
  </scstep>
  <scstep>
   <time name="dav">    2.28    2.28</time>
   <time name="total">    2.91    2.94</time>
   <energy>
    <i name="e_fr_energy">    -36.60375018 </i>
    <i name="e_wo_entrp">    -36.60367856 </i>
    <i name="e_0_energy">    -36.60371437 </i>
   </energy>
  </scstep>
  <scstep>
   <time name="dav">    2.16    2.16</time>
   <time name="total">    2.75    2.78</time>
   <energy>
    <i name="e_fr_energy">    -25.09877059 </i>
    <i name="e_wo_entrp">    -25.09835528 </i>
    <i name="e_0_energy">    -25.09856294 </i>
   </energy>
  </scstep>
  <scstep>
   <time name="dav">    2.23    2.24</time>
   <time name="total">    2.84    2.87</time>
   <energy>
    <i name="e_fr_energy">    -24.20134727 </i>
    <i name="e_wo_entrp">    -24.19949981 </i>
    <i name="e_0_energy">    -24.20042354 </i>
   </energy>
  </scstep>
  <scstep>
   <time name="dav">    2.29    2.29</time>
   <time name="total">    2.89    2.94</time>
   <energy>
    <i name="e_fr_energy">    -23.24233664 </i>
    <i name="e_wo_entrp">    -23.24040710 </i>
    <i name="e_0_energy">    -23.24137187 </i>
   </energy>
  </scstep>
  <scstep>
   <time name="dav">    2.26    2.26</time>
   <time name="total">    2.86    2.90</time>
   <energy>
    <i name="e_fr_energy">    -23.36149248 </i>
    <i name="e_wo_entrp">    -23.36008754 </i>
    <i name="e_0_energy">    -23.36079001 </i>
   </energy>
  </scstep>
  <scstep>
   <time name="dav">    2.22    2.22</time>
   <time name="total">    2.82    2.85</time>
   <energy>
    <i name="e_fr_energy">    -23.25234696 </i>
    <i name="e_wo_entrp">    -23.25032420 </i>
    <i name="e_0_energy">    -23.25133558 </i>
   </energy>
  </scstep>
  <scstep>
   <time name="dav">    2.61    2.61</time>
   <time name="total">    3.22    3.25</time>
   <energy>
    <i name="e_fr_energy">    -23.24928341 </i>
    <i name="e_wo_entrp">    -23.24695575 </i>
    <i name="e_0_energy">    -23.24811958 </i>
   </energy>
  </scstep>
  <scstep>
   <time name="dav">    2.39    2.39</time>
   <time name="total">    2.99    3.03</time>
   <energy>
    <i name="e_fr_energy">    -23.25420837 </i>
    <i name="e_wo_entrp">    -23.25182241 </i>
    <i name="e_0_energy">    -23.25301539 </i>
   </energy>
  </scstep>
  <scstep>
   <time name="dav">    2.28    2.28</time>
   <time name="total">    2.88    2.91</time>
   <energy>
    <i name="e_fr_energy">    -23.24766558 </i>
    <i name="e_wo_entrp">    -23.24541884 </i>
    <i name="e_0_energy">    -23.24654221 </i>
   </energy>
  </scstep>
  <scstep>
   <time name="dav">    2.52    2.52</time>
   <time name="total">    3.13    3.16</time>
   <energy>
    <i name="e_fr_energy">    -23.24778641 </i>
    <i name="e_wo_entrp">    -23.24547523 </i>
    <i name="e_0_energy">    -23.24663082 </i>
   </energy>
  </scstep>
  <scstep>
   <time name="dav">    2.24    2.24</time>
   <time name="total">    2.85    2.88</time>
   <energy>
    <i name="e_fr_energy">    -23.24784551 </i>
    <i name="e_wo_entrp">    -23.24554201 </i>
    <i name="e_0_energy">    -23.24669376 </i>
   </energy>
  </scstep>
  <scstep>
   <time name="dav">    2.51    2.51</time>
   <time name="total">    3.12    3.15</time>
   <energy>
    <i name="e_fr_energy">    -23.24785385 </i>
    <i name="e_wo_entrp">    -23.24554465 </i>
    <i name="e_0_energy">    -23.24669925 </i>
   </energy>
  </scstep>
  <scstep>
   <time name="dav">    2.56    2.56</time>
   <time name="total">    3.18    3.20</time>
   <energy>
    <i name="e_fr_energy">    -23.24785448 </i>
    <i name="e_wo_entrp">    -23.24554564 </i>
    <i name="e_0_energy">    -23.24670006 </i>
   </energy>
  </scstep>
  <scstep>
   <time name="dav">    1.95    1.95</time>
   <time name="total">    2.56    2.60</time>
   <energy>
    <i name="e_fr_energy">    -23.24785496 </i>
    <i name="e_wo_entrp">    -23.24554432 </i>
    <i name="e_0_energy">    -23.24669964 </i>
   </energy>
  </scstep>
  <scstep>
   <time name="dav">    2.22    2.22</time>
   <time name="total">    2.83    2.85</time>
   <energy>
    <i name="e_fr_energy">    -23.24785463 </i>
    <i name="e_wo_entrp">    -23.24554601 </i>
    <i name="e_0_energy">    -23.24670032 </i>
   </energy>
  </scstep>
  <scstep>
   <time name="dav">    1.56    1.56</time>
   <time name="total">    1.73    1.76</time>
   <energy>
    <i name="alphaZ">    185.61306996 </i>
    <i name="ewald">  -3419.86203582 </i>
    <i name="hartreedc">   -851.45446459 </i>
    <i name="XCdc">     88.42987932 </i>
    <i name="pawpsdc">   3919.81186727 </i>
    <i name="pawaedc">  -3850.79649517 </i>
    <i name="eentropy">     -0.00230929 </i>
    <i name="bandstr">   -190.33945260 </i>
    <i name="atom">   4095.35208632 </i>
    <i name="e_fr_energy">    -23.24785461 </i>
    <i name="e_wo_entrp">    -23.24554532 </i>
    <i name="e_0_energy">    -23.24669996 </i>
   </energy>
  </scstep>
  <structure>
   <crystal>
    <varray name="basis" >
     <v>       0.00000000       3.48590370       3.48590370 </v>
     <v>       3.48590370       0.00000000       3.48590370 </v>
     <v>       3.48590370       3.48590370       0.00000000 </v>
    </varray>
    <i name="volume">     84.71808950 </i>
    <varray name="rec_basis" >
     <v>      -0.14343483       0.14343483       0.14343483 </v>
     <v>       0.14343483      -0.14343483       0.14343483 </v>
     <v>       0.14343483       0.14343483      -0.14343483 </v>
    </varray>
   </crystal>
   <varray name="positions" >
    <v>       0.25000000       0.25000000       0.25000000 </v>
    <v>       0.75000000       0.75000000       0.75000000 </v>
    <v>       0.00000000       0.00000000       0.00000000 </v>
   </varray>
  </structure>
  <varray name="forces" >
   <v>       0.00000000      -0.00000000      -0.00000000 </v>
   <v>       0.00000000       0.00000000       0.00000000 </v>
   <v>      -0.00000000       0.00000000      -0.00000000 </v>
  </varray>
  <varray name="stress" >
   <v>    -123.31265542       0.00000000      -0.00000000 </v>
   <v>       0.00000000    -123.31265542       0.00000000 </v>
   <v>      -0.00000000       0.00000000    -123.31265542 </v>
  </varray>
  <energy>
   <i name="e_fr_energy">    -23.24785461 </i>
   <i name="e_wo_entrp">    -23.24669996 </i>
   <i name="e_0_energy">     -0.00230929 </i>
  </energy>
  <time name="totalsc">   61.72   62.83</time>
  <eigenvalues>
   <array>
    <dimension dim="1">band</dimension>
    <dimension dim="2">kpoint</dimension>
    <dimension dim="3">spin</dimension>
    <field>eigene</field>
    <field>occ</field>
    <set>
     <set comment="spin 1">
      <set comment="kpoint 1">
       <r>  -36.0658    1.0000 </r>
       <r>  -14.5238    1.0000 </r>
       <r>  -14.5238    1.0000 </r>
       <r>  -14.5028    1.0000 </r>
       <r>  -14.5028    1.0000 </r>
       <r>  -14.5028    1.0000 </r>
       <r>  -11.2555    1.0000 </r>
       <r>  -11.2555    1.0000 </r>
       <r>  -11.2555    1.0000 </r>
       <r>   -3.5632    1.0000 </r>
       <r>    4.1871    1.0000 </r>
       <r>    4.1871    1.0000 </r>
       <r>    4.1871    1.0000 </r>
       <r>    4.5340    1.0000 </r>
       <r>    4.5340    1.0000 </r>
       <r>    6.1338    1.0000 </r>
       <r>    7.2426    1.0000 </r>
       <r>    7.2426    1.0000 </r>
       <r>    7.2426    1.0000 </r>
       <r>    8.1552    0.9993 </r>
       <r>    8.2743    0.0000 </r>
       <r>    8.2744    0.0000 </r>
       <r>    8.2749    0.0000 </r>
       <r>    8.3412    0.0000 </r>
      </set>
      <set comment="kpoint 2">
       <r>  -36.0657    1.0000 </r>
       <r>  -14.5245    1.0000 </r>
       <r>  -14.5245    1.0000 </r>
       <r>  -14.5029    1.0000 </r>
       <r>  -14.5027    1.0000 </r>
       <r>  -14.5027    1.0000 </r>
       <r>  -11.2626    1.0000 </r>
       <r>  -11.2541    1.0000 </r>
       <r>  -11.2541    1.0000 </r>
       <r>   -3.5177    1.0000 </r>
       <r>    4.0525    1.0000 </r>
       <r>    4.1235    1.0000 </r>
       <r>    4.1235    1.0000 </r>
       <r>    4.5939    1.0000 </r>
       <r>    4.5939    1.0000 </r>
       <r>    6.0133    1.0000 </r>
       <r>    7.1936    1.0000 </r>
       <r>    7.1936    1.0000 </r>
       <r>    7.3245    1.0000 </r>
       <r>    8.1017    1.0000 </r>
       <r>    8.2125    0.0000 </r>
       <r>    8.2125    0.0000 </r>
       <r>    8.3342    0.0000 </r>
       <r>    8.3421    0.0000 </r>
      </set>
      <set comment="kpoint 3">
       <r>  -36.0654    1.0000 </r>
       <r>  -14.5265    1.0000 </r>
       <r>  -14.5265    1.0000 </r>
       <r>  -14.5033    1.0000 </r>
       <r>  -14.5024    1.0000 </r>
       <r>  -14.5024    1.0000 </r>
       <r>  -11.2820    1.0000 </r>
       <r>  -11.2502    1.0000 </r>
       <r>  -11.2502    1.0000 </r>
       <r>   -3.3903    1.0000 </r>
       <r>    3.7288    1.0000 </r>
       <r>    4.0136    1.0000 </r>
       <r>    4.0136    1.0000 </r>
       <r>    4.6860    1.0000 </r>
       <r>    4.6860    1.0000 </r>
       <r>    5.7099    1.0000 </r>
       <r>    7.0804    1.0000 </r>
       <r>    7.0804    1.0000 </r>
       <r>    7.4010    1.0000 </r>
       <r>    8.1705    0.8522 </r>
       <r>    8.1705    0.8522 </r>
       <r>    8.2334    0.0000 </r>
       <r>    8.3440    0.0000 </r>
       <r>    8.4002    0.0000 </r>
      </set>
      <set comment="kpoint 4">
       <r>  -36.0650    1.0000 </r>
       <r>  -14.5294    1.0000 </r>
       <r>  -14.5294    1.0000 </r>
       <r>  -14.5038    1.0000 </r>
       <r>  -14.5019    1.0000 </r>
       <r>  -14.5019    1.0000 </r>
       <r>  -11.3085    1.0000 </r>
       <r>  -11.2448    1.0000 </r>
       <r>  -11.2448    1.0000 </r>
       <r>   -3.2070    1.0000 </r>
       <r>    3.3488    1.0000 </r>
       <r>    3.9241    1.0000 </r>
       <r>    3.9241    1.0000 </r>
       <r>    4.7306    1.0000 </r>
       <r>    4.7306    1.0000 </r>
       <r>    5.3429    1.0000 </r>
       <r>    6.9667    1.0000 </r>
       <r>    6.9667    1.0000 </r>
       <r>    7.4217    1.0000 </r>
       <r>    8.1595    0.9953 </r>
       <r>    8.1595    0.9953 </r>
       <r>    8.3468    0.0000 </r>
       <r>    8.3810    0.0000 </r>
       <r>    8.5813    0.0000 </r>
      </set>
      <set comment="kpoint 5">
       <r>  -36.0646    1.0000 </r>
       <r>  -14.5324    1.0000 </r>
       <r>  -14.5324    1.0000 </r>
       <r>  -14.5045    1.0000 </r>
       <r>  -14.5014    1.0000 </r>
       <r>  -14.5014    1.0000 </r>
       <r>  -11.3354    1.0000 </r>
       <r>  -11.2391    1.0000 </r>
       <r>  -11.2391    1.0000 </r>
       <r>   -3.0071    1.0000 </r>
       <r>    3.0036    1.0000 </r>
       <r>    3.8732    1.0000 </r>
       <r>    3.8732    1.0000 </r>
       <r>    4.7082    1.0000 </r>
       <r>    4.7082    1.0000 </r>
       <r>    5.0167    1.0000 </r>
       <r>    6.8934    1.0000 </r>
       <r>    6.8934    1.0000 </r>
       <r>    7.4641    1.0000 </r>
       <r>    8.1692    0.8891 </r>
       <r>    8.1692    0.8891 </r>
       <r>    8.3599    0.0000 </r>
       <r>    8.4261    0.0000 </r>
       <r>    8.5360    0.0000 </r>
      </set>
      <set comment="kpoint 6">
       <r>  -36.0642    1.0000 </r>
       <r>  -14.5349    1.0000 </r>
       <r>  -14.5349    1.0000 </r>
       <r>  -14.5051    1.0000 </r>
       <r>  -14.5009    1.0000 </r>
       <r>  -14.5009    1.0000 </r>
       <r>  -11.3569    1.0000 </r>
       <r>  -11.2344    1.0000 </r>
       <r>  -11.2344    1.0000 </r>
       <r>   -2.8367    1.0000 </r>
       <r>    2.7466    1.0000 </r>
       <r>    3.8585    1.0000 </r>
       <r>    3.8585    1.0000 </r>
       <r>    4.6442    1.0000 </r>
       <r>    4.6442    1.0000 </r>
       <r>    4.7863    1.0000 </r>
       <r>    6.8626    1.0000 </r>
       <r>    6.8626    1.0000 </r>
       <r>    7.5281    1.0000 </r>
       <r>    8.1925    0.0189 </r>
       <r>    8.1925    0.0189 </r>
       <r>    8.3525    0.0000 </r>
       <r>    8.4645    0.0000 </r>
       <r>    8.4667    0.0000 </r>
      </set>
      <set comment="kpoint 7">
       <r>  -36.0640    1.0000 </r>
       <r>  -14.5364    1.0000 </r>
       <r>  -14.5364    1.0000 </r>
       <r>  -14.5054    1.0000 </r>
       <r>  -14.5006    1.0000 </r>
       <r>  -14.5006    1.0000 </r>
       <r>  -11.3687    1.0000 </r>
       <r>  -11.2317    1.0000 </r>
       <r>  -11.2317    1.0000 </r>
       <r>   -2.7385    1.0000 </r>
       <r>    2.6101    1.0000 </r>
       <r>    3.8618    1.0000 </r>
       <r>    3.8618    1.0000 </r>
       <r>    4.5901    1.0000 </r>
       <r>    4.5901    1.0000 </r>
       <r>    4.6698    1.0000 </r>
       <r>    6.8552    1.0000 </r>
       <r>    6.8552    1.0000 </r>
       <r>    7.5783    1.0000 </r>
       <r>    8.2170    0.0000 </r>
       <r>    8.2170    0.0000 </r>
       <r>    8.4143    0.0000 </r>
       <r>    8.4145    0.0000 </r>
       <r>    8.4927    0.0000 </r>
      </set>
      <set comment="kpoint 8">
       <r>  -36.0657    1.0000 </r>
       <r>  -14.5258    1.0000 </r>
       <r>  -14.5236    1.0000 </r>
       <r>  -14.5030    1.0000 </r>
       <r>  -14.5026    1.0000 </r>
       <r>  -14.5026    1.0000 </r>
       <r>  -11.2593    1.0000 </r>
       <r>  -11.2565    1.0000 </r>
       <r>  -11.2565    1.0000 </r>
       <r>   -3.5036    1.0000 </r>
       <r>    3.8796    1.0000 </r>
       <r>    4.2014    1.0000 </r>
       <r>    4.2014    1.0000 </r>
       <r>    4.5471    1.0000 </r>
       <r>    4.6174    1.0000 </r>
       <r>    6.0062    1.0000 </r>
       <r>    7.1163    1.0000 </r>
       <r>    7.1163    1.0000 </r>
       <r>    7.4687    1.0000 </r>
       <r>    8.0568    1.0000 </r>
       <r>    8.2080    0.0000 </r>
       <r>    8.2080    0.0000 </r>
       <r>    8.3487    0.0000 </r>
       <r>    8.3495    0.0000 </r>
      </set>
      <set comment="kpoint 9">
       <r>  -36.0654    1.0000 </r>
       <r>  -14.5280    1.0000 </r>
       <r>  -14.5242    1.0000 </r>
       <r>  -14.5033    1.0000 </r>
       <r>  -14.5024    1.0000 </r>
       <r>  -14.5023    1.0000 </r>
       <r>  -11.2741    1.0000 </r>
       <r>  -11.2561    1.0000 </r>
       <r>  -11.2518    1.0000 </r>
       <r>   -3.4066    1.0000 </r>
       <r>    3.6161    1.0000 </r>
       <r>    4.1178    1.0000 </r>
       <r>    4.1599    1.0000 </r>
       <r>    4.6035    1.0000 </r>
       <r>    4.6841    1.0000 </r>
       <r>    5.8159    1.0000 </r>
       <r>    6.9794    1.0000 </r>
       <r>    6.9931    1.0000 </r>
       <r>    7.5946    1.0000 </r>
       <r>    8.1149    1.0000 </r>
       <r>    8.1801    0.3767 </r>
       <r>    8.1952    0.0070 </r>
       <r>    8.3538    0.0000 </r>
       <r>    8.3922    0.0000 </r>
      </set>
      <set comment="kpoint 10">
       <r>  -36.0651    1.0000 </r>
       <r>  -14.5307    1.0000 </r>
       <r>  -14.5261    1.0000 </r>
       <r>  -14.5037    1.0000 </r>
       <r>  -14.5020    1.0000 </r>
       <r>  -14.5018    1.0000 </r>
       <r>  -11.2984    1.0000 </r>
       <r>  -11.2528    1.0000 </r>
       <r>  -11.2457    1.0000 </r>
       <r>   -3.2469    1.0000 </r>
       <r>    3.3268    1.0000 </r>
       <r>    3.9621    1.0000 </r>
       <r>    4.0808    1.0000 </r>
       <r>    4.6607    1.0000 </r>
       <r>    4.7542    1.0000 </r>
       <r>    5.4949    1.0000 </r>
       <r>    6.8311    1.0000 </r>
       <r>    6.8854    1.0000 </r>
       <r>    7.5992    1.0000 </r>
       <r>    8.1544    0.9995 </r>
       <r>    8.1652    0.9632 </r>
       <r>    8.3534    0.0000 </r>
       <r>    8.3557    0.0000 </r>
       <r>    8.4974    0.0000 </r>
      </set>
      <set comment="kpoint 11">
       <r>  -36.0647    1.0000 </r>
       <r>  -14.5333    1.0000 </r>
       <r>  -14.5290    1.0000 </r>
       <r>  -14.5043    1.0000 </r>
       <r>  -14.5016    1.0000 </r>
       <r>  -14.5013    1.0000 </r>
       <r>  -11.3251    1.0000 </r>
       <r>  -11.2476    1.0000 </r>
       <r>  -11.2402    1.0000 </r>
       <r>   -3.0591    1.0000 </r>
       <r>    3.0469    1.0000 </r>
       <r>    3.8499    1.0000 </r>
       <r>    4.0151    1.0000 </r>
       <r>    4.6593    1.0000 </r>
       <r>    4.7687    1.0000 </r>
       <r>    5.1542    1.0000 </r>
       <r>    6.7368    1.0000 </r>
       <r>    6.8266    1.0000 </r>
       <r>    7.5918    1.0000 </r>
       <r>    8.1669    0.9401 </r>
       <r>    8.1687    0.9020 </r>
       <r>    8.3571    0.0000 </r>
       <r>    8.4031    0.0000 </r>
       <r>    8.5229    0.0000 </r>
      </set>
      <set comment="kpoint 12">
       <r>  -36.0643    1.0000 </r>
       <r>  -14.5352    1.0000 </r>
       <r>  -14.5321    1.0000 </r>
       <r>  -14.5048    1.0000 </r>
       <r>  -14.5012    1.0000 </r>
       <r>  -14.5008    1.0000 </r>
       <r>  -11.3482    1.0000 </r>
       <r>  -11.2415    1.0000 </r>
       <r>  -11.2368    1.0000 </r>
       <r>   -2.8858    1.0000 </r>
       <r>    2.8211    1.0000 </r>
       <r>    3.8056    1.0000 </r>
       <r>    3.9654    1.0000 </r>
       <r>    4.6178    1.0000 </r>
       <r>    4.7228    1.0000 </r>
       <r>    4.8824    1.0000 </r>
       <r>    6.6959    1.0000 </r>
       <r>    6.8113    1.0000 </r>
       <r>    7.6138    1.0000 </r>
       <r>    8.1838    0.1982 </r>
       <r>    8.1937    0.0124 </r>
       <r>    8.3573    0.0000 </r>
       <r>    8.4244    0.0000 </r>
       <r>    8.4847    0.0000 </r>
      </set>
      <set comment="kpoint 13">
       <r>  -36.0640    1.0000 </r>
       <r>  -14.5359    1.0000 </r>
       <r>  -14.5347    1.0000 </r>
       <r>  -14.5052    1.0000 </r>
       <r>  -14.5009    1.0000 </r>
       <r>  -14.5005    1.0000 </r>
       <r>  -11.3630    1.0000 </r>
       <r>  -11.2361    1.0000 </r>
       <r>  -11.2360    1.0000 </r>
       <r>   -2.7685    1.0000 </r>
       <r>    2.6816    1.0000 </r>
       <r>    3.8204    1.0000 </r>
       <r>    3.9144    1.0000 </r>
       <r>    4.5913    1.0000 </r>
       <r>    4.6499    1.0000 </r>
       <r>    4.7187    1.0000 </r>
       <r>    6.6833    1.0000 </r>
       <r>    6.8156    1.0000 </r>
       <r>    7.6502    1.0000 </r>
       <r>    8.2118    0.0000 </r>
       <r>    8.2176    0.0000 </r>
       <r>    8.3540    0.0000 </r>
       <r>    8.4073    0.0000 </r>
       <r>    8.4862    0.0000 </r>
      </set>
      <set comment="kpoint 14">
       <r>  -36.0640    1.0000 </r>
       <r>  -14.5362    1.0000 </r>
       <r>  -14.5353    1.0000 </r>
       <r>  -14.5053    1.0000 </r>
       <r>  -14.5008    1.0000 </r>
       <r>  -14.5005    1.0000 </r>
       <r>  -11.3668    1.0000 </r>
       <r>  -11.2380    1.0000 </r>
       <r>  -11.2324    1.0000 </r>
       <r>   -2.7362    1.0000 </r>
       <r>    2.6451    1.0000 </r>
       <r>    3.8518    1.0000 </r>
       <r>    3.8727    1.0000 </r>
       <r>    4.5941    1.0000 </r>
       <r>    4.6195    1.0000 </r>
       <r>    4.6760    1.0000 </r>
       <r>    6.6718    1.0000 </r>
       <r>    6.8242    1.0000 </r>
       <r>    7.6649    1.0000 </r>
       <r>    8.2172    0.0000 </r>
       <r>    8.2334    0.0000 </r>
       <r>    8.3492    0.0000 </r>
       <r>    8.4120    0.0000 </r>
       <r>    8.4689    0.0000 </r>
      </set>
      <set comment="kpoint 15">
       <r>  -36.0641    1.0000 </r>
       <r>  -14.5364    1.0000 </r>
       <r>  -14.5335    1.0000 </r>
       <r>  -14.5050    1.0000 </r>
       <r>  -14.5009    1.0000 </r>
       <r>  -14.5008    1.0000 </r>
       <r>  -11.3590    1.0000 </r>
       <r>  -11.2423    1.0000 </r>
       <r>  -11.2313    1.0000 </r>
       <r>   -2.7975    1.0000 </r>
       <r>    2.7174    1.0000 </r>
       <r>    3.7945    1.0000 </r>
       <r>    3.9373    1.0000 </r>
       <r>    4.5835    1.0000 </r>
       <r>    4.6925    1.0000 </r>
       <r>    4.7596    1.0000 </r>
       <r>    6.6469    1.0000 </r>
       <r>    6.8410    1.0000 </r>
       <r>    7.6428    1.0000 </r>
       <r>    8.1936    0.0131 </r>
       <r>    8.2211    0.0000 </r>
       <r>    8.3515    0.0000 </r>
       <r>    8.4348    0.0000 </r>
       <r>    8.4462    0.0000 </r>
      </set>
      <set comment="kpoint 16">
       <r>  -36.0644    1.0000 </r>
       <r>  -14.5350    1.0000 </r>
       <r>  -14.5310    1.0000 </r>
       <r>  -14.5045    1.0000 </r>
       <r>  -14.5012    1.0000 </r>
       <r>  -14.5012    1.0000 </r>
       <r>  -11.3410    1.0000 </r>
       <r>  -11.2479    1.0000 </r>
       <r>  -11.2332    1.0000 </r>
       <r>   -2.9368    1.0000 </r>
       <r>    2.8947    1.0000 </r>
       <r>    3.7689    1.0000 </r>
       <r>    4.0040    1.0000 </r>
       <r>    4.6154    1.0000 </r>
       <r>    4.7689    1.0000 </r>
       <r>    4.9610    1.0000 </r>
       <r>    6.6168    1.0000 </r>
       <r>    6.8836    1.0000 </r>
       <r>    7.6070    1.0000 </r>
       <r>    8.1710    0.8353 </r>
       <r>    8.1918    0.0247 </r>
       <r>    8.3551    0.0000 </r>
       <r>    8.4304    0.0000 </r>
       <r>    8.4879    0.0000 </r>
      </set>
      <set comment="kpoint 17">
       <r>  -36.0648    1.0000 </r>
       <r>  -14.5326    1.0000 </r>
       <r>  -14.5282    1.0000 </r>
       <r>  -14.5040    1.0000 </r>
       <r>  -14.5018    1.0000 </r>
       <r>  -14.5016    1.0000 </r>
       <r>  -11.3163    1.0000 </r>
       <r>  -11.2534    1.0000 </r>
       <r>  -11.2375    1.0000 </r>
       <r>   -3.1198    1.0000 </r>
       <r>    3.1614    1.0000 </r>
       <r>    3.7919    1.0000 </r>
       <r>    4.0812    1.0000 </r>
       <r>    4.6416    1.0000 </r>
       <r>    4.8051    1.0000 </r>
       <r>    5.2606    1.0000 </r>
       <r>    6.6194    1.0000 </r>
       <r>    6.9674    1.0000 </r>
       <r>    7.5875    1.0000 </r>
       <r>    8.1601    0.9941 </r>
       <r>    8.1687    0.9031 </r>
       <r>    8.3540    0.0000 </r>
       <r>    8.3960    0.0000 </r>
       <r>    8.5504    0.0000 </r>
      </set>
      <set comment="kpoint 18">
       <r>  -36.0652    1.0000 </r>
       <r>  -14.5296    1.0000 </r>
       <r>  -14.5259    1.0000 </r>
       <r>  -14.5035    1.0000 </r>
       <r>  -14.5022    1.0000 </r>
       <r>  -14.5021    1.0000 </r>
       <r>  -11.2905    1.0000 </r>
       <r>  -11.2573    1.0000 </r>
       <r>  -11.2433    1.0000 </r>
       <r>   -3.3032    1.0000 </r>
       <r>    3.4844    1.0000 </r>
       <r>    3.8679    1.0000 </r>
       <r>    4.1699    1.0000 </r>
       <r>    4.6185    1.0000 </r>
       <r>    4.7779    1.0000 </r>
       <r>    5.5981    1.0000 </r>
       <r>    6.7165    1.0000 </r>
       <r>    7.0818    1.0000 </r>
       <r>    7.5821    1.0000 </r>
       <r>    8.1615    0.9895 </r>
       <r>    8.1617    0.9888 </r>
       <r>    8.3244    0.0000 </r>
       <r>    8.3509    0.0000 </r>
       <r>    8.4530    0.0000 </r>
      </set>
      <set comment="kpoint 19">
       <r>  -36.0655    1.0000 </r>
       <r>  -14.5267    1.0000 </r>
       <r>  -14.5245    1.0000 </r>
       <r>  -14.5031    1.0000 </r>
       <r>  -14.5026    1.0000 </r>
       <r>  -14.5025    1.0000 </r>
       <r>  -11.2707    1.0000 </r>
       <r>  -11.2577    1.0000 </r>
       <r>  -11.2493    1.0000 </r>
       <r>   -3.4460    1.0000 </r>
       <r>    3.8094    1.0000 </r>
       <r>    3.9878    1.0000 </r>
       <r>    4.2137    1.0000 </r>
       <r>    4.5769    1.0000 </r>
       <r>    4.6956    1.0000 </r>
       <r>    5.8690    1.0000 </r>
       <r>    6.9480    1.0000 </r>
       <r>    7.1775    1.0000 </r>
       <r>    7.5004    1.0000 </r>
       <r>    8.1208    1.0000 </r>
       <r>    8.1785    0.4653 </r>
       <r>    8.1963    0.0045 </r>
       <r>    8.3466    0.0000 </r>
       <r>    8.3738    0.0000 </r>
      </set>
      <set comment="kpoint 20">
       <r>  -36.0653    1.0000 </r>
       <r>  -14.5299    1.0000 </r>
       <r>  -14.5231    1.0000 </r>
       <r>  -14.5037    1.0000 </r>
       <r>  -14.5021    1.0000 </r>
       <r>  -14.5021    1.0000 </r>
       <r>  -11.2710    1.0000 </r>
       <r>  -11.2595    1.0000 </r>
       <r>  -11.2595    1.0000 </r>
       <r>   -3.3487    1.0000 </r>
       <r>    3.3658    1.0000 </r>
       <r>    4.2347    1.0000 </r>
       <r>    4.2347    1.0000 </r>
       <r>    4.5836    1.0000 </r>
       <r>    4.6333    1.0000 </r>
       <r>    5.8059    1.0000 </r>
       <r>    6.8706    1.0000 </r>
       <r>    6.8706    1.0000 </r>
       <r>    7.7046    1.0000 </r>
       <r>    8.1032    1.0000 </r>
       <r>    8.1771    0.5446 </r>
       <r>    8.1771    0.5446 </r>
       <r>    8.3739    0.0000 </r>
       <r>    8.4137    0.0000 </r>
      </set>
      <set comment="kpoint 21">
       <r>  -36.0650    1.0000 </r>
       <r>  -14.5319    1.0000 </r>
       <r>  -14.5236    1.0000 </r>
       <r>  -14.5041    1.0000 </r>
       <r>  -14.5017    1.0000 </r>
       <r>  -14.5016    1.0000 </r>
       <r>  -11.2891    1.0000 </r>
       <r>  -11.2597    1.0000 </r>
       <r>  -11.2552    1.0000 </r>
       <r>   -3.2304    1.0000 </r>
       <r>    3.1407    1.0000 </r>
       <r>    4.1486    1.0000 </r>
       <r>    4.2119    1.0000 </r>
       <r>    4.6231    1.0000 </r>
       <r>    4.6707    1.0000 </r>
       <r>    5.6303    1.0000 </r>
       <r>    6.6957    1.0000 </r>
       <r>    6.7710    1.0000 </r>
       <r>    7.7255    1.0000 </r>
       <r>    8.1509    0.9999 </r>
       <r>    8.1718    0.8055 </r>
       <r>    8.2989    0.0000 </r>
       <r>    8.3836    0.0000 </r>
       <r>    8.4855    0.0000 </r>
      </set>
      <set comment="kpoint 22">
       <r>  -36.0646    1.0000 </r>
       <r>  -14.5334    1.0000 </r>
       <r>  -14.5255    1.0000 </r>
       <r>  -14.5045    1.0000 </r>
       <r>  -14.5014    1.0000 </r>
       <r>  -14.5011    1.0000 </r>
       <r>  -11.3136    1.0000 </r>
       <r>  -11.2567    1.0000 </r>
       <r>  -11.2501    1.0000 </r>
       <r>   -3.0792    1.0000 </r>
       <r>    2.9716    1.0000 </r>
       <r>    3.9854    1.0000 </r>
       <r>    4.1550    1.0000 </r>
       <r>    4.6394    1.0000 </r>
       <r>    4.7315    1.0000 </r>
       <r>    5.3483    1.0000 </r>
       <r>    6.5086    1.0000 </r>
       <r>    6.7244    1.0000 </r>
       <r>    7.7375    1.0000 </r>
       <r>    8.1631    0.9815 </r>
       <r>    8.1736    0.7257 </r>
       <r>    8.3604    0.0000 </r>
       <r>    8.3848    0.0000 </r>
       <r>    8.5252    0.0000 </r>
      </set>
      <set comment="kpoint 23">
       <r>  -36.0643    1.0000 </r>
       <r>  -14.5341    1.0000 </r>
       <r>  -14.5284    1.0000 </r>
       <r>  -14.5047    1.0000 </r>
       <r>  -14.5013    1.0000 </r>
       <r>  -14.5006    1.0000 </r>
       <r>  -11.3362    1.0000 </r>
       <r>  -11.2512    1.0000 </r>
       <r>  -11.2478    1.0000 </r>
       <r>   -2.9299    1.0000 </r>
       <r>    2.8665    1.0000 </r>
       <r>    3.8618    1.0000 </r>
       <r>    4.0862    1.0000 </r>
       <r>    4.6240    1.0000 </r>
       <r>    4.7410    1.0000 </r>
       <r>    5.0570    1.0000 </r>
       <r>    6.3981    1.0000 </r>
       <r>    6.7211    1.0000 </r>
       <r>    7.7450    1.0000 </r>
       <r>    8.1872    0.0922 </r>
       <r>    8.1900    0.0425 </r>
       <r>    8.3761    0.0000 </r>
       <r>    8.3810    0.0000 </r>
       <r>    8.5060    0.0000 </r>
      </set>
      <set comment="kpoint 24">
       <r>  -36.0640    1.0000 </r>
       <r>  -14.5339    1.0000 </r>
       <r>  -14.5316    1.0000 </r>
       <r>  -14.5048    1.0000 </r>
       <r>  -14.5012    1.0000 </r>
       <r>  -14.5003    1.0000 </r>
       <r>  -11.3520    1.0000 </r>
       <r>  -11.2490    1.0000 </r>
       <r>  -11.2444    1.0000 </r>
       <r>   -2.8162    1.0000 </r>
       <r>    2.8142    1.0000 </r>
       <r>    3.8141    1.0000 </r>
       <r>    3.9953    1.0000 </r>
       <r>    4.6246    1.0000 </r>
       <r>    4.6908    1.0000 </r>
       <r>    4.8496    1.0000 </r>
       <r>    6.3465    1.0000 </r>
       <r>    6.7321    1.0000 </r>
       <r>    7.7643    1.0000 </r>
       <r>    8.2138    0.0000 </r>
       <r>    8.2140    0.0000 </r>
       <r>    8.3707    0.0000 </r>
       <r>    8.3851    0.0000 </r>
       <r>    8.4917    0.0000 </r>
      </set>
      <set comment="kpoint 25">
       <r>  -36.0639    1.0000 </r>
       <r>  -14.5343    1.0000 </r>
       <r>  -14.5329    1.0000 </r>
       <r>  -14.5048    1.0000 </r>
       <r>  -14.5012    1.0000 </r>
       <r>  -14.5002    1.0000 </r>
       <r>  -11.3580    1.0000 </r>
       <r>  -11.2531    1.0000 </r>
       <r>  -11.2379    1.0000 </r>
       <r>   -2.7629    1.0000 </r>
       <r>    2.7939    1.0000 </r>
       <r>    3.8456    1.0000 </r>
       <r>    3.8861    1.0000 </r>
       <r>    4.6192    1.0000 </r>
       <r>    4.6709    1.0000 </r>
       <r>    4.7684    1.0000 </r>
       <r>    6.3123    1.0000 </r>
       <r>    6.7420    1.0000 </r>
       <r>    7.7832    1.0000 </r>
       <r>    8.2134    0.0000 </r>
       <r>    8.2487    0.0000 </r>
       <r>    8.3488    0.0000 </r>
       <r>    8.4052    0.0000 </r>
       <r>    8.4703    0.0000 </r>
      </set>
      <set comment="kpoint 26">
       <r>  -36.0639    1.0000 </r>
       <r>  -14.5360    1.0000 </r>
       <r>  -14.5312    1.0000 </r>
       <r>  -14.5046    1.0000 </r>
       <r>  -14.5012    1.0000 </r>
       <r>  -14.5005    1.0000 </r>
       <r>  -11.3537    1.0000 </r>
       <r>  -11.2590    1.0000 </r>
       <r>  -11.2331    1.0000 </r>
       <r>   -2.7816    1.0000 </r>
       <r>    2.7999    1.0000 </r>
       <r>    3.7856    1.0000 </r>
       <r>    3.9378    1.0000 </r>
       <r>    4.5797    1.0000 </r>
       <r>    4.7495    1.0000 </r>
       <r>    4.8118    1.0000 </r>
       <r>    6.2636    1.0000 </r>
       <r>    6.7588    1.0000 </r>
       <r>    7.7818    1.0000 </r>
       <r>    8.1921    0.0218 </r>
       <r>    8.2628    0.0000 </r>
       <r>    8.3363    0.0000 </r>
       <r>    8.4296    0.0000 </r>
       <r>    8.4344    0.0000 </r>
      </set>
      <set comment="kpoint 27">
       <r>  -36.0642    1.0000 </r>
       <r>  -14.5363    1.0000 </r>
       <r>  -14.5293    1.0000 </r>
       <r>  -14.5043    1.0000 </r>
       <r>  -14.5014    1.0000 </r>
       <r>  -14.5009    1.0000 </r>
       <r>  -11.3402    1.0000 </r>
       <r>  -11.2647    1.0000 </r>
       <r>  -11.2312    1.0000 </r>
       <r>   -2.8696    1.0000 </r>
       <r>    2.8547    1.0000 </r>
       <r>    3.7215    1.0000 </r>
       <r>    4.0597    1.0000 </r>
       <r>    4.5697    1.0000 </r>
       <r>    4.8249    1.0000 </r>
       <r>    4.9844    1.0000 </r>
       <r>    6.1995    1.0000 </r>
       <r>    6.8032    1.0000 </r>
       <r>    7.7621    1.0000 </r>
       <r>    8.1714    0.8183 </r>
       <r>    8.2323    0.0000 </r>
       <r>    8.3568    0.0000 </r>
       <r>    8.4232    0.0000 </r>
       <r>    8.4504    0.0000 </r>
      </set>
      <set comment="kpoint 28">
       <r>  -36.0645    1.0000 </r>
       <r>  -14.5350    1.0000 </r>
       <r>  -14.5274    1.0000 </r>
       <r>  -14.5040    1.0000 </r>
       <r>  -14.5015    1.0000 </r>
       <r>  -14.5014    1.0000 </r>
       <r>  -11.3213    1.0000 </r>
       <r>  -11.2679    1.0000 </r>
       <r>  -11.2325    1.0000 </r>
       <r>   -3.0080    1.0000 </r>
       <r>    2.9873    1.0000 </r>
       <r>    3.7112    1.0000 </r>
       <r>    4.1768    1.0000 </r>
       <r>    4.5725    1.0000 </r>
       <r>    4.8623    1.0000 </r>
       <r>    5.2406    1.0000 </r>
       <r>    6.1770    1.0000 </r>
       <r>    6.8891    1.0000 </r>
       <r>    7.7376    1.0000 </r>
       <r>    8.1608    0.9921 </r>
       <r>    8.1970    0.0033 </r>
       <r>    8.3644    0.0000 </r>
       <r>    8.4027    0.0000 </r>
       <r>    8.5033    0.0000 </r>
      </set>
      <set comment="kpoint 29">
       <r>  -36.0649    1.0000 </r>
       <r>  -14.5326    1.0000 </r>
       <r>  -14.5262    1.0000 </r>
       <r>  -14.5037    1.0000 </r>
       <r>  -14.5019    1.0000 </r>
       <r>  -14.5018    1.0000 </r>
       <r>  -11.3028    1.0000 </r>
       <r>  -11.2657    1.0000 </r>
       <r>  -11.2369    1.0000 </r>
       <r>   -3.1650    1.0000 </r>
       <r>    3.2060    1.0000 </r>
       <r>    3.7614    1.0000 </r>
       <r>    4.2421    1.0000 </r>
       <r>    4.5732    1.0000 </r>
       <r>    4.8443    1.0000 </r>
       <r>    5.4673    1.0000 </r>
       <r>    6.3323    1.0000 </r>
       <r>    6.9998    1.0000 </r>
       <r>    7.7002    1.0000 </r>
       <r>    8.1586    0.9967 </r>
       <r>    8.1710    0.8325 </r>
       <r>    8.3602    0.0000 </r>
       <r>    8.3778    0.0000 </r>
       <r>    8.5192    0.0000 </r>
      </set>
      <set comment="kpoint 30">
       <r>  -36.0648    1.0000 </r>
       <r>  -14.5326    1.0000 </r>
       <r>  -14.5224    1.0000 </r>
       <r>  -14.5047    1.0000 </r>
       <r>  -14.5012    1.0000 </r>
       <r>  -14.5012    1.0000 </r>
       <r>  -11.2899    1.0000 </r>
       <r>  -11.2639    1.0000 </r>
       <r>  -11.2639    1.0000 </r>
       <r>   -3.1637    1.0000 </r>
       <r>    2.9767    1.0000 </r>
       <r>    4.2627    1.0000 </r>
       <r>    4.2627    1.0000 </r>
       <r>    4.5553    1.0000 </r>
       <r>    4.6364    1.0000 </r>
       <r>    5.6051    1.0000 </r>
       <r>    6.6796    1.0000 </r>
       <r>    6.6796    1.0000 </r>
       <r>    7.7099    1.0000 </r>
       <r>    8.1753    0.6391 </r>
       <r>    8.1753    0.6391 </r>
       <r>    8.2680    0.0000 </r>
       <r>    8.4131    0.0000 </r>
       <r>    8.5554    0.0000 </r>
      </set>
      <set comment="kpoint 31">
       <r>  -36.0645    1.0000 </r>
       <r>  -14.5326    1.0000 </r>
       <r>  -14.5228    1.0000 </r>
       <r>  -14.5051    1.0000 </r>
       <r>  -14.5008    1.0000 </r>
       <r>  -14.5007    1.0000 </r>
       <r>  -11.3072    1.0000 </r>
       <r>  -11.2644    1.0000 </r>
       <r>  -11.2627    1.0000 </r>
       <r>   -3.0650    1.0000 </r>
       <r>    2.8916    1.0000 </r>
       <r>    4.1564    1.0000 </r>
       <r>    4.2432    1.0000 </r>
       <r>    4.5901    1.0000 </r>
       <r>    4.6595    1.0000 </r>
       <r>    5.4440    1.0000 </r>
       <r>    6.5108    1.0000 </r>
       <r>    6.6417    1.0000 </r>
       <r>    7.7712    1.0000 </r>
       <r>    8.1661    0.9511 </r>
       <r>    8.1809    0.3350 </r>
       <r>    8.3041    0.0000 </r>
       <r>    8.4269    0.0000 </r>
       <r>    8.5672    0.0000 </r>
      </set>
      <set comment="kpoint 32">
       <r>  -36.0641    1.0000 </r>
       <r>  -14.5320    1.0000 </r>
       <r>  -14.5248    1.0000 </r>
       <r>  -14.5053    1.0000 </r>
       <r>  -14.5007    1.0000 </r>
       <r>  -14.5002    1.0000 </r>
       <r>  -11.3266    1.0000 </r>
       <r>  -11.2620    1.0000 </r>
       <r>  -11.2611    1.0000 </r>
       <r>   -2.9589    1.0000 </r>
       <r>    2.8955    1.0000 </r>
       <r>    3.9897    1.0000 </r>
       <r>    4.1825    1.0000 </r>
       <r>    4.6635    1.0000 </r>
       <r>    4.6641    1.0000 </r>
       <r>    5.2166    1.0000 </r>
       <r>    6.2686    1.0000 </r>
       <r>    6.6452    1.0000 </r>
       <r>    7.8333    1.0000 </r>
       <r>    8.1781    0.4878 </r>
       <r>    8.1937    0.0126 </r>
       <r>    8.3252    0.0000 </r>
       <r>    8.4257    0.0000 </r>
       <r>    8.5380    0.0000 </r>
      </set>
      <set comment="kpoint 33">
       <r>  -36.0639    1.0000 </r>
       <r>  -14.5309    1.0000 </r>
       <r>  -14.5278    1.0000 </r>
       <r>  -14.5051    1.0000 </r>
       <r>  -14.5008    1.0000 </r>
       <r>  -14.4998    1.0000 </r>
       <r>  -11.3404    1.0000 </r>
       <r>  -11.2654    1.0000 </r>
       <r>  -11.2548    1.0000 </r>
       <r>   -2.8683    1.0000 </r>
       <r>    2.9613    1.0000 </r>
       <r>    3.8713    1.0000 </r>
       <r>    4.0826    1.0000 </r>
       <r>    4.6794    1.0000 </r>
       <r>    4.6798    1.0000 </r>
       <r>    5.0044    1.0000 </r>
       <r>    6.0840    1.0000 </r>
       <r>    6.6564    1.0000 </r>
       <r>    7.8601    1.0000 </r>
       <r>    8.2006    0.0007 </r>
       <r>    8.2170    0.0000 </r>
       <r>    8.3515    0.0000 </r>
       <r>    8.4123    0.0000 </r>
       <r>    8.5069    0.0000 </r>
      </set>
      <set comment="kpoint 34">
       <r>  -36.0637    1.0000 </r>
       <r>  -14.5311    1.0000 </r>
       <r>  -14.5297    1.0000 </r>
       <r>  -14.5047    1.0000 </r>
       <r>  -14.5012    1.0000 </r>
       <r>  -14.4998    1.0000 </r>
       <r>  -11.3458    1.0000 </r>
       <r>  -11.2722    1.0000 </r>
       <r>  -11.2470    1.0000 </r>
       <r>   -2.8097    1.0000 </r>
       <r>    3.0199    1.0000 </r>
       <r>    3.8310    1.0000 </r>
       <r>    3.9552    1.0000 </r>
       <r>    4.6210    1.0000 </r>
       <r>    4.7286    1.0000 </r>
       <r>    4.9088    1.0000 </r>
       <r>    5.9671    1.0000 </r>
       <r>    6.6587    1.0000 </r>
       <r>    7.8763    1.0000 </r>
       <r>    8.2033    0.0002 </r>
       <r>    8.2505    0.0000 </r>
       <r>    8.3825    0.0000 </r>
       <r>    8.3923    0.0000 </r>
       <r>    8.4853    0.0000 </r>
      </set>
      <set comment="kpoint 35">
       <r>  -36.0637    1.0000 </r>
       <r>  -14.5340    1.0000 </r>
       <r>  -14.5285    1.0000 </r>
       <r>  -14.5041    1.0000 </r>
       <r>  -14.5017    1.0000 </r>
       <r>  -14.5000    1.0000 </r>
       <r>  -11.3425    1.0000 </r>
       <r>  -11.2802    1.0000 </r>
       <r>  -11.2393    1.0000 </r>
       <r>   -2.7934    1.0000 </r>
       <r>    3.0016    1.0000 </r>
       <r>    3.8299    1.0000 </r>
       <r>    3.8798    1.0000 </r>
       <r>    4.5751    1.0000 </r>
       <r>    4.7982    1.0000 </r>
       <r>    4.9364    1.0000 </r>
       <r>    5.8854    1.0000 </r>
       <r>    6.6649    1.0000 </r>
       <r>    7.8800    1.0000 </r>
       <r>    8.1860    0.1236 </r>
       <r>    8.2884    0.0000 </r>
       <r>    8.3384    0.0000 </r>
       <r>    8.4184    0.0000 </r>
       <r>    8.4591    0.0000 </r>
      </set>
      <set comment="kpoint 36">
       <r>  -36.0639    1.0000 </r>
       <r>  -14.5358    1.0000 </r>
       <r>  -14.5276    1.0000 </r>
       <r>  -14.5037    1.0000 </r>
       <r>  -14.5019    1.0000 </r>
       <r>  -14.5005    1.0000 </r>
       <r>  -11.3337    1.0000 </r>
       <r>  -11.2851    1.0000 </r>
       <r>  -11.2336    1.0000 </r>
       <r>   -2.8247    1.0000 </r>
       <r>    2.9348    1.0000 </r>
       <r>    3.7358    1.0000 </r>
       <r>    3.9929    1.0000 </r>
       <r>    4.5656    1.0000 </r>
       <r>    4.8588    1.0000 </r>
       <r>    5.0681    1.0000 </r>
       <r>    5.8270    1.0000 </r>
       <r>    6.7014    1.0000 </r>
       <r>    7.8608    1.0000 </r>
       <r>    8.1681    0.9168 </r>
       <r>    8.2801    0.0000 </r>
       <r>    8.3383    0.0000 </r>
       <r>    8.4164    0.0000 </r>
       <r>    8.4456    0.0000 </r>
      </set>
      <set comment="kpoint 37">
       <r>  -36.0642    1.0000 </r>
       <r>  -14.5362    1.0000 </r>
       <r>  -14.5272    1.0000 </r>
       <r>  -14.5038    1.0000 </r>
       <r>  -14.5017    1.0000 </r>
       <r>  -14.5010    1.0000 </r>
       <r>  -11.3257    1.0000 </r>
       <r>  -11.2812    1.0000 </r>
       <r>  -11.2312    1.0000 </r>
       <r>   -2.9010    1.0000 </r>
       <r>    2.9110    1.0000 </r>
       <r>    3.6927    1.0000 </r>
       <r>    4.1183    1.0000 </r>
       <r>    4.5625    1.0000 </r>
       <r>    4.8834    1.0000 </r>
       <r>    5.2085    1.0000 </r>
       <r>    5.8810    1.0000 </r>
       <r>    6.7827    1.0000 </r>
       <r>    7.8161    1.0000 </r>
       <r>    8.1613    0.9903 </r>
       <r>    8.2365    0.0000 </r>
       <r>    8.3635    0.0000 </r>
       <r>    8.4086    0.0000 </r>
       <r>    8.4579    0.0000 </r>
      </set>
      <set comment="kpoint 38">
       <r>  -36.0642    1.0000 </r>
       <r>  -14.5311    1.0000 </r>
       <r>  -14.5216    1.0000 </r>
       <r>  -14.5057    1.0000 </r>
       <r>  -14.5002    1.0000 </r>
       <r>  -14.5002    1.0000 </r>
       <r>  -11.3133    1.0000 </r>
       <r>  -11.2688    1.0000 </r>
       <r>  -11.2688    1.0000 </r>
       <r>   -3.0243    1.0000 </r>
       <r>    2.8836    1.0000 </r>
       <r>    4.2644    1.0000 </r>
       <r>    4.2644    1.0000 </r>
       <r>    4.4313    1.0000 </r>
       <r>    4.6941    1.0000 </r>
       <r>    5.3578    1.0000 </r>
       <r>    6.6111    1.0000 </r>
       <r>    6.6111    1.0000 </r>
       <r>    7.7690    1.0000 </r>
       <r>    8.1889    0.0598 </r>
       <r>    8.1889    0.0598 </r>
       <r>    8.2591    0.0000 </r>
       <r>    8.4627    0.0000 </r>
       <r>    8.6651    0.0000 </r>
      </set>
      <set comment="kpoint 39">
       <r>  -36.0640    1.0000 </r>
       <r>  -14.5293    1.0000 </r>
       <r>  -14.5221    1.0000 </r>
       <r>  -14.5060    1.0000 </r>
       <r>  -14.4998    1.0000 </r>
       <r>  -14.4997    1.0000 </r>
       <r>  -11.3266    1.0000 </r>
       <r>  -11.2708    1.0000 </r>
       <r>  -11.2690    1.0000 </r>
       <r>   -2.9697    1.0000 </r>
       <r>    2.9663    1.0000 </r>
       <r>    4.1290    1.0000 </r>
       <r>    4.2345    1.0000 </r>
       <r>    4.4949    1.0000 </r>
       <r>    4.7132    1.0000 </r>
       <r>    5.1853    1.0000 </r>
       <r>    6.4554    1.0000 </r>
       <r>    6.6210    1.0000 </r>
       <r>    7.8731    1.0000 </r>
       <r>    8.1794    0.4127 </r>
       <r>    8.2011    0.0005 </r>
       <r>    8.2722    0.0000 </r>
       <r>    8.4777    0.0000 </r>
       <r>    8.5915    0.0000 </r>
      </set>
      <set comment="kpoint 40">
       <r>  -36.0638    1.0000 </r>
       <r>  -14.5276    1.0000 </r>
       <r>  -14.5242    1.0000 </r>
       <r>  -14.5059    1.0000 </r>
       <r>  -14.5000    1.0000 </r>
       <r>  -14.4994    1.0000 </r>
       <r>  -11.3364    1.0000 </r>
       <r>  -11.2760    1.0000 </r>
       <r>  -11.2650    1.0000 </r>
       <r>   -2.9130    1.0000 </r>
       <r>    3.1166    1.0000 </r>
       <r>    3.9697    1.0000 </r>
       <r>    4.1575    1.0000 </r>
       <r>    4.5878    1.0000 </r>
       <r>    4.7324    1.0000 </r>
       <r>    5.0067    1.0000 </r>
       <r>    6.1430    1.0000 </r>
       <r>    6.6311    1.0000 </r>
       <r>    7.9472    1.0000 </r>
       <r>    8.1844    0.1766 </r>
       <r>    8.2202    0.0000 </r>
       <r>    8.3121    0.0000 </r>
       <r>    8.4726    0.0000 </r>
       <r>    8.5308    0.0000 </r>
      </set>
      <set comment="kpoint 41">
       <r>  -36.0636    1.0000 </r>
       <r>  -14.5273    1.0000 </r>
       <r>  -14.5263    1.0000 </r>
       <r>  -14.5054    1.0000 </r>
       <r>  -14.5005    1.0000 </r>
       <r>  -14.4993    1.0000 </r>
       <r>  -11.3379    1.0000 </r>
       <r>  -11.2858    1.0000 </r>
       <r>  -11.2576    1.0000 </r>
       <r>   -2.8630    1.0000 </r>
       <r>    3.2597    1.0000 </r>
       <r>    3.8633    1.0000 </r>
       <r>    4.0425    1.0000 </r>
       <r>    4.5877    1.0000 </r>
       <r>    4.7715    1.0000 </r>
       <r>    4.9410    1.0000 </r>
       <r>    5.8495    1.0000 </r>
       <r>    6.6209    1.0000 </r>
       <r>    7.9595    1.0000 </r>
       <r>    8.1931    0.0153 </r>
       <r>    8.2462    0.0000 </r>
       <r>    8.3719    0.0000 </r>
       <r>    8.4440    0.0000 </r>
       <r>    8.4829    0.0000 </r>
      </set>
      <set comment="kpoint 42">
       <r>  -36.0636    1.0000 </r>
       <r>  -14.5308    1.0000 </r>
       <r>  -14.5259    1.0000 </r>
       <r>  -14.5044    1.0000 </r>
       <r>  -14.5013    1.0000 </r>
       <r>  -14.4996    1.0000 </r>
       <r>  -11.3314    1.0000 </r>
       <r>  -11.2978    1.0000 </r>
       <r>  -11.2485    1.0000 </r>
       <r>   -2.8265    1.0000 </r>
       <r>    3.2664    1.0000 </r>
       <r>    3.8327    1.0000 </r>
       <r>    3.9155    1.0000 </r>
       <r>    4.5478    1.0000 </r>
       <r>    4.8214    1.0000 </r>
       <r>    5.0132    1.0000 </r>
       <r>    5.6544    1.0000 </r>
       <r>    6.6089    1.0000 </r>
       <r>    7.9505    1.0000 </r>
       <r>    8.1840    0.1932 </r>
       <r>    8.2764    0.0000 </r>
       <r>    8.3884    0.0000 </r>
       <r>    8.4105    0.0000 </r>
       <r>    8.4730    0.0000 </r>
      </set>
      <set comment="kpoint 43">
       <r>  -36.0637    1.0000 </r>
       <r>  -14.5339    1.0000 </r>
       <r>  -14.5264    1.0000 </r>
       <r>  -14.5035    1.0000 </r>
       <r>  -14.5022    1.0000 </r>
       <r>  -14.5000    1.0000 </r>
       <r>  -11.3263    1.0000 </r>
       <r>  -11.3012    1.0000 </r>
       <r>  -11.2399    1.0000 </r>
       <r>   -2.8111    1.0000 </r>
       <r>    3.1086    1.0000 </r>
       <r>    3.8055    1.0000 </r>
       <r>    3.8932    1.0000 </r>
       <r>    4.5546    1.0000 </r>
       <r>    4.8572    1.0000 </r>
       <r>    5.1006    1.0000 </r>
       <r>    5.6173    1.0000 </r>
       <r>    6.6298    1.0000 </r>
       <r>    7.9211    1.0000 </r>
       <r>    8.1702    0.8604 </r>
       <r>    8.3078    0.0000 </r>
       <r>    8.3316    0.0000 </r>
       <r>    8.4140    0.0000 </r>
       <r>    8.4616    0.0000 </r>
      </set>
      <set comment="kpoint 44">
       <r>  -36.0638    1.0000 </r>
       <r>  -14.5266    1.0000 </r>
       <r>  -14.5209    1.0000 </r>
       <r>  -14.5065    1.0000 </r>
       <r>  -14.4992    1.0000 </r>
       <r>  -14.4992    1.0000 </r>
       <r>  -11.3353    1.0000 </r>
       <r>  -11.2731    1.0000 </r>
       <r>  -11.2731    1.0000 </r>
       <r>   -2.9633    1.0000 </r>
       <r>    3.1048    1.0000 </r>
       <r>    4.2434    1.0000 </r>
       <r>    4.2434    1.0000 </r>
       <r>    4.3143    1.0000 </r>
       <r>    4.7432    1.0000 </r>
       <r>    5.0195    1.0000 </r>
       <r>    6.6407    1.0000 </r>
       <r>    6.6407    1.0000 </r>
       <r>    7.9224    1.0000 </r>
       <r>    8.2109    0.0000 </r>
       <r>    8.2109    0.0000 </r>
       <r>    8.2227    0.0000 </r>
       <r>    8.5128    0.0000 </r>
       <r>    8.6681    0.0000 </r>
      </set>
      <set comment="kpoint 45">
       <r>  -36.0636    1.0000 </r>
       <r>  -14.5246    1.0000 </r>
       <r>  -14.5216    1.0000 </r>
       <r>  -14.5066    1.0000 </r>
       <r>  -14.4991    1.0000 </r>
       <r>  -14.4990    1.0000 </r>
       <r>  -11.3424    1.0000 </r>
       <r>  -11.2766    1.0000 </r>
       <r>  -11.2724    1.0000 </r>
       <r>   -2.9424    1.0000 </r>
       <r>    3.2915    1.0000 </r>
       <r>    4.0898    1.0000 </r>
       <r>    4.2081    1.0000 </r>
       <r>    4.4236    1.0000 </r>
       <r>    4.7614    1.0000 </r>
       <r>    4.8321    1.0000 </r>
       <r>    6.4807    1.0000 </r>
       <r>    6.6577    1.0000 </r>
       <r>    8.0332    1.0000 </r>
       <r>    8.1814    0.3066 </r>
       <r>    8.2244    0.0000 </r>
       <r>    8.2694    0.0000 </r>
       <r>    8.5243    0.0000 </r>
       <r>    8.5485    0.0000 </r>
      </set>
      <set comment="kpoint 46">
       <r>  -36.0635    1.0000 </r>
       <r>  -14.5238    1.0000 </r>
       <r>  -14.5237    1.0000 </r>
       <r>  -14.5063    1.0000 </r>
       <r>  -14.4995    1.0000 </r>
       <r>  -14.4989    1.0000 </r>
       <r>  -11.3420    1.0000 </r>
       <r>  -11.2851    1.0000 </r>
       <r>  -11.2672    1.0000 </r>
       <r>   -2.9097    1.0000 </r>
       <r>    3.4522    1.0000 </r>
       <r>    3.9478    1.0000 </r>
       <r>    4.1291    1.0000 </r>
       <r>    4.5122    1.0000 </r>
       <r>    4.7553    1.0000 </r>
       <r>    4.7862    1.0000 </r>
       <r>    6.1114    1.0000 </r>
       <r>    6.6406    1.0000 </r>
       <r>    8.0454    1.0000 </r>
       <r>    8.1879    0.0785 </r>
       <r>    8.2411    0.0000 </r>
       <r>    8.3539    0.0000 </r>
       <r>    8.4652    0.0000 </r>
       <r>    8.5178    0.0000 </r>
      </set>
      <set comment="kpoint 47">
       <r>  -36.0635    1.0000 </r>
       <r>  -14.5271    1.0000 </r>
       <r>  -14.5242    1.0000 </r>
       <r>  -14.5054    1.0000 </r>
       <r>  -14.5004    1.0000 </r>
       <r>  -14.4991    1.0000 </r>
       <r>  -11.3342    1.0000 </r>
       <r>  -11.2965    1.0000 </r>
       <r>  -11.2586    1.0000 </r>
       <r>   -2.8688    1.0000 </r>
       <r>    3.4628    1.0000 </r>
       <r>    3.8490    1.0000 </r>
       <r>    4.0232    1.0000 </r>
       <r>    4.5137    1.0000 </r>
       <r>    4.8131    1.0000 </r>
       <r>    4.8951    1.0000 </r>
       <r>    5.7679    1.0000 </r>
       <r>    6.6091    1.0000 </r>
       <r>    8.0041    1.0000 </r>
       <r>    8.1893    0.0534 </r>
       <r>    8.2590    0.0000 </r>
       <r>    8.4100    0.0000 </r>
       <r>    8.4597    0.0000 </r>
       <r>    8.4744    0.0000 </r>
      </set>
      <set comment="kpoint 48">
       <r>  -36.0635    1.0000 </r>
       <r>  -14.5228    1.0000 </r>
       <r>  -14.5206    1.0000 </r>
       <r>  -14.5070    1.0000 </r>
       <r>  -14.4987    1.0000 </r>
       <r>  -14.4987    1.0000 </r>
       <r>  -11.3489    1.0000 </r>
       <r>  -11.2756    1.0000 </r>
       <r>  -11.2756    1.0000 </r>
       <r>   -2.9523    1.0000 </r>
       <r>    3.4614    1.0000 </r>
       <r>    4.2234    1.0000 </r>
       <r>    4.2234    1.0000 </r>
       <r>    4.2456    1.0000 </r>
       <r>    4.6528    1.0000 </r>
       <r>    4.7716    1.0000 </r>
       <r>    6.6895    1.0000 </r>
       <r>    6.6895    1.0000 </r>
       <r>    8.1342    1.0000 </r>
       <r>    8.2037    0.0001 </r>
       <r>    8.2297    0.0000 </r>
       <r>    8.2297    0.0000 </r>
       <r>    8.4861    0.0000 </r>
       <r>    8.5460    0.0000 </r>
      </set>
      <set comment="kpoint 49">
       <r>  -36.0635    1.0000 </r>
       <r>  -14.5224    1.0000 </r>
       <r>  -14.5214    1.0000 </r>
       <r>  -14.5069    1.0000 </r>
       <r>  -14.4988    1.0000 </r>
       <r>  -14.4987    1.0000 </r>
       <r>  -11.3486    1.0000 </r>
       <r>  -11.2787    1.0000 </r>
       <r>  -11.2737    1.0000 </r>
       <r>   -2.9410    1.0000 </r>
       <r>    3.5369    1.0000 </r>
       <r>    4.0724    1.0000 </r>
       <r>    4.1952    1.0000 </r>
       <r>    4.3960    1.0000 </r>
       <r>    4.5957    1.0000 </r>
       <r>    4.7803    1.0000 </r>
       <r>    6.5027    1.0000 </r>
       <r>    6.6808    1.0000 </r>
       <r>    8.1343    1.0000 </r>
       <r>    8.1849    0.1580 </r>
       <r>    8.2355    0.0000 </r>
       <r>    8.3212    0.0000 </r>
       <r>    8.4238    0.0000 </r>
       <r>    8.5454    0.0000 </r>
      </set>
      <set comment="kpoint 50">
       <r>  -36.0652    1.0000 </r>
       <r>  -14.5305    1.0000 </r>
       <r>  -14.5245    1.0000 </r>
       <r>  -14.5037    1.0000 </r>
       <r>  -14.5021    1.0000 </r>
       <r>  -14.5020    1.0000 </r>
       <r>  -11.2856    1.0000 </r>
       <r>  -11.2611    1.0000 </r>
       <r>  -11.2470    1.0000 </r>
       <r>   -3.2970    1.0000 </r>
       <r>    3.3529    1.0000 </r>
       <r>    3.9951    1.0000 </r>
       <r>    4.2401    1.0000 </r>
       <r>    4.5879    1.0000 </r>
       <r>    4.7461    1.0000 </r>
       <r>    5.6697    1.0000 </r>
       <r>    6.6562    1.0000 </r>
       <r>    6.9811    1.0000 </r>
       <r>    7.6897    1.0000 </r>
       <r>    8.1469    1.0000 </r>
       <r>    8.1700    0.8664 </r>
       <r>    8.2950    0.0000 </r>
       <r>    8.3631    0.0000 </r>
       <r>    8.4460    0.0000 </r>
      </set>
      <set comment="kpoint 51">
       <r>  -36.0648    1.0000 </r>
       <r>  -14.5329    1.0000 </r>
       <r>  -14.5259    1.0000 </r>
       <r>  -14.5040    1.0000 </r>
       <r>  -14.5017    1.0000 </r>
       <r>  -14.5015    1.0000 </r>
       <r>  -11.3066    1.0000 </r>
       <r>  -11.2618    1.0000 </r>
       <r>  -11.2411    1.0000 </r>
       <r>   -3.1418    1.0000 </r>
       <r>    3.1126    1.0000 </r>
       <r>    3.8671    1.0000 </r>
       <r>    4.1991    1.0000 </r>
       <r>    4.6040    1.0000 </r>
[...]
       <r>    7.9666    1.0000 </r>
       <r>    8.2057    0.0000 </r>
       <r>    8.3139    0.0000 </r>
       <r>    8.3692    0.0000 </r>
       <r>    8.4124    0.0000 </r>
       <r>    8.4771    0.0000 </r>
      </set>
      <set comment="kpoint 81">
       <r>  -36.0636    1.0000 </r>
       <r>  -14.5321    1.0000 </r>
       <r>  -14.5248    1.0000 </r>
       <r>  -14.5039    1.0000 </r>
       <r>  -14.5023    1.0000 </r>
       <r>  -14.4993    1.0000 </r>
       <r>  -11.3269    1.0000 </r>
       <r>  -11.2979    1.0000 </r>
       <r>  -11.2509    1.0000 </r>
       <r>   -2.8334    1.0000 </r>
       <r>    3.2258    1.0000 </r>
       <r>    3.7255    1.0000 </r>
       <r>    4.0995    1.0000 </r>
       <r>    4.6176    1.0000 </r>
       <r>    4.7947    1.0000 </r>
       <r>    5.0602    1.0000 </r>
       <r>    5.4563    1.0000 </r>
       <r>    6.6959    1.0000 </r>
       <r>    7.9482    1.0000 </r>
       <r>    8.1926    0.0187 </r>
       <r>    8.3072    0.0000 </r>
       <r>    8.3582    0.0000 </r>
       <r>    8.3967    0.0000 </r>
       <r>    8.4823    0.0000 </r>
      </set>
      <set comment="kpoint 82">
       <r>  -36.0635    1.0000 </r>
       <r>  -14.5276    1.0000 </r>
       <r>  -14.5222    1.0000 </r>
       <r>  -14.5056    1.0000 </r>
       <r>  -14.5007    1.0000 </r>
       <r>  -14.4987    1.0000 </r>
       <r>  -11.3353    1.0000 </r>
       <r>  -11.2891    1.0000 </r>
       <r>  -11.2673    1.0000 </r>
       <r>   -2.8836    1.0000 </r>
       <r>    3.4766    1.0000 </r>
       <r>    3.7990    1.0000 </r>
       <r>    4.2069    1.0000 </r>
       <r>    4.6118    1.0000 </r>
       <r>    4.7459    1.0000 </r>
       <r>    4.8190    1.0000 </r>
       <r>    5.6370    1.0000 </r>
       <r>    6.7386    1.0000 </r>
       <r>    8.0156    1.0000 </r>
       <r>    8.2067    0.0000 </r>
       <r>    8.2739    0.0000 </r>
       <r>    8.3850    0.0000 </r>
       <r>    8.4502    0.0000 </r>
       <r>    8.4766    0.0000 </r>
      </set>
      <set comment="kpoint 83">
       <r>  -36.0635    1.0000 </r>
       <r>  -14.5294    1.0000 </r>
       <r>  -14.5222    1.0000 </r>
       <r>  -14.5048    1.0000 </r>
       <r>  -14.5016    1.0000 </r>
       <r>  -14.4987    1.0000 </r>
       <r>  -11.3285    1.0000 </r>
       <r>  -11.2974    1.0000 </r>
       <r>  -11.2641    1.0000 </r>
       <r>   -2.8606    1.0000 </r>
       <r>    3.5264    1.0000 </r>
       <r>    3.7218    1.0000 </r>
       <r>    4.1802    1.0000 </r>
       <r>    4.6070    1.0000 </r>
       <r>    4.7962    1.0000 </r>
       <r>    4.8944    1.0000 </r>
       <r>    5.3565    1.0000 </r>
       <r>    6.7382    1.0000 </r>
       <r>    7.9972    1.0000 </r>
       <r>    8.2155    0.0000 </r>
       <r>    8.2983    0.0000 </r>
       <r>    8.4037    0.0000 </r>
       <r>    8.4348    0.0000 </r>
       <r>    8.4480    0.0000 </r>
      </set>
      <set comment="kpoint 84">
       <r>  -36.0635    1.0000 </r>
       <r>  -14.5305    1.0000 </r>
       <r>  -14.5222    1.0000 </r>
       <r>  -14.5041    1.0000 </r>
       <r>  -14.5024    1.0000 </r>
       <r>  -14.4987    1.0000 </r>
       <r>  -11.3244    1.0000 </r>
       <r>  -11.3005    1.0000 </r>
       <r>  -11.2633    1.0000 </r>
       <r>   -2.8505    1.0000 </r>
       <r>    3.5104    1.0000 </r>
       <r>    3.6858    1.0000 </r>
       <r>    4.1916    1.0000 </r>
       <r>    4.6562    1.0000 </r>
       <r>    4.8132    1.0000 </r>
       <r>    4.9634    1.0000 </r>
       <r>    5.1611    1.0000 </r>
       <r>    6.7527    1.0000 </r>
       <r>    7.9863    1.0000 </r>
       <r>    8.2205    0.0000 </r>
       <r>    8.3229    0.0000 </r>
       <r>    8.3789    0.0000 </r>
       <r>    8.4191    0.0000 </r>
       <r>    8.4654    0.0000 </r>
      </set>
     </set>
    </set>
   </array>
  </eigenvalues>
  <separator name="orbital magnetization" >
   <v name="MAGDIPOLOUT">      0.00000000      0.00000000      0.00000000</v>
  </separator>
  <dos>
   <i name="efermi">      8.17785107 </i>
   <total>
    <array>
     <dimension dim="1">gridpoints</dimension>
     <dimension dim="2">spin</dimension>
     <field>energy</field>
     <field>total</field>
     <field>integrated</field>
     <set>
      <set comment="spin 1">
       <r>   -38.3025     0.0000     0.0000 </r>
       <r>   -38.1385     0.0000     0.0000 </r>
       <r>   -37.9744     0.0000     0.0000 </r>
       <r>   -37.8104     0.0000     0.0000 </r>
       <r>   -37.6464     0.0000     0.0000 </r>
       <r>   -37.4824     0.0000     0.0000 </r>
       <r>   -37.3184     0.0000     0.0000 </r>
       <r>   -37.1543     0.0000     0.0000 </r>
       <r>   -36.9903     0.0000     0.0000 </r>
       <r>   -36.8263     0.0000     0.0000 </r>
       <r>   -36.6623     0.0000     0.0000 </r>
       <r>   -36.4982     0.0000     0.0000 </r>
       <r>   -36.3342     0.0000     0.0000 </r>
       <r>   -36.1702     0.0000     0.0000 </r>
       <r>   -36.0062    12.1933     2.0000 </r>
       <r>   -35.8421     0.0000     2.0000 </r>
       <r>   -35.6781     0.0000     2.0000 </r>
       <r>   -35.5141     0.0000     2.0000 </r>
       <r>   -35.3501     0.0000     2.0000 </r>
       <r>   -35.1860     0.0000     2.0000 </r>
       <r>   -35.0220     0.0000     2.0000 </r>
       <r>   -34.8580     0.0000     2.0000 </r>
       <r>   -34.6940     0.0000     2.0000 </r>
       <r>   -34.5299     0.0000     2.0000 </r>
       <r>   -34.3659     0.0000     2.0000 </r>
       <r>   -34.2019     0.0000     2.0000 </r>
       <r>   -34.0379     0.0000     2.0000 </r>
       <r>   -33.8738     0.0000     2.0000 </r>
       <r>   -33.7098     0.0000     2.0000 </r>
       <r>   -33.5458     0.0000     2.0000 </r>
       <r>   -33.3818     0.0000     2.0000 </r>
       <r>   -33.2177     0.0000     2.0000 </r>
       <r>   -33.0537     0.0000     2.0000 </r>
       <r>   -32.8897     0.0000     2.0000 </r>
       <r>   -32.7257     0.0000     2.0000 </r>
       <r>   -32.5616     0.0000     2.0000 </r>
       <r>   -32.3976     0.0000     2.0000 </r>
       <r>   -32.2336     0.0000     2.0000 </r>
       <r>   -32.0696     0.0000     2.0000 </r>
       <r>   -31.9055     0.0000     2.0000 </r>
       <r>   -31.7415     0.0000     2.0000 </r>
       <r>   -31.5775     0.0000     2.0000 </r>
       <r>   -31.4135     0.0000     2.0000 </r>
       <r>   -31.2494     0.0000     2.0000 </r>
       <r>   -31.0854     0.0000     2.0000 </r>
       <r>   -30.9214     0.0000     2.0000 </r>
       <r>   -30.7574     0.0000     2.0000 </r>
       <r>   -30.5934     0.0000     2.0000 </r>
       <r>   -30.4293     0.0000     2.0000 </r>
       <r>   -30.2653     0.0000     2.0000 </r>
       <r>   -30.1013     0.0000     2.0000 </r>
       <r>   -29.9373     0.0000     2.0000 </r>
       <r>   -29.7732     0.0000     2.0000 </r>
       <r>   -29.6092     0.0000     2.0000 </r>
       <r>   -29.4452     0.0000     2.0000 </r>
       <r>   -29.2812     0.0000     2.0000 </r>
       <r>   -29.1171     0.0000     2.0000 </r>
       <r>   -28.9531     0.0000     2.0000 </r>
       <r>   -28.7891     0.0000     2.0000 </r>
       <r>   -28.6251     0.0000     2.0000 </r>
       <r>   -28.4610     0.0000     2.0000 </r>
       <r>   -28.2970     0.0000     2.0000 </r>
       <r>   -28.1330     0.0000     2.0000 </r>
       <r>   -27.9690     0.0000     2.0000 </r>
       <r>   -27.8049     0.0000     2.0000 </r>
       <r>   -27.6409     0.0000     2.0000 </r>
       <r>   -27.4769     0.0000     2.0000 </r>
       <r>   -27.3129     0.0000     2.0000 </r>
       <r>   -27.1488     0.0000     2.0000 </r>
       <r>   -26.9848     0.0000     2.0000 </r>
       <r>   -26.8208     0.0000     2.0000 </r>
       <r>   -26.6568     0.0000     2.0000 </r>
       <r>   -26.4927     0.0000     2.0000 </r>
       <r>   -26.3287     0.0000     2.0000 </r>
       <r>   -26.1647     0.0000     2.0000 </r>
       <r>   -26.0007     0.0000     2.0000 </r>
       <r>   -25.8366     0.0000     2.0000 </r>
       <r>   -25.6726     0.0000     2.0000 </r>
       <r>   -25.5086     0.0000     2.0000 </r>
       <r>   -25.3446     0.0000     2.0000 </r>
       <r>   -25.1805     0.0000     2.0000 </r>
       <r>   -25.0165     0.0000     2.0000 </r>
       <r>   -24.8525     0.0000     2.0000 </r>
       <r>   -24.6885     0.0000     2.0000 </r>
       <r>   -24.5245     0.0000     2.0000 </r>
       <r>   -24.3604     0.0000     2.0000 </r>
       <r>   -24.1964     0.0000     2.0000 </r>
       <r>   -24.0324     0.0000     2.0000 </r>
       <r>   -23.8684     0.0000     2.0000 </r>
       <r>   -23.7043     0.0000     2.0000 </r>
       <r>   -23.5403     0.0000     2.0000 </r>
       <r>   -23.3763     0.0000     2.0000 </r>
       <r>   -23.2123     0.0000     2.0000 </r>
       <r>   -23.0482     0.0000     2.0000 </r>
       <r>   -22.8842     0.0000     2.0000 </r>
       <r>   -22.7202     0.0000     2.0000 </r>
       <r>   -22.5562     0.0000     2.0000 </r>
       <r>   -22.3921     0.0000     2.0000 </r>
       <r>   -22.2281     0.0000     2.0000 </r>
       <r>   -22.0641     0.0000     2.0000 </r>
       <r>   -21.9001     0.0000     2.0000 </r>
       <r>   -21.7360     0.0000     2.0000 </r>
       <r>   -21.5720     0.0000     2.0000 </r>
       <r>   -21.4080     0.0000     2.0000 </r>
       <r>   -21.2440     0.0000     2.0000 </r>
       <r>   -21.0799     0.0000     2.0000 </r>
       <r>   -20.9159     0.0000     2.0000 </r>
       <r>   -20.7519     0.0000     2.0000 </r>
       <r>   -20.5879     0.0000     2.0000 </r>
       <r>   -20.4238     0.0000     2.0000 </r>
       <r>   -20.2598     0.0000     2.0000 </r>
       <r>   -20.0958     0.0000     2.0000 </r>
       <r>   -19.9318     0.0000     2.0000 </r>
       <r>   -19.7677     0.0000     2.0000 </r>
       <r>   -19.6037     0.0000     2.0000 </r>
       <r>   -19.4397     0.0000     2.0000 </r>
       <r>   -19.2757     0.0000     2.0000 </r>
       <r>   -19.1116     0.0000     2.0000 </r>
       <r>   -18.9476     0.0000     2.0000 </r>
       <r>   -18.7836     0.0000     2.0000 </r>
       <r>   -18.6196     0.0000     2.0000 </r>
       <r>   -18.4556     0.0000     2.0000 </r>
       <r>   -18.2915     0.0000     2.0000 </r>
       <r>   -18.1275     0.0000     2.0000 </r>
       <r>   -17.9635     0.0000     2.0000 </r>
       <r>   -17.7995     0.0000     2.0000 </r>
       <r>   -17.6354     0.0000     2.0000 </r>
       <r>   -17.4714     0.0000     2.0000 </r>
       <r>   -17.3074     0.0000     2.0000 </r>
       <r>   -17.1434     0.0000     2.0000 </r>
       <r>   -16.9793     0.0000     2.0000 </r>
       <r>   -16.8153     0.0000     2.0000 </r>
       <r>   -16.6513     0.0000     2.0000 </r>
       <r>   -16.4873     0.0000     2.0000 </r>
       <r>   -16.3232     0.0000     2.0000 </r>
       <r>   -16.1592     0.0000     2.0000 </r>
       <r>   -15.9952     0.0000     2.0000 </r>
       <r>   -15.8312     0.0000     2.0000 </r>
       <r>   -15.6671     0.0000     2.0000 </r>
       <r>   -15.5031     0.0000     2.0000 </r>
       <r>   -15.3391     0.0000     2.0000 </r>
       <r>   -15.1751     0.0000     2.0000 </r>
       <r>   -15.0110     0.0000     2.0000 </r>
       <r>   -14.8470     0.0000     2.0000 </r>
       <r>   -14.6830     0.0000     2.0000 </r>
       <r>   -14.5190    22.1932     5.6402 </r>
       <r>   -14.3549     0.0000    12.0000 </r>
       <r>   -14.1909     0.0000    12.0000 </r>
       <r>   -14.0269     0.0000    12.0000 </r>
       <r>   -13.8629     0.0000    12.0000 </r>
       <r>   -13.6988     0.0000    12.0000 </r>
       <r>   -13.5348     0.0000    12.0000 </r>
       <r>   -13.3708     0.0000    12.0000 </r>
       <r>   -13.2068     0.0000    12.0000 </r>
       <r>   -13.0427     0.0000    12.0000 </r>
       <r>   -12.8787     0.0000    12.0000 </r>
       <r>   -12.7147     0.0000    12.0000 </r>
       <r>   -12.5507     0.0000    12.0000 </r>
       <r>   -12.3867     0.0000    12.0000 </r>
       <r>   -12.2226     0.0000    12.0000 </r>
       <r>   -12.0586     0.0000    12.0000 </r>
       <r>   -11.8946     0.0000    12.0000 </r>
       <r>   -11.7306     0.0000    12.0000 </r>
       <r>   -11.5665     0.0000    12.0000 </r>
       <r>   -11.4025     0.0000    12.0000 </r>
       <r>   -11.2385    22.9132    17.4297 </r>
       <r>   -11.0745     0.0000    18.0000 </r>
       <r>   -10.9104     0.0000    18.0000 </r>
       <r>   -10.7464     0.0000    18.0000 </r>
       <r>   -10.5824     0.0000    18.0000 </r>
       <r>   -10.4184     0.0000    18.0000 </r>
       <r>   -10.2543     0.0000    18.0000 </r>
       <r>   -10.0903     0.0000    18.0000 </r>
       <r>    -9.9263     0.0000    18.0000 </r>
       <r>    -9.7623     0.0000    18.0000 </r>
       <r>    -9.5982     0.0000    18.0000 </r>
       <r>    -9.4342     0.0000    18.0000 </r>
       <r>    -9.2702     0.0000    18.0000 </r>
       <r>    -9.1062     0.0000    18.0000 </r>
       <r>    -8.9421     0.0000    18.0000 </r>
       <r>    -8.7781     0.0000    18.0000 </r>
       <r>    -8.6141     0.0000    18.0000 </r>
       <r>    -8.4501     0.0000    18.0000 </r>
       <r>    -8.2860     0.0000    18.0000 </r>
       <r>    -8.1220     0.0000    18.0000 </r>
       <r>    -7.9580     0.0000    18.0000 </r>
       <r>    -7.7940     0.0000    18.0000 </r>
       <r>    -7.6299     0.0000    18.0000 </r>
       <r>    -7.4659     0.0000    18.0000 </r>
       <r>    -7.3019     0.0000    18.0000 </r>
       <r>    -7.1379     0.0000    18.0000 </r>
       <r>    -6.9738     0.0000    18.0000 </r>
       <r>    -6.8098     0.0000    18.0000 </r>
       <r>    -6.6458     0.0000    18.0000 </r>
       <r>    -6.4818     0.0000    18.0000 </r>
       <r>    -6.3177     0.0000    18.0000 </r>
       <r>    -6.1537     0.0000    18.0000 </r>
       <r>    -5.9897     0.0000    18.0000 </r>
       <r>    -5.8257     0.0000    18.0000 </r>
       <r>    -5.6617     0.0000    18.0000 </r>
       <r>    -5.4976     0.0000    18.0000 </r>
       <r>    -5.3336     0.0000    18.0000 </r>
       <r>    -5.1696     0.0000    18.0000 </r>
       <r>    -5.0056     0.0000    18.0000 </r>
       <r>    -4.8415     0.0000    18.0000 </r>
       <r>    -4.6775     0.0000    18.0000 </r>
       <r>    -4.5135     0.0000    18.0000 </r>
       <r>    -4.3495     0.0000    18.0000 </r>
       <r>    -4.1854     0.0000    18.0000 </r>
       <r>    -4.0214     0.0000    18.0000 </r>
       <r>    -3.8574     0.0000    18.0000 </r>
       <r>    -3.6934     0.0000    18.0000 </r>
       <r>    -3.5293     0.0078    18.0013 </r>
       <r>    -3.3653     0.1779    18.0538 </r>
       <r>    -3.2013     0.3015    18.1523 </r>
       <r>    -3.0373     0.4007    18.3233 </r>
       <r>    -2.8732     2.9076    19.0149 </r>
       <r>    -2.7092     1.1100    20.0000 </r>
       <r>    -2.5452     0.0000    20.0000 </r>
       <r>    -2.3812     0.0000    20.0000 </r>
       <r>    -2.2171     0.0000    20.0000 </r>
       <r>    -2.0531     0.0000    20.0000 </r>
       <r>    -1.8891     0.0000    20.0000 </r>
       <r>    -1.7251     0.0000    20.0000 </r>
       <r>    -1.5610     0.0000    20.0000 </r>
       <r>    -1.3970     0.0000    20.0000 </r>
       <r>    -1.2330     0.0000    20.0000 </r>
       <r>    -1.0690     0.0000    20.0000 </r>
       <r>    -0.9049     0.0000    20.0000 </r>
       <r>    -0.7409     0.0000    20.0000 </r>
       <r>    -0.5769     0.0000    20.0000 </r>
       <r>    -0.4129     0.0000    20.0000 </r>
       <r>    -0.2488     0.0000    20.0000 </r>
       <r>    -0.0848     0.0000    20.0000 </r>
       <r>     0.0792     0.0000    20.0000 </r>
       <r>     0.2432     0.0000    20.0000 </r>
       <r>     0.4072     0.0000    20.0000 </r>
       <r>     0.5713     0.0000    20.0000 </r>
       <r>     0.7353     0.0000    20.0000 </r>
       <r>     0.8993     0.0000    20.0000 </r>
       <r>     1.0633     0.0000    20.0000 </r>
       <r>     1.2274     0.0000    20.0000 </r>
       <r>     1.3914     0.0000    20.0000 </r>
       <r>     1.5554     0.0000    20.0000 </r>
       <r>     1.7194     0.0000    20.0000 </r>
       <r>     1.8835     0.0000    20.0000 </r>
       <r>     2.0475     0.0000    20.0000 </r>
       <r>     2.2115     0.0000    20.0000 </r>
       <r>     2.3755     0.0000    20.0000 </r>
       <r>     2.5396     0.0000    20.0000 </r>
       <r>     2.7036     0.2696    20.0515 </r>
       <r>     2.8676     1.0034    20.2884 </r>
       <r>     3.0316     1.7465    21.0384 </r>
       <r>     3.1957     1.4463    21.4116 </r>
       <r>     3.3597     1.0931    21.6704 </r>
       <r>     3.5237     0.8423    21.9042 </r>
       <r>     3.6877     0.2332    21.9845 </r>
       <r>     3.8518     4.6047    23.2550 </r>
       <r>     4.0158     3.5984    24.3772 </r>
       <r>     4.1798     3.7017    25.4101 </r>
       <r>     4.3438     0.0999    26.0109 </r>
       <r>     4.5079     0.3816    26.1063 </r>
       <r>     4.6719     8.1482    28.1722 </r>
       <r>     4.8359     5.6302    30.1442 </r>
       <r>     4.9999     2.1019    30.9547 </r>
       <r>     5.1640     1.2080    31.5199 </r>
       <r>     5.3280     0.5934    31.7250 </r>
       <r>     5.4920     0.8257    31.9725 </r>
       <r>     5.6560     0.9301    32.1972 </r>
       <r>     5.8201     0.6171    32.4754 </r>
       <r>     5.9841     0.9187    32.7597 </r>
       <r>     6.1481     0.7733    33.0763 </r>
       <r>     6.3121     0.6163    33.2699 </r>
       <r>     6.4761     0.9670    33.5787 </r>
       <r>     6.6402     1.2367    33.8524 </r>
       <r>     6.8042     2.5662    35.4359 </r>
       <r>     6.9682     0.6917    35.8349 </r>
       <r>     7.1322     0.2878    35.9726 </r>
       <r>     7.2963     0.0167    36.0009 </r>
       <r>     7.4603     0.1058    36.0255 </r>
       <r>     7.6243     0.9672    36.2124 </r>
       <r>     7.7883     2.5333    36.7332 </r>
       <r>     7.9524     2.5994    37.5525 </r>
       <r>     8.1164     0.6045    38.0172 </r>
       <r>     8.2804     9.8236    41.7861 </r>
       <r>     8.4444    13.8393    45.8385 </r>
       <r>     8.6085     2.0857    47.9889 </r>
       <r>     8.7725     0.0000    48.0000 </r>
       <r>     8.9365     0.0000    48.0000 </r>
       <r>     9.1005     0.0000    48.0000 </r>
       <r>     9.2646     0.0000    48.0000 </r>
       <r>     9.4286     0.0000    48.0000 </r>
       <r>     9.5926     0.0000    48.0000 </r>
       <r>     9.7566     0.0000    48.0000 </r>
       <r>     9.9207     0.0000    48.0000 </r>
       <r>    10.0847     0.0000    48.0000 </r>
       <r>    10.2487     0.0000    48.0000 </r>
       <r>    10.4127     0.0000    48.0000 </r>
       <r>    10.5768     0.0000    48.0000 </r>
       <r>    10.7408     0.0000    48.0000 </r>
       <r>    10.9048     0.0000    48.0000 </r>
      </set>
     </set>
    </array>
   </total>
  </dos>
 </calculation>
 <structure name="finalpos" >
  <crystal>
   <varray name="basis" >
    <v>       0.00000000       3.48590370       3.48590370 </v>
    <v>       3.48590370       0.00000000       3.48590370 </v>
    <v>       3.48590370       3.48590370       0.00000000 </v>
   </varray>
   <i name="volume">     84.71808950 </i>
   <varray name="rec_basis" >
    <v>      -0.14343483       0.14343483       0.14343483 </v>
    <v>       0.14343483      -0.14343483       0.14343483 </v>
    <v>       0.14343483       0.14343483      -0.14343483 </v>
   </varray>
  </crystal>
  <varray name="positions" >
   <v>       0.25000000       0.25000000       0.25000000 </v>
   <v>       0.75000000       0.75000000       0.75000000 </v>
   <v>       0.00000000       0.00000000       0.00000000 </v>
  </varray>
 </structure>
</modeling>
