   2   2   0   0
  0.2664505E+02  0.4223967E-09  0.4223967E-09  0.4223967E-09  0.0000000E+00
  1.000000000000000E-004
  CAR 
 unknown system                          
     15.79131991     -6.59320657  301      5.65299479      1.00000000
     -6.593  0.0000E+00  0.0000E+00
     -6.519  0.0000E+00  0.0000E+00
     -6.444  0.0000E+00  0.0000E+00
     -6.369  0.0000E+00  0.0000E+00
     -6.295  0.0000E+00  0.0000E+00
     -6.220  0.0000E+00  0.0000E+00
     -6.146  0.0000E+00  0.0000E+00
     -6.071  0.0000E+00  0.0000E+00
     -5.996  0.0000E+00  0.0000E+00
     -5.922  0.0000E+00  0.0000E+00
     -5.847  0.0000E+00  0.0000E+00
     -5.772  0.0000E+00  0.0000E+00
     -5.698  0.0000E+00  0.0000E+00
     -5.623  0.0000E+00  0.0000E+00
     -5.549  0.8379E-01  0.7578E-03
     -5.474  0.1530E+00  0.9397E-02
     -5.399  0.2124E+00  0.2284E-01
     -5.325  0.2504E+00  0.4003E-01
     -5.250  0.2940E+00  0.6048E-01
     -5.176  0.3290E+00  0.8369E-01
     -5.101  0.3682E+00  0.1097E+00
     -5.026  0.4002E+00  0.1384E+00
     -4.952  0.4359E+00  0.1696E+00
     -4.877  0.4711E+00  0.2034E+00
     -4.802  0.5059E+00  0.2399E+00
     -4.728  0.5436E+00  0.2790E+00
     -4.653  0.5823E+00  0.3210E+00
     -4.579  0.6234E+00  0.3660E+00
     -4.504  0.6682E+00  0.4141E+00
     -4.429  0.7175E+00  0.4658E+00
     -4.355  0.7743E+00  0.5214E+00
     -4.280  0.8384E+00  0.5815E+00
     -4.206  0.9142E+00  0.6468E+00
     -4.131  0.1018E+01  0.7187E+00
     -4.056  0.1166E+01  0.7997E+00
     -3.982  0.1474E+01  0.8973E+00
     -3.907  0.1504E+01  0.1010E+01
     -3.832  0.1461E+01  0.1120E+01
     -3.758  0.1462E+01  0.1230E+01
     -3.683  0.1459E+01  0.1339E+01
     -3.609  0.1449E+01  0.1447E+01
     -3.534  0.1479E+01  0.1556E+01
     -3.459  0.1510E+01  0.1668E+01
     -3.385  0.1628E+01  0.1784E+01
     -3.310  0.2041E+01  0.1914E+01
     -3.236  0.0000E+00  0.2000E+01
     -3.161  0.0000E+00  0.2000E+01
     -3.086  0.0000E+00  0.2000E+01
     -3.012  0.0000E+00  0.2000E+01
     -2.937  0.0000E+00  0.2000E+01
     -2.862  0.0000E+00  0.2000E+01
     -2.788  0.0000E+00  0.2000E+01
     -2.713  0.0000E+00  0.2000E+01
     -2.639  0.0000E+00  0.2000E+01
     -2.564  0.0000E+00  0.2000E+01
     -2.489  0.0000E+00  0.2000E+01
     -2.415  0.0000E+00  0.2000E+01
     -2.340  0.0000E+00  0.2000E+01
     -2.266  0.0000E+00  0.2000E+01
     -2.191  0.0000E+00  0.2000E+01
     -2.116  0.0000E+00  0.2000E+01
     -2.042  0.0000E+00  0.2000E+01
     -1.967  0.0000E+00  0.2000E+01
     -1.892  0.0000E+00  0.2000E+01
     -1.818  0.0000E+00  0.2000E+01
     -1.743  0.0000E+00  0.2000E+01
     -1.669  0.0000E+00  0.2000E+01
     -1.594  0.0000E+00  0.2000E+01
     -1.519  0.0000E+00  0.2000E+01
     -1.445  0.0000E+00  0.2000E+01
     -1.370  0.0000E+00  0.2000E+01
     -1.296  0.0000E+00  0.2000E+01
     -1.221  0.0000E+00  0.2000E+01
     -1.146  0.0000E+00  0.2000E+01
     -1.072  0.0000E+00  0.2000E+01
     -0.997  0.0000E+00  0.2000E+01
     -0.922  0.0000E+00  0.2000E+01
     -0.848  0.0000E+00  0.2000E+01
     -0.773  0.0000E+00  0.2000E+01
     -0.699  0.0000E+00  0.2000E+01
     -0.624  0.0000E+00  0.2000E+01
     -0.549  0.0000E+00  0.2000E+01
     -0.475  0.0000E+00  0.2000E+01
     -0.400  0.0000E+00  0.2000E+01
     -0.326  0.0000E+00  0.2000E+01
     -0.251  0.0000E+00  0.2000E+01
     -0.176  0.1369E+00  0.2002E+01
     -0.102  0.7766E+00  0.2038E+01
     -0.027  0.1229E+01  0.2113E+01
      0.048  0.2106E+01  0.2235E+01
      0.122  0.4637E+01  0.2475E+01
      0.197  0.2116E+01  0.2698E+01
      0.271  0.1485E+01  0.2831E+01
      0.346  0.1226E+01  0.2931E+01
      0.421  0.1021E+01  0.3015E+01
      0.495  0.8864E+00  0.3085E+01
      0.570  0.7994E+00  0.3148E+01
      0.644  0.7152E+00  0.3204E+01
      0.719  0.6371E+00  0.3255E+01
      0.794  0.5933E+00  0.3301E+01
      0.868  0.5516E+00  0.3343E+01
      0.943  0.5112E+00  0.3383E+01
      1.018  0.4658E+00  0.3419E+01
      1.092  0.4363E+00  0.3453E+01
      1.167  0.4136E+00  0.3485E+01
      1.241  0.3909E+00  0.3515E+01
      1.316  0.3655E+00  0.3543E+01
      1.391  0.3415E+00  0.3569E+01
      1.465  0.3180E+00  0.3594E+01
      1.540  0.3045E+00  0.3617E+01
      1.614  0.2901E+00  0.3639E+01
      1.689  0.2755E+00  0.3660E+01
      1.764  0.2606E+00  0.3680E+01
      1.838  0.2426E+00  0.3699E+01
      1.913  0.2627E+00  0.3716E+01
      1.988  0.7021E+00  0.3755E+01
      2.062  0.9800E+00  0.3819E+01
      2.137  0.1476E+01  0.3912E+01
      2.211  0.1381E+01  0.4020E+01
      2.286  0.1239E+01  0.4118E+01
      2.361  0.1179E+01  0.4208E+01
      2.435  0.1134E+01  0.4294E+01
      2.510  0.1132E+01  0.4379E+01
      2.584  0.1087E+01  0.4462E+01
      2.659  0.1043E+01  0.4541E+01
      2.734  0.1135E+01  0.4626E+01
      2.808  0.1189E+01  0.4714E+01
      2.883  0.1249E+01  0.4806E+01
      2.958  0.1353E+01  0.4901E+01
      3.032  0.1343E+01  0.4999E+01
      3.107  0.1452E+01  0.5103E+01
      3.181  0.1650E+01  0.5219E+01
      3.256  0.1814E+01  0.5351E+01
      3.331  0.1734E+01  0.5482E+01
      3.405  0.1720E+01  0.5611E+01
      3.480  0.1676E+01  0.5738E+01
      3.554  0.1664E+01  0.5862E+01
      3.629  0.1642E+01  0.5985E+01
      3.704  0.1605E+01  0.6107E+01
      3.778  0.1579E+01  0.6225E+01
      3.853  0.1565E+01  0.6343E+01
      3.928  0.1546E+01  0.6459E+01
      4.002  0.1523E+01  0.6573E+01
      4.077  0.1502E+01  0.6686E+01
      4.151  0.1474E+01  0.6798E+01
      4.226  0.1449E+01  0.6906E+01
      4.301  0.1445E+01  0.7014E+01
      4.375  0.1430E+01  0.7122E+01
      4.450  0.1430E+01  0.7229E+01
      4.524  0.1406E+01  0.7335E+01
      4.599  0.1381E+01  0.7439E+01
      4.674  0.1063E+01  0.7530E+01
      4.748  0.9083E+00  0.7604E+01
      4.823  0.7989E+00  0.7667E+01
      4.898  0.7016E+00  0.7723E+01
      4.972  0.6266E+00  0.7772E+01
      5.047  0.5556E+00  0.7817E+01
      5.121  0.4972E+00  0.7856E+01
      5.196  0.4370E+00  0.7891E+01
      5.271  0.3748E+00  0.7921E+01
      5.345  0.3307E+00  0.7947E+01
      5.420  0.2682E+00  0.7969E+01
      5.494  0.1966E+00  0.7987E+01
      5.569  0.1020E+00  0.7997E+01
      5.644  0.0000E+00  0.8000E+01
      5.718  0.0000E+00  0.8000E+01
      5.793  0.0000E+00  0.8000E+01
      5.868  0.0000E+00  0.8000E+01
      5.942  0.0000E+00  0.8000E+01
      6.017  0.0000E+00  0.8000E+01
      6.091  0.0000E+00  0.8000E+01
      6.166  0.0000E+00  0.8000E+01
      6.241  0.0000E+00  0.8000E+01
      6.315  0.0000E+00  0.8000E+01
      6.390  0.0000E+00  0.8000E+01
      6.464  0.0000E+00  0.8000E+01
      6.539  0.0000E+00  0.8000E+01
      6.614  0.0000E+00  0.8000E+01
      6.688  0.1304E-01  0.8000E+01
      6.763  0.1164E+00  0.8005E+01
      6.838  0.1916E+00  0.8017E+01
      6.912  0.2489E+00  0.8033E+01
      6.987  0.3113E+00  0.8054E+01
      7.061  0.3799E+00  0.8080E+01
      7.136  0.4648E+00  0.8111E+01
      7.211  0.5235E+00  0.8148E+01
      7.285  0.5921E+00  0.8190E+01
      7.360  0.6932E+00  0.8237E+01
      7.434  0.8101E+00  0.8293E+01
      7.509  0.8982E+00  0.8357E+01
      7.584  0.9981E+00  0.8428E+01
      7.658  0.1091E+01  0.8506E+01
      7.733  0.1195E+01  0.8591E+01
      7.808  0.1317E+01  0.8684E+01
      7.882  0.1498E+01  0.8789E+01
      7.957  0.1814E+01  0.8912E+01
      8.031  0.1966E+01  0.9056E+01
      8.106  0.1879E+01  0.9200E+01
      8.181  0.1888E+01  0.9340E+01
      8.255  0.1876E+01  0.9483E+01
      8.330  0.1814E+01  0.9621E+01
      8.404  0.1557E+01  0.9747E+01
      8.479  0.1448E+01  0.9862E+01
      8.554  0.1231E+01  0.9962E+01
      8.628  0.1049E+01  0.1005E+02
      8.703  0.9276E+00  0.1012E+02
      8.778  0.9146E+00  0.1019E+02
      8.852  0.9327E+00  0.1026E+02
      8.927  0.8374E+00  0.1032E+02
      9.001  0.8684E+00  0.1038E+02
      9.076  0.1024E+01  0.1045E+02
      9.151  0.1393E+01  0.1054E+02
      9.225  0.3227E+01  0.1072E+02
      9.300  0.3352E+01  0.1096E+02
      9.374  0.2155E+01  0.1116E+02
      9.449  0.1792E+01  0.1131E+02
      9.524  0.1676E+01  0.1143E+02
      9.598  0.1697E+01  0.1156E+02
      9.673  0.1628E+01  0.1168E+02
      9.747  0.1396E+01  0.1180E+02
      9.822  0.1295E+01  0.1190E+02
      9.897  0.1303E+01  0.1199E+02
      9.971  0.1312E+01  0.1209E+02
     10.046  0.1386E+01  0.1219E+02
     10.121  0.1621E+01  0.1230E+02
     10.195  0.1644E+01  0.1242E+02
     10.270  0.1779E+01  0.1255E+02
     10.344  0.1664E+01  0.1268E+02
     10.419  0.1377E+01  0.1279E+02
     10.494  0.1452E+01  0.1290E+02
     10.568  0.1486E+01  0.1300E+02
     10.643  0.1605E+01  0.1312E+02
     10.717  0.1503E+01  0.1324E+02
     10.792  0.1344E+01  0.1334E+02
     10.867  0.1324E+01  0.1344E+02
     10.941  0.1314E+01  0.1354E+02
     11.016  0.1284E+01  0.1364E+02
     11.091  0.1332E+01  0.1374E+02
     11.165  0.1222E+01  0.1383E+02
     11.240  0.1298E+01  0.1392E+02
     11.314  0.1236E+01  0.1402E+02
     11.389  0.1187E+01  0.1411E+02
     11.464  0.1188E+01  0.1420E+02
     11.538  0.1063E+01  0.1428E+02
     11.613  0.9893E+00  0.1436E+02
     11.687  0.1006E+01  0.1443E+02
     11.762  0.1016E+01  0.1451E+02
     11.837  0.9821E+00  0.1458E+02
     11.911  0.9961E+00  0.1466E+02
     11.986  0.1044E+01  0.1473E+02
     12.061  0.1213E+01  0.1482E+02
     12.135  0.1402E+01  0.1492E+02
     12.210  0.1178E+01  0.1501E+02
     12.284  0.1774E+01  0.1510E+02
     12.359  0.1196E+01  0.1519E+02
     12.434  0.1046E+01  0.1528E+02
     12.508  0.9211E+00  0.1535E+02
     12.583  0.8142E+00  0.1541E+02
     12.657  0.7536E+00  0.1547E+02
     12.732  0.6882E+00  0.1553E+02
     12.807  0.6129E+00  0.1558E+02
     12.881  0.5076E+00  0.1562E+02
     12.956  0.4138E+00  0.1565E+02
     13.031  0.3800E+00  0.1568E+02
     13.105  0.3548E+00  0.1571E+02
     13.180  0.3320E+00  0.1573E+02
     13.254  0.3185E+00  0.1576E+02
     13.329  0.3186E+00  0.1578E+02
     13.404  0.3143E+00  0.1581E+02
     13.478  0.2833E+00  0.1583E+02
     13.553  0.2480E+00  0.1585E+02
     13.627  0.2210E+00  0.1587E+02
     13.702  0.2008E+00  0.1588E+02
     13.777  0.1844E+00  0.1590E+02
     13.851  0.1753E+00  0.1591E+02
     13.926  0.1638E+00  0.1592E+02
     14.001  0.1525E+00  0.1593E+02
     14.075  0.1422E+00  0.1594E+02
     14.150  0.1373E+00  0.1595E+02
     14.224  0.1167E+00  0.1596E+02
     14.299  0.1016E+00  0.1597E+02
     14.374  0.8291E-01  0.1598E+02
     14.448  0.6663E-01  0.1599E+02
     14.523  0.5279E-01  0.1599E+02
     14.597  0.4138E-01  0.1599E+02
     14.672  0.3669E-01  0.1600E+02
     14.747  0.5272E-01  0.1600E+02
     14.821  0.0000E+00  0.1600E+02
     14.896  0.0000E+00  0.1600E+02
     14.971  0.0000E+00  0.1600E+02
     15.045  0.0000E+00  0.1600E+02
     15.120  0.0000E+00  0.1600E+02
     15.194  0.0000E+00  0.1600E+02
     15.269  0.0000E+00  0.1600E+02
     15.344  0.0000E+00  0.1600E+02
     15.418  0.0000E+00  0.1600E+02
     15.493  0.0000E+00  0.1600E+02
     15.567  0.0000E+00  0.1600E+02
     15.642  0.0000E+00  0.1600E+02
     15.717  0.0000E+00  0.1600E+02
     15.791  0.0000E+00  0.1600E+02
