    2    2    1    1
  0.2664505E+02  0.4223967E-09  0.4223967E-09  0.4223967E-09  0.0000000E+00
  1.000000000000000E-004
  CAR 
 unknown system                          
      8    220      8
 
  0.0000000E+00  0.0000000E+00  0.0000000E+00  0.1457938E-03
    1       -5.575728   1.000000
    2        5.627995   1.000000
    3        5.627995   1.000000
    4        5.627995   1.000000
    5        7.934866   0.000000
    6        8.775666   0.000000
    7        8.775666   0.000000
    8        8.775666   0.000000
 
  0.5263158E-01  0.0000000E+00  0.0000000E+00  0.1166351E-02
    1       -5.547271   1.000000
    2        5.262700   1.000000
    3        5.585733   1.000000
    4        5.585733   1.000000
    5        8.121336   0.000000
    6        8.839835   0.000000
    7        8.839836   0.000000
    8        8.890358   0.000000
 
  0.1052632E+00  0.0000000E+00  0.0000000E+00  0.1166351E-02
    1       -5.462522   1.000000
    2        4.495975   1.000000
    3        5.472505   1.000000
    4        5.472505   1.000000
    5        8.165771   0.000000
    6        9.009397   0.000000
    7        9.009397   0.000000
    8        9.447978   0.000000
 
  0.1578947E+00  0.0000000E+00  0.0000000E+00  0.1166351E-02
    1       -5.323722   1.000000
    2        3.631074   1.000000
    3        5.318075   1.000000
    4        5.318075   1.000000
    5        8.010251   0.000000
    6        9.224905   0.000000
    7        9.224906   0.000000
    8       10.259275   0.000000
 
  0.2105263E+00  0.0000000E+00  0.0000000E+00  0.1166351E-02
    1       -5.135141   1.000000
    2        2.769681   1.000000
    3        5.151181   1.000000
    4        5.151182   1.000000
    5        7.814639   0.000000
    6        9.409675   0.000000
    7        9.409675   0.000000
    8       11.110664   0.000000
 
  0.2631579E+00  0.0000000E+00  0.0000000E+00  0.1166351E-02
    1       -4.904393   1.000000
    2        1.954841   1.000000
    3        4.992568   1.000000
    4        4.992568   1.000000
    5        7.628719   0.000000
    6        9.503161   0.000000
    7        9.503161   0.000000
    8       11.913637   0.000000
 
  0.3157895E+00  0.0000000E+00  0.0000000E+00  0.1166351E-02
    1       -4.644803   1.000000
    2        1.216325   1.000000
    3        4.855366   1.000000
    4        4.855367   1.000000
    5        7.471009   0.000000
    6        9.501684   0.000000
    7        9.501684   0.000000
    8       12.392165   0.000000
 
  0.3684211E+00  0.0000000E+00  0.0000000E+00  0.1166351E-02
    1       -4.379624   1.000000
    2        0.586347   1.000000
    3        4.747495   1.000000
    4        4.747495   1.000000
    5        7.349366   0.000000
    6        9.448595   0.000000
    7        9.448595   0.000000
    8       12.365557   0.000000
 
  0.4210526E+00  0.0000000E+00  0.0000000E+00  0.1166351E-02
    1       -4.148281   1.000000
    2        0.109398   1.000000
    3        4.673535   1.000000
    4        4.673535   1.000000
    5        7.267199   0.000000
    6        9.389777   0.000000
    7        9.389778   0.000000
    8       12.256790   0.000000
 
  0.4736842E+00  0.0000000E+00  0.0000000E+00  0.1166351E-02
    1       -4.007396   1.000000
    2       -0.154942   1.000000
    3        4.636002   1.000000
    4        4.636002   1.000000
    5        7.225871   0.000000
    6        9.354001   0.000000
    7        9.354002   0.000000
    8       12.191599   0.000000
 
  0.5263158E-01  0.5263158E-01  0.0000000E+00  0.8747631E-03
    1       -5.537764   1.000000
    2        5.293051   1.000000
    3        5.491361   1.000000
    4        5.491361   1.000000
    5        8.241023   0.000000
    6        8.677281   0.000000
    7        8.963794   0.000000
    8        8.963794   0.000000
 
  0.1052632E+00  0.5263158E-01  0.0000000E+00  0.3499052E-02
    1       -5.471709   1.000000
    2        4.697875   1.000000
    3        5.339804   1.000000
    4        5.430891   1.000000
    5        8.363945   0.000000
    6        8.704941   0.000000
    7        9.183181   0.000000
    8        9.363744   0.000000
 
  0.1578947E+00  0.5263158E-01  0.0000000E+00  0.3499052E-02
    1       -5.350802   1.000000
    2        3.884283   1.000000
    3        5.163606   1.000000
    4        5.324999   1.000000
    5        8.260075   0.000000
    6        8.858270   0.000000
    7        9.438956   0.000000
    8       10.064129   0.000000
 
  0.2105263E+00  0.5263158E-01  0.0000000E+00  0.3499052E-02
    1       -5.178513   1.000000
    2        3.036391   1.000000
    3        4.989099   1.000000
    4        5.167168   1.000000
    5        8.084412   0.000000
    6        9.064117   0.000000
    7        9.657664   0.000000
    8       10.760921   0.000000
 
  0.2631579E+00  0.5263158E-01  0.0000000E+00  0.3499052E-02
    1       -4.961191   1.000000
    2        2.215527   1.000000
    3        4.833881   1.000000
    4        4.989463   1.000000
    5        7.902589   0.000000
    6        9.227523   0.000000
    7        9.773665   0.000000
    8       11.308055   0.000000
 
  0.3157895E+00  0.5263158E-01  0.0000000E+00  0.3499052E-02
    1       -4.709896   1.000000
    2        1.456961   1.000000
    3        4.708730   1.000000
    4        4.815597   1.000000
    5        7.740385   0.000000
    6        9.294475   0.000000
    7        9.772043   0.000000
    8       11.771622   0.000000
 
  0.3684211E+00  0.5263158E-01  0.0000000E+00  0.3499052E-02
    1       -4.443947   1.000000
    2        0.792567   1.000000
    3        4.619822   1.000000
    4        4.660576   1.000000
    5        7.609380   0.000000
    6        9.289166   0.000000
    7        9.694025   0.000000
    8       12.195508   0.000000
 
  0.4210526E+00  0.5263158E-01  0.0000000E+00  0.3499052E-02
    1       -4.196697   1.000000
    2        0.262733   1.000000
    3        4.533680   1.000000
    4        4.570322   1.000000
    5        7.515044   0.000000
    6        9.264607   0.000000
    7        9.592121   0.000000
    8       12.364495   0.000000
 
  0.4736842E+00  0.5263158E-01  0.0000000E+00  0.3499052E-02
    1       -4.019660   1.000000
    2       -0.076915   1.000000
    3        4.440799   1.000000
    4        4.561313   1.000000
    5        7.459914   0.000000
    6        9.258296   0.000000
    7        9.502417   0.000000
    8       12.360223   0.000000
 
 -0.4736842E+00  0.5263158E-01  0.0000000E+00  0.3499052E-02
    1       -3.969819   1.000000
    2       -0.167464   1.000000
    3        4.385805   1.000000
    4        4.592324   1.000000
    5        7.445094   0.000000
    6        9.288007   0.000000
    7        9.443394   0.000000
    8       12.357096   0.000000
 
 -0.4210526E+00  0.5263158E-01  0.0000000E+00  0.3499052E-02
    1       -4.067286   1.000000
    2        0.011752   1.000000
    3        4.371201   1.000000
    4        4.661564   1.000000
    5        7.470861   0.000000
    6        9.357253   0.000000
    7        9.420076   0.000000
    8       12.390203   0.000000
 
 -0.3684211E+00  0.5263158E-01  0.0000000E+00  0.3499052E-02
    1       -4.274512   1.000000
    2        0.422098   1.000000
    3        4.398382   1.000000
    4        4.765912   1.000000
    5        7.536906   0.000000
    6        9.425146   0.000000
    7        9.457136   0.000000
    8       12.427537   0.000000
 
 -0.3157895E+00  0.5263158E-01  0.0000000E+00  0.3499052E-02
    1       -4.532838   1.000000
    2        1.002225   1.000000
    3        4.467609   1.000000
    4        4.900531   1.000000
    5        7.642070   0.000000
    6        9.436395   0.000000
    7        9.562927   0.000000
    8       12.306913   0.000000
 
 -0.2631579E+00  0.5263158E-01  0.0000000E+00  0.3499052E-02
    1       -4.796746   1.000000
    2        1.701462   1.000000
    3        4.577752   1.000000
    4        5.058112   1.000000
    5        7.783547   0.000000
    6        9.414699   0.000000
    7        9.626248   0.000000
    8       11.856374   0.000000
 
 -0.2105263E+00  0.5263158E-01  0.0000000E+00  0.3499052E-02
    1       -5.038322   1.000000
    2        2.482674   1.000000
    3        4.725888   1.000000
    4        5.227480   1.000000
    5        7.954919   0.000000
    6        9.319026   0.000000
    7        9.577221   0.000000
    8       11.259725   0.000000
 
 -0.1578947E+00  0.5263158E-01  0.0000000E+00  0.3499052E-02
    1       -5.241510   1.000000
    2        3.312424   1.000000
    3        4.906828   1.000000
    4        5.391417   1.000000
    5        8.141102   0.000000
    6        9.149396   0.000000
    7        9.374878   0.000000
    8       10.600930   0.000000
 
 -0.1052632E+00  0.5263158E-01  0.0000000E+00  0.3499052E-02
    1       -5.397166   1.000000
    2        4.143427   1.000000
    3        5.114156   1.000000
    4        5.524857   1.000000
    5        8.300070   0.000000
    6        8.964920   0.000000
    7        9.075383   0.000000
    8        9.907988   0.000000
 
 -0.5263158E-01  0.5263158E-01  0.0000000E+00  0.1749526E-02
    1       -5.500007   1.000000
    2        4.866389   1.000000
    3        5.351802   1.000000
    4        5.597323   1.000000
    5        8.292316   0.000000
    6        8.843588   0.000000
    7        8.861170   0.000000
    8        9.284492   0.000000
 
  0.1052632E+00  0.1052632E+00  0.0000000E+00  0.8747631E-03
    1       -5.424499   1.000000
    2        4.590040   1.000000
    3        5.159426   1.000000
    4        5.159426   1.000000
    5        8.272801   0.000000
    6        8.987978   0.000000
    7        9.448703   0.000000
    8        9.448703   0.000000
 
  0.1578947E+00  0.1052632E+00  0.0000000E+00  0.3499052E-02
    1       -5.322041   1.000000
    2        3.997205   1.000000
    3        4.964549   1.000000
    4        5.032475   1.000000
    5        8.192468   0.000000
    6        9.061108   0.000000
    7        9.749851   0.000000
    8        9.961492   0.000000
 
  0.2105263E+00  0.1052632E+00  0.0000000E+00  0.3499052E-02
    1       -5.167194   1.000000
    2        3.233484   1.000000
    3        4.779912   1.000000
    4        4.889458   1.000000
    5        8.214880   0.000000
    6        9.038461   0.000000
    7       10.017295   0.000000
    8       10.395389   0.000000
 
  0.2631579E+00  0.1052632E+00  0.0000000E+00  0.3499052E-02
    1       -4.965247   1.000000
    2        2.448231   1.000000
    3        4.621560   1.000000
    4        4.698680   1.000000
    5        8.198585   0.000000
    6        9.112519   0.000000
    7       10.179306   0.000000
    8       10.575875   0.000000
 
  0.3157895E+00  0.1052632E+00  0.0000000E+00  0.3499052E-02
    1       -4.725455   1.000000
    2        1.697854   1.000000
    3        4.490714   1.000000
    4        4.499259   1.000000
    5        8.111291   0.000000
    6        9.210005   0.000000
    7       10.203489   0.000000
    8       10.811717   0.000000
 
  0.3684211E+00  0.1052632E+00  0.0000000E+00  0.3499052E-02
    1       -4.463919   1.000000
    2        1.020644   1.000000
    3        4.290773   1.000000
    4        4.418605   1.000000
    5        8.006598   0.000000
    6        9.233877   0.000000
    7       10.122655   0.000000
    8       11.256446   0.000000
 
  0.4210526E+00  0.1052632E+00  0.0000000E+00  0.3499052E-02
    1       -4.208544   1.000000
    2        0.456535   1.000000
    3        4.114655   1.000000
    4        4.382366   1.000000
    5        7.919822   0.000000
    6        9.214250   0.000000
    7        9.995023   0.000000
    8       11.844194   0.000000
 
  0.4736842E+00  0.1052632E+00  0.0000000E+00  0.3499052E-02
    1       -4.004456   1.000000
    2        0.057412   1.000000
    3        3.972197   1.000000
    4        4.391223   1.000000
    5        7.865858   0.000000
    6        9.202427   0.000000
    7        9.864837   0.000000
    8       12.406393   0.000000
 
 -0.4736842E+00  0.1052632E+00  0.0000000E+00  0.3499052E-02
    1       -3.909203   1.000000
    2       -0.115630   1.000000
    3        3.869929   1.000000
    4        4.444115   1.000000
    5        7.850203   0.000000
    6        9.225068   0.000000
    7        9.756521   0.000000
    8       12.703890   0.000000
 
 -0.4210526E+00  0.1052632E+00  0.0000000E+00  0.3499052E-02
    1       -3.959155   1.000000
    2       -0.025010   1.000000
    3        3.812508   1.000000
    4        4.538352   1.000000
    5        7.873924   0.000000
    6        9.291569   0.000000
    7        9.679455   0.000000
    8       12.770668   0.000000
 
 -0.3684211E+00  0.1052632E+00  0.0000000E+00  0.3499052E-02
    1       -4.134297   1.000000
    2        0.308262   1.000000
    3        3.803502   1.000000
    4        4.669388   1.000000
    5        7.935872   0.000000
    6        9.399358   0.000000
    7        9.630376   0.000000
    8       12.644836   0.000000
 
 -0.3157895E+00  0.1052632E+00  0.0000000E+00  0.3499052E-02
    1       -4.378839   1.000000
    2        0.824853   1.000000
    3        3.845957   1.000000
    4        4.830333   1.000000
    5        8.033514   0.000000
    6        9.530936   0.000000
    7        9.591599   0.000000
    8       12.207321   0.000000
 
 -0.2631579E+00  0.1052632E+00  0.0000000E+00  0.3499052E-02
    1       -4.642079   1.000000
    2        1.466502   1.000000
    3        3.943202   1.000000
    4        5.010971   1.000000
    5        8.162421   0.000000
    6        9.528786   0.000000
    7        9.639436   0.000000
    8       11.630962   0.000000
 
 -0.2105263E+00  0.1052632E+00  0.0000000E+00  0.3499052E-02
    1       -4.891024   1.000000
    2        2.185054   1.000000
    3        4.100752   1.000000
    4        5.196113   1.000000
    5        8.313241   0.000000
    6        9.404921   0.000000
    7        9.623617   0.000000
    8       11.145806   0.000000
 
 -0.1578947E+00  0.1052632E+00  0.0000000E+00  0.3499052E-02
    1       -5.106466   1.000000
    2        2.928871   1.000000
    3        4.331740   1.000000
    4        5.363526   1.000000
    5        8.459678   0.000000
    6        9.224490   0.000000
    7        9.395402   0.000000
    8       10.816194   0.000000
 
 -0.1052632E+00  0.1052632E+00  0.0000000E+00  0.1749526E-02
    1       -5.277288   1.000000
    2        3.616502   1.000000
    3        4.666931   1.000000
    4        5.483431   1.000000
    5        8.501018   0.000000
    6        9.051793   0.000000
    7        9.120318   0.000000
    8       10.444001   0.000000
 
  0.1578947E+00  0.1578947E+00  0.0000000E+00  0.8747631E-03
    1       -5.238141   1.000000
    2        3.790697   1.000000
    3        4.754973   1.000000
    4        4.754973   1.000000
    5        7.909889   0.000000
    6        9.414587   0.000000
    7       10.103551   0.000000
    8       10.103551   0.000000
 
  0.2105263E+00  0.1578947E+00  0.0000000E+00  0.3499052E-02
    1       -5.101415   1.000000
    2        3.249431   1.000000
    3        4.559357   1.000000
    4        4.574722   1.000000
    5        7.829010   0.000000
    6        9.353035   0.000000
    7       10.382753   0.000000
    8       10.434729   0.000000
 
  0.2631579E+00  0.1578947E+00  0.0000000E+00  0.3499052E-02
    1       -4.916270   1.000000
    2        2.575990   1.000000
    3        4.368262   1.000000
    4        4.393498   1.000000
    5        7.900369   0.000000
    6        9.304167   0.000000
    7       10.361169   0.000000
    8       10.666800   0.000000
 
  0.3157895E+00  0.1578947E+00  0.0000000E+00  0.3499052E-02
    1       -4.690578   1.000000
    2        1.883426   1.000000
    3        4.124958   1.000000
    4        4.267073   1.000000
    5        7.972089   0.000000
    6        9.431928   0.000000
    7       10.267153   0.000000
    8       10.745499   0.000000
 
  0.3684211E+00  0.1578947E+00  0.0000000E+00  0.3499052E-02
    1       -4.437852   1.000000
    2        1.229321   1.000000
    3        3.876508   1.000000
    4        4.185749   1.000000
    5        7.970586   0.000000
    6        9.637502   0.000000
    7       10.352334   0.000000
    8       10.686709   0.000000
 
  0.4210526E+00  0.1578947E+00  0.0000000E+00  0.3499052E-02
    1       -4.181517   1.000000
    2        0.659546   1.000000
    3        3.647734   1.000000
    4        4.152386   1.000000
    5        7.939056   0.000000
    6        9.664741   0.000000
    7       10.552498   0.000000
    8       10.830212   0.000000
 
  0.4736842E+00  0.1578947E+00  0.0000000E+00  0.3499052E-02
    1       -3.960178   1.000000
    2        0.225312   1.000000
    3        3.453783   1.000000
    4        4.167771   1.000000
    5        7.924303   0.000000
    6        9.615606   0.000000
    7       10.397286   0.000000
    8       11.534491   0.000000
 
 -0.4736842E+00  0.1578947E+00  0.0000000E+00  0.3499052E-02
    1       -3.827831   1.000000
    2       -0.012669   1.000000
    3        3.304238   1.000000
    4        4.230900   1.000000
    5        7.947114   0.000000
    6        9.581035   0.000000
    7       10.252631   0.000000
    8       12.315984   0.000000
 
 -0.4210526E+00  0.1578947E+00  0.0000000E+00  0.3499052E-02
    1       -3.830641   1.000000
    2       -0.005570   1.000000
    3        3.206010   1.000000
    4        4.338919   1.000000
    5        8.012920   0.000000
    6        9.584563   0.000000
    7       10.131944   0.000000
    8       12.997980   0.000000
 
 -0.3684211E+00  0.1578947E+00  0.0000000E+00  0.3499052E-02
    1       -3.967332   1.000000
    2        0.244164   1.000000
    3        3.165253   1.000000
    4        4.486819   1.000000
    5        8.119001   0.000000
    6        9.632544   0.000000
    7       10.034234   0.000000
    8       12.809077   0.000000
 
 -0.3157895E+00  0.1578947E+00  0.0000000E+00  0.3499052E-02
    1       -4.190582   1.000000
    2        0.683155   1.000000
    3        3.189266   1.000000
    4        4.666696   1.000000
    5        8.257174   0.000000
    6        9.719697   0.000000
    7        9.942698   0.000000
    8       12.120748   0.000000
 
 -0.2631579E+00  0.1578947E+00  0.0000000E+00  0.3499052E-02
    1       -4.446961   1.000000
    2        1.243672   1.000000
    3        3.289747   1.000000
    4        4.866511   1.000000
    5        8.413493   0.000000
    6        9.813212   0.000000
    7        9.822526   0.000000
    8       11.437230   0.000000
 
 -0.2105263E+00  0.1578947E+00  0.0000000E+00  0.3499052E-02
    1       -4.698704   1.000000
    2        1.857147   1.000000
    3        3.489514   1.000000
    4        5.068101   1.000000
    5        8.561441   0.000000
    6        9.639832   0.000000
    7        9.797697   0.000000
    8       10.953849   0.000000
 
 -0.1578947E+00  0.1578947E+00  0.0000000E+00  0.1749526E-02
    1       -4.922951   1.000000
    2        2.443290   1.000000
    3        3.828994   1.000000
    4        5.245100   1.000000
    5        8.628532   0.000000
    6        9.414123   0.000000
    7        9.561932   0.000000
    8       10.827455   0.000000
 
  0.2105263E+00  0.2105263E+00  0.0000000E+00  0.8747631E-03
    1       -4.982949   1.000000
    2        2.977450   1.000000
    3        4.352964   1.000000
    4        4.352964   1.000000
    5        7.541699   0.000000
    6        9.191206   0.000000
    7       10.848136   0.000000
    8       10.848136   0.000000
 
  0.2631579E+00  0.2105263E+00  0.0000000E+00  0.3499052E-02
    1       -4.815571   1.000000
    2        2.491203   1.000000
    3        4.143025   1.000000
    4        4.177234   1.000000
    5        7.482916   0.000000
    6        8.979789   0.000000
    7       11.009914   0.000000
    8       11.178826   0.000000
 
  0.3157895E+00  0.2105263E+00  0.0000000E+00  0.3499052E-02
    1       -4.606046   1.000000
    2        1.920524   1.000000
    3        3.872433   1.000000
    4        4.042353   1.000000
    5        7.578213   0.000000
    6        8.934693   0.000000
    7       10.915037   0.000000
    8       11.348270   0.000000
 
  0.3684211E+00  0.2105263E+00  0.0000000E+00  0.3499052E-02
    1       -4.365960   1.000000
    2        1.343029   1.000000
    3        3.568193   1.000000
    4        3.954371   1.000000
    5        7.660879   0.000000
    6        9.176617   0.000000
    7       10.765333   0.000000
    8       11.342483   0.000000
 
  0.4210526E+00  0.2105263E+00  0.0000000E+00  0.3499052E-02
    1       -4.115212   1.000000
    2        0.812367   1.000000
    3        3.272926   1.000000
    4        3.916512   1.000000
    5        7.679813   0.000000
    6        9.690228   0.000000
    7       10.628453   0.000000
    8       11.222723   0.000000
 
  0.4736842E+00  0.2105263E+00  0.0000000E+00  0.3499052E-02
    1       -3.886655   1.000000
    2        0.381200   1.000000
    3        3.013899   1.000000
    4        3.929880   1.000000
    5        7.691624   0.000000
    6       10.268664   0.000000
    7       10.633908   0.000000
    8       11.057332   0.000000
 
 -0.4736842E+00  0.2105263E+00  0.0000000E+00  0.3499052E-02
    1       -3.728564   1.000000
    2        0.109176   1.000000
    3        2.806611   1.000000
    4        3.993764   1.000000
    5        7.736722   0.000000
    6       10.328901   0.000000
    7       10.887951   0.000000
    8       11.304330   0.000000
 
 -0.4210526E+00  0.2105263E+00  0.0000000E+00  0.3499052E-02
    1       -3.690082   1.000000
    2        0.050444   1.000000
    3        2.661485   1.000000
    4        4.105548   1.000000
    5        7.829220   0.000000
    6       10.288077   0.000000
    7       10.732468   0.000000
    8       12.185225   0.000000
 
 -0.3684211E+00  0.2105263E+00  0.0000000E+00  0.3499052E-02
    1       -3.785497   1.000000
    2        0.217276   1.000000
    3        2.588741   1.000000
    4        4.260359   1.000000
    5        7.969890   0.000000
    6       10.277414   0.000000
    7       10.589997   0.000000
    8       12.867768   0.000000
 
 -0.3157895E+00  0.2105263E+00  0.0000000E+00  0.3499052E-02
    1       -3.980189   1.000000
    2        0.563537   1.000000
    3        2.603310   1.000000
    4        4.450175   1.000000
    5        8.150530   0.000000
    6       10.303138   0.000000
    7       10.438519   0.000000
    8       12.060003   0.000000
 
 -0.2631579E+00  0.2105263E+00  0.0000000E+00  0.3499052E-02
    1       -4.222316   1.000000
    2        1.009380   1.000000
    3        2.732039   1.000000
    4        4.662475   1.000000
    5        8.351379   0.000000
    6       10.233721   0.000000
    7       10.337273   0.000000
    8       11.309550   0.000000
 
 -0.2105263E+00  0.2105263E+00  0.0000000E+00  0.1749526E-02
    1       -4.470569   1.000000
    2        1.464067   1.000000
    3        3.017837   1.000000
    4        4.877934   1.000000
    5        8.526808   0.000000
    6        9.949048   0.000000
    7       10.184964   0.000000
    8       10.890214   0.000000
 
  0.2631579E+00  0.2631579E+00  0.0000000E+00  0.8747631E-03
    1       -4.666380   1.000000
    2        2.180593   1.000000
    3        3.990667   1.000000
    4        3.990667   1.000000
    5        7.218819   0.000000
    6        8.624050   0.000000
    7       11.640356   0.000000
    8       11.640359   0.000000
 
  0.3157895E+00  0.2631579E+00  0.0000000E+00  0.3499052E-02
    1       -4.474632   1.000000
    2        1.746986   1.000000
    3        3.771181   1.000000
    4        3.844927   1.000000
    5        7.191342   0.000000
    6        8.409362   0.000000
    7       11.800294   0.000000
    8       11.951439   0.000000
 
  0.3684211E+00  0.2631579E+00  0.0000000E+00  0.3499052E-02
    1       -4.250623   1.000000
    2        1.278563   1.000000
    3        3.452340   1.000000
    4        3.746700   1.000000
    5        7.301535   0.000000
    6        8.435420   0.000000
    7       11.710277   0.000000
    8       12.046750   0.000000
 
  0.4210526E+00  0.2631579E+00  0.0000000E+00  0.3499052E-02
    1       -4.011659   1.000000
    2        0.830304   1.000000
    3        3.093997   1.000000
    4        3.699695   1.000000
    5        7.376787   0.000000
    6        8.794107   0.000000
    7       11.564143   0.000000
    8       11.970566   0.000000
 
  0.4736842E+00  0.2631579E+00  0.0000000E+00  0.3499052E-02
    1       -3.786119   1.000000
    2        0.449639   1.000000
    3        2.754957   1.000000
    4        3.705447   1.000000
    5        7.411096   0.000000
    6        9.418835   0.000000
    7       11.419792   0.000000
    8       11.811102   0.000000
 
 -0.4736842E+00  0.2631579E+00  0.0000000E+00  0.3499052E-02
    1       -3.616033   1.000000
    2        0.189187   1.000000
    3        2.470801   1.000000
    4        3.763626   1.000000
    5        7.464998   0.000000
    6       10.197978   0.000000
    7       11.303172   0.000000
    8       11.626732   0.000000
 
 -0.4210526E+00  0.2631579E+00  0.0000000E+00  0.3499052E-02
    1       -3.548132   1.000000
    2        0.099354   1.000000
    3        2.263321   1.000000
    4        3.872026   1.000000
    5        7.565206   0.000000
    6       10.988664   0.000000
    7       11.308968   0.000000
    8       11.441212   0.000000
 
 -0.3684211E+00  0.2631579E+00  0.0000000E+00  0.3499052E-02
    1       -3.605296   1.000000
    2        0.196871   1.000000
    3        2.152257   1.000000
    4        4.026182   1.000000
    5        7.717273   0.000000
    6       11.099998   0.000000
    7       11.249381   0.000000
    8       12.095346   0.000000
 
 -0.3157895E+00  0.2631579E+00  0.0000000E+00  0.3499052E-02
    1       -3.766406   1.000000
    2        0.438305   1.000000
    3        2.166277   1.000000
    4        4.218539   1.000000
    5        7.915724   0.000000
    6       11.010976   0.000000
    7       11.082817   0.000000
    8       12.045376   0.000000
 
 -0.2631579E+00  0.2631579E+00  0.0000000E+00  0.1749526E-02
    1       -3.985931   1.000000
    2        0.735626   1.000000
    3        2.348623   1.000000
    4        4.436967   1.000000
    5        8.142656   0.000000
    6       10.665870   0.000000
    7       10.954124   0.000000
    8       11.360274   0.000000
 
  0.3157895E+00  0.3157895E+00  0.0000000E+00  0.8747631E-03
    1       -4.301800   1.000000
    2        1.422456   1.000000
    3        3.687200   1.000000
    4        3.687200   1.000000
    5        6.963422   0.000000
    6        8.052456   0.000000
    7       12.457782   0.000000
    8       12.457783   0.000000
 
  0.3684211E+00  0.3157895E+00  0.0000000E+00  0.3499052E-02
    1       -4.097046   1.000000
    2        1.044598   1.000000
    3        3.473837   1.000000
    4        3.576726   1.000000
    5        6.971063   0.000000
    6        7.892092   0.000000
    7       12.632484   0.000000
    8       12.736766   0.000000
 
  0.4210526E+00  0.3157895E+00  0.0000000E+00  0.3499052E-02
    1       -3.876165   1.000000
    2        0.678607   1.000000
    3        3.130264   1.000000
    4        3.517820   1.000000
    5        7.087149   0.000000
    6        8.023610   0.000000
    7       12.554665   0.000000
    8       12.758790   0.000000
 
  0.4736842E+00  0.3157895E+00  0.0000000E+00  0.3499052E-02
    1       -3.664500   1.000000
    2        0.369561   1.000000
    3        2.740513   1.000000
    4        3.512502   1.000000
    5        7.155850   0.000000
    6        8.505797   0.000000
    7       12.414514   0.000000
    8       12.629410   0.000000
 
 -0.4736842E+00  0.3157895E+00  0.0000000E+00  0.3499052E-02
    1       -3.498589   1.000000
    2        0.158740   1.000000
    3        2.378661   1.000000
    4        3.560871   1.000000
    5        7.216679   0.000000
    6        9.221033   0.000000
    7       12.272148   0.000000
    8       12.439504   0.000000
 
 -0.4210526E+00  0.3157895E+00  0.0000000E+00  0.3499052E-02
    1       -3.419176   1.000000
    2        0.081172   1.000000
    3        2.094969   1.000000
    4        3.661190   1.000000
    5        7.317576   0.000000
    6       10.071729   0.000000
    7       12.149704   0.000000
    8       12.221767   0.000000
 
 -0.3684211E+00  0.3157895E+00  0.0000000E+00  0.3499052E-02
    1       -3.449383   1.000000
    2        0.140589   1.000000
    3        1.932153   1.000000
    4        3.809540   1.000000
    5        7.471357   0.000000
    6       11.004014   0.000000
    7       11.953569   0.000000
    8       12.056797   0.000000
 
 -0.3157895E+00  0.3157895E+00  0.0000000E+00  0.1749526E-02
    1       -3.577107   1.000000
    2        0.285935   1.000000
    3        1.940437   1.000000
    4        3.999053   1.000000
    5        7.675634   0.000000
    6       11.555508   0.000000
    7       11.726667   0.000000
    8       12.181641   0.000000
 
  0.3684211E+00  0.3684211E+00  0.0000000E+00  0.8747631E-03
    1       -3.914560   1.000000
    2        0.733951   1.000000
    3        3.453045   1.000000
    4        3.453045   1.000000
    5        6.787373   0.000000
    6        7.574610   0.000000
    7       13.285525   0.000000
    8       13.285525   0.000000
 
  0.4210526E+00  0.3684211E+00  0.0000000E+00  0.3499052E-02
    1       -3.718618   1.000000
    2        0.427577   1.000000
    3        3.258052   1.000000
    4        3.380701   1.000000
    5        6.829910   0.000000
    6        7.487531   0.000000
    7       13.471482   0.000000
    8       13.522397   0.000000
 
  0.4736842E+00  0.3684211E+00  0.0000000E+00  0.3499052E-02
    1       -3.533104   1.000000
    2        0.178327   1.000000
    3        2.914310   1.000000
    4        3.362246   1.000000
    5        6.942236   0.000000
    6        7.740252   0.000000
    7       13.403217   0.000000
    8       13.475903   0.000000
 