       N       E                     dE             d eps       ncg     rms          rms(c)
DAV:   1     0.138262319125E+02    0.13826E+02   -0.28510E+03  3520   0.738E+02
DAV:   2    -0.767248905224E+01   -0.21499E+02   -0.21230E+02  4816   0.854E+01
DAV:   3    -0.812876029221E+01   -0.45627E+00   -0.45619E+00  4736   0.139E+01
DAV:   4    -0.813137930861E+01   -0.26190E-02   -0.26190E-02  5304   0.126E+00
DAV:   5    -0.813138879909E+01   -0.94905E-05   -0.94905E-05  4704   0.643E-02    0.223E+00
RMM:   6    -0.805392451998E+01    0.77464E-01   -0.55335E-02  3524   0.138E+00    0.133E+00
RMM:   7    -0.802701696989E+01    0.26908E-01   -0.83191E-02  3595   0.178E+00    0.187E-01
RMM:   8    -0.802779011867E+01   -0.77315E-03   -0.30731E-03  3762   0.409E-01    0.536E-02
RMM:   9    -0.802808921412E+01   -0.29910E-03   -0.54729E-04  3775   0.164E-01    0.154E-02
RMM:  10    -0.802808717585E+01    0.20383E-05   -0.48325E-05  4177   0.503E-02    0.511E-03
RMM:  11    -0.802808895594E+01   -0.17801E-05   -0.86260E-06  3992   0.229E-02    0.222E-03
RMM:  12    -0.802808952505E+01   -0.56912E-06   -0.50655E-07  2931   0.633E-03
   1 F= -.80280895E+01 E0= -.80280895E+01  d E =0.000000E+00
