 running  128 mpi-ranks, with    1 threads/rank, on    1 nodes
 distrk:  each k-point on   32 cores,    4 groups
 distr:  one band on   16 cores,    2 groups
 vasp.6.4.3 19Mar24 (build Jun  3 2025 16:21:13) complex                         
 POSCAR found type information on POSCAR NiO 
 POSCAR found :  2 types and       2 ions
 Reading from existing POTCAR
 scaLAPACK will be used
 Reading from existing POTCAR
 LDA part: xc-table for (Slater+PW92), standard interpolation
 -----------------------------------------------------------------------------
|                                                                             |
|           W    W    AA    RRRRR   N    N  II  N    N   GGGG   !!!           |
|           W    W   A  A   R    R  NN   N  II  NN   N  G    G  !!!           |
|           W    W  A    A  R    R  N N  N  II  N N  N  G       !!!           |
|           W WW W  AAAAAA  RRRRR   N  N N  II  N  N N  G  GGG   !            |
|           WW  WW  A    A  R   R   N   NN  II  N   NN  G    G                |
|           W    W  A    A  R    R  N    N  II  N    N   GGGG   !!!           |
|                                                                             |
|     The requested file  could not be found or opened for reading            |
|     k-point information. Automatic k-point generation is used as a          |
|     fallback, which may lead to unwanted results.                           |
|                                                                             |
 -----------------------------------------------------------------------------

 INCAR ok, starting setup
 POSCAR ok, starting setup
 FFT: planning ... GRIDC
 FFT: planning ... GRID_SOFT
 FFT: planning ... GRID
 WAVECAR not read
 entering main loop
       N       E                     dE             d eps       ncg     rms          rms(c)
DAV:   1     0.108771825740E+03    0.10877E+03   -0.61630E+03 28664   0.657E+02
DAV:   2     0.333442341114E+00   -0.10844E+03   -0.95819E+02 26008   0.190E+02
DAV:   3    -0.683146415238E+01   -0.71649E+01   -0.69648E+01 30776   0.435E+01
DAV:   4    -0.688484415346E+01   -0.53380E-01   -0.53362E-01 28640   0.372E+00
DAV:   5    -0.688492759186E+01   -0.83438E-04   -0.83468E-04 29992   0.144E-01    0.261E+01
DAV:   6    -0.104081876188E+02   -0.35233E+01   -0.21830E+01 28272   0.484E+01    0.203E+01
DAV:   7    -0.931309670383E+01    0.10951E+01   -0.29582E+00 27696   0.295E+01    0.968E+00
DAV:   8    -0.989297719317E+01   -0.57988E+00   -0.55549E-01 27880   0.824E+00    0.774E+00
DAV:   9    -0.100416251229E+02   -0.14865E+00   -0.91786E-02 28600   0.613E+00    0.259E+00
DAV:  10    -0.100693795324E+02   -0.27754E-01   -0.50931E-02 30072   0.299E+00    0.102E+00
DAV:  11    -0.100684939393E+02    0.88559E-03   -0.89113E-03 28528   0.118E+00    0.244E-01
DAV:  12    -0.100692065002E+02   -0.71256E-03   -0.12254E-03 29304   0.298E-01    0.140E-01
DAV:  13    -0.100695064308E+02   -0.29993E-03   -0.29938E-04 29512   0.256E-01    0.884E-02
DAV:  14    -0.100695156793E+02   -0.92485E-05   -0.50449E-05 30488   0.577E-02    0.180E-02
DAV:  15    -0.100695188999E+02   -0.32206E-05   -0.53824E-06 30208   0.314E-02    0.118E-02
DAV:  16    -0.100695194118E+02   -0.51183E-06   -0.60868E-07 32280   0.221E-02    0.274E-03
DAV:  17    -0.100695195251E+02   -0.11339E-06   -0.29272E-07 29688   0.549E-03    0.151E-03
DAV:  18    -0.100695196005E+02   -0.75392E-07   -0.59838E-08 23728   0.409E-03
   1 F= -.10069520E+02 E0= -.10069520E+02  d E =0.000000E+00  mag=     2.0000
 PROFILE, used timers:     427
