   3   3   0   0
  0.2731725E+02  0.4875559E-09  0.4875559E-09  0.4875559E-09  0.5000000E-15
  1.000000000000000E-004
  CAR
 unknown system
     12.41707015    -33.98438301  301      8.25276788      1.00000000
    -33.984  0.0000E+00  0.0000E+00
    -33.830  0.0000E+00  0.0000E+00
    -33.675  0.0000E+00  0.0000E+00
    -33.520  0.0000E+00  0.0000E+00
    -33.366  0.0000E+00  0.0000E+00
    -33.211  0.0000E+00  0.0000E+00
    -33.056  0.0000E+00  0.0000E+00
    -32.902  0.0000E+00  0.0000E+00
    -32.747  0.0000E+00  0.0000E+00
    -32.592  0.0000E+00  0.0000E+00
    -32.438  0.0000E+00  0.0000E+00
    -32.283  0.0000E+00  0.0000E+00
    -32.128  0.0000E+00  0.0000E+00
    -31.974  0.0000E+00  0.0000E+00
    -31.819  0.1293E+02  0.2000E+01
    -31.664  0.0000E+00  0.2000E+01
    -31.510  0.0000E+00  0.2000E+01
    -31.355  0.0000E+00  0.2000E+01
    -31.200  0.0000E+00  0.2000E+01
    -31.046  0.0000E+00  0.2000E+01
    -30.891  0.0000E+00  0.2000E+01
    -30.736  0.0000E+00  0.2000E+01
    -30.582  0.0000E+00  0.2000E+01
    -30.427  0.0000E+00  0.2000E+01
    -30.272  0.0000E+00  0.2000E+01
    -30.118  0.0000E+00  0.2000E+01
    -29.963  0.0000E+00  0.2000E+01
    -29.808  0.0000E+00  0.2000E+01
    -29.654  0.0000E+00  0.2000E+01
    -29.499  0.0000E+00  0.2000E+01
    -29.344  0.0000E+00  0.2000E+01
    -29.190  0.0000E+00  0.2000E+01
    -29.035  0.0000E+00  0.2000E+01
    -28.880  0.0000E+00  0.2000E+01
    -28.726  0.0000E+00  0.2000E+01
    -28.571  0.0000E+00  0.2000E+01
    -28.416  0.0000E+00  0.2000E+01
    -28.262  0.0000E+00  0.2000E+01
    -28.107  0.0000E+00  0.2000E+01
    -27.952  0.0000E+00  0.2000E+01
    -27.798  0.0000E+00  0.2000E+01
    -27.643  0.0000E+00  0.2000E+01
    -27.488  0.0000E+00  0.2000E+01
    -27.334  0.0000E+00  0.2000E+01
    -27.179  0.0000E+00  0.2000E+01
    -27.024  0.0000E+00  0.2000E+01
    -26.869  0.0000E+00  0.2000E+01
    -26.715  0.0000E+00  0.2000E+01
    -26.560  0.0000E+00  0.2000E+01
    -26.405  0.0000E+00  0.2000E+01
    -26.251  0.0000E+00  0.2000E+01
    -26.096  0.0000E+00  0.2000E+01
    -25.941  0.0000E+00  0.2000E+01
    -25.787  0.0000E+00  0.2000E+01
    -25.632  0.0000E+00  0.2000E+01
    -25.477  0.0000E+00  0.2000E+01
    -25.323  0.0000E+00  0.2000E+01
    -25.168  0.0000E+00  0.2000E+01
    -25.013  0.0000E+00  0.2000E+01
    -24.859  0.0000E+00  0.2000E+01
    -24.704  0.0000E+00  0.2000E+01
    -24.549  0.0000E+00  0.2000E+01
    -24.395  0.0000E+00  0.2000E+01
    -24.240  0.0000E+00  0.2000E+01
    -24.085  0.0000E+00  0.2000E+01
    -23.931  0.0000E+00  0.2000E+01
    -23.776  0.0000E+00  0.2000E+01
    -23.621  0.0000E+00  0.2000E+01
    -23.467  0.0000E+00  0.2000E+01
    -23.312  0.0000E+00  0.2000E+01
    -23.157  0.0000E+00  0.2000E+01
    -23.003  0.0000E+00  0.2000E+01
    -22.848  0.0000E+00  0.2000E+01
    -22.693  0.0000E+00  0.2000E+01
    -22.539  0.0000E+00  0.2000E+01
    -22.384  0.0000E+00  0.2000E+01
    -22.229  0.0000E+00  0.2000E+01
    -22.075  0.0000E+00  0.2000E+01
    -21.920  0.0000E+00  0.2000E+01
    -21.765  0.0000E+00  0.2000E+01
    -21.611  0.0000E+00  0.2000E+01
    -21.456  0.0000E+00  0.2000E+01
    -21.301  0.0000E+00  0.2000E+01
    -21.147  0.0000E+00  0.2000E+01
    -20.992  0.0000E+00  0.2000E+01
    -20.837  0.0000E+00  0.2000E+01
    -20.683  0.0000E+00  0.2000E+01
    -20.528  0.0000E+00  0.2000E+01
    -20.373  0.0000E+00  0.2000E+01
    -20.219  0.0000E+00  0.2000E+01
    -20.064  0.0000E+00  0.2000E+01
    -19.909  0.0000E+00  0.2000E+01
    -19.755  0.0000E+00  0.2000E+01
    -19.600  0.0000E+00  0.2000E+01
    -19.445  0.0000E+00  0.2000E+01
    -19.291  0.0000E+00  0.2000E+01
    -19.136  0.0000E+00  0.2000E+01
    -18.981  0.0000E+00  0.2000E+01
    -18.827  0.0000E+00  0.2000E+01
    -18.672  0.0000E+00  0.2000E+01
    -18.517  0.0000E+00  0.2000E+01
    -18.363  0.0000E+00  0.2000E+01
    -18.208  0.0000E+00  0.2000E+01
    -18.053  0.0000E+00  0.2000E+01
    -17.899  0.0000E+00  0.2000E+01
    -17.744  0.0000E+00  0.2000E+01
    -17.589  0.0000E+00  0.2000E+01
    -17.435  0.0000E+00  0.2000E+01
    -17.280  0.0000E+00  0.2000E+01
    -17.125  0.0000E+00  0.2000E+01
    -16.971  0.0000E+00  0.2000E+01
    -16.816  0.0000E+00  0.2000E+01
    -16.661  0.0000E+00  0.2000E+01
    -16.507  0.0000E+00  0.2000E+01
    -16.352  0.0000E+00  0.2000E+01
    -16.197  0.0000E+00  0.2000E+01
    -16.042  0.0000E+00  0.2000E+01
    -15.888  0.0000E+00  0.2000E+01
    -15.733  0.0000E+00  0.2000E+01
    -15.578  0.0000E+00  0.2000E+01
    -15.424  0.0000E+00  0.2000E+01
    -15.269  0.0000E+00  0.2000E+01
    -15.114  0.0000E+00  0.2000E+01
    -14.960  0.0000E+00  0.2000E+01
    -14.805  0.0000E+00  0.2000E+01
    -14.650  0.5366E+02  0.1030E+02
    -14.496  0.0000E+00  0.1200E+02
    -14.341  0.0000E+00  0.1200E+02
    -14.186  0.0000E+00  0.1200E+02
    -14.032  0.0000E+00  0.1200E+02
    -13.877  0.0000E+00  0.1200E+02
    -13.722  0.0000E+00  0.1200E+02
    -13.568  0.0000E+00  0.1200E+02
    -13.413  0.0000E+00  0.1200E+02
    -13.258  0.0000E+00  0.1200E+02
    -13.104  0.0000E+00  0.1200E+02
    -12.949  0.0000E+00  0.1200E+02
    -12.794  0.0000E+00  0.1200E+02
    -12.640  0.0000E+00  0.1200E+02
    -12.485  0.0000E+00  0.1200E+02
    -12.330  0.0000E+00  0.1200E+02
    -12.176  0.0000E+00  0.1200E+02
    -12.021  0.0000E+00  0.1200E+02
    -11.866  0.0000E+00  0.1200E+02
    -11.712  0.0000E+00  0.1200E+02
    -11.557  0.0000E+00  0.1200E+02
    -11.402  0.0000E+00  0.1200E+02
    -11.248  0.0000E+00  0.1200E+02
    -11.093  0.0000E+00  0.1200E+02
    -10.938  0.0000E+00  0.1200E+02
    -10.784  0.0000E+00  0.1200E+02
    -10.629  0.0000E+00  0.1200E+02
    -10.474  0.0000E+00  0.1200E+02
    -10.320  0.0000E+00  0.1200E+02
    -10.165  0.0000E+00  0.1200E+02
    -10.010  0.2338E+01  0.1236E+02
     -9.856  0.1083E+02  0.1550E+02
     -9.701  0.0000E+00  0.1800E+02
     -9.546  0.0000E+00  0.1800E+02
     -9.392  0.0000E+00  0.1800E+02
     -9.237  0.0000E+00  0.1800E+02
     -9.082  0.0000E+00  0.1800E+02
     -8.928  0.0000E+00  0.1800E+02
     -8.773  0.0000E+00  0.1800E+02
     -8.618  0.0000E+00  0.1800E+02
     -8.464  0.0000E+00  0.1800E+02
     -8.309  0.0000E+00  0.1800E+02
     -8.154  0.0000E+00  0.1800E+02
     -8.000  0.0000E+00  0.1800E+02
     -7.845  0.0000E+00  0.1800E+02
     -7.690  0.0000E+00  0.1800E+02
     -7.536  0.0000E+00  0.1800E+02
     -7.381  0.0000E+00  0.1800E+02
     -7.226  0.0000E+00  0.1800E+02
     -7.072  0.0000E+00  0.1800E+02
     -6.917  0.0000E+00  0.1800E+02
     -6.762  0.0000E+00  0.1800E+02
     -6.608  0.0000E+00  0.1800E+02
     -6.453  0.0000E+00  0.1800E+02
     -6.298  0.0000E+00  0.1800E+02
     -6.144  0.0000E+00  0.1800E+02
     -5.989  0.0000E+00  0.1800E+02
     -5.834  0.0000E+00  0.1800E+02
     -5.679  0.0000E+00  0.1800E+02
     -5.525  0.0000E+00  0.1800E+02
     -5.370  0.0000E+00  0.1800E+02
     -5.215  0.0000E+00  0.1800E+02
     -5.061  0.0000E+00  0.1800E+02
     -4.906  0.0000E+00  0.1800E+02
     -4.751  0.0000E+00  0.1800E+02
     -4.597  0.0000E+00  0.1800E+02
     -4.442  0.0000E+00  0.1800E+02
     -4.287  0.0000E+00  0.1800E+02
     -4.133  0.0000E+00  0.1800E+02
     -3.978  0.0000E+00  0.1800E+02
     -3.823  0.4792E-01  0.1801E+02
     -3.669  0.2437E+00  0.1805E+02
     -3.514  0.2844E+00  0.1810E+02
     -3.359  0.4860E+00  0.1823E+02
     -3.205  0.2084E+01  0.1863E+02
     -3.050  0.3413E+01  0.1957E+02
     -2.895  0.8479E+00  0.1999E+02
     -2.741  0.0000E+00  0.2000E+02
     -2.586  0.0000E+00  0.2000E+02
     -2.431  0.0000E+00  0.2000E+02
     -2.277  0.0000E+00  0.2000E+02
     -2.122  0.0000E+00  0.2000E+02
     -1.967  0.0000E+00  0.2000E+02
     -1.813  0.0000E+00  0.2000E+02
     -1.658  0.0000E+00  0.2000E+02
     -1.503  0.0000E+00  0.2000E+02
     -1.349  0.0000E+00  0.2000E+02
     -1.194  0.0000E+00  0.2000E+02
     -1.039  0.0000E+00  0.2000E+02
     -0.885  0.0000E+00  0.2000E+02
     -0.730  0.0000E+00  0.2000E+02
     -0.575  0.0000E+00  0.2000E+02
     -0.421  0.0000E+00  0.2000E+02
     -0.266  0.0000E+00  0.2000E+02
     -0.111  0.0000E+00  0.2000E+02
      0.043  0.0000E+00  0.2000E+02
      0.198  0.0000E+00  0.2000E+02
      0.353  0.0000E+00  0.2000E+02
      0.507  0.0000E+00  0.2000E+02
      0.662  0.0000E+00  0.2000E+02
      0.817  0.0000E+00  0.2000E+02
      0.971  0.0000E+00  0.2000E+02
      1.126  0.0000E+00  0.2000E+02
      1.281  0.0000E+00  0.2000E+02
      1.435  0.0000E+00  0.2000E+02
      1.590  0.0000E+00  0.2000E+02
      1.745  0.0000E+00  0.2000E+02
      1.899  0.0000E+00  0.2000E+02
      2.054  0.0000E+00  0.2000E+02
      2.209  0.0000E+00  0.2000E+02
      2.363  0.1344E+00  0.2002E+02
      2.518  0.4743E+00  0.2012E+02
      2.673  0.2302E+01  0.2063E+02
      2.827  0.1184E+01  0.2107E+02
      2.982  0.1242E+01  0.2138E+02
      3.137  0.6188E+00  0.2154E+02
      3.291  0.3760E+00  0.2178E+02
      3.446  0.4283E+01  0.2260E+02
      3.601  0.2821E+01  0.2367E+02
      3.755  0.3348E+01  0.2455E+02
      3.910  0.2976E+01  0.2534E+02
      4.065  0.1504E+01  0.2597E+02
      4.219  0.2830E+00  0.2607E+02
      4.374  0.4903E+01  0.2688E+02
      4.529  0.4399E+01  0.2868E+02
      4.683  0.4800E+01  0.3018E+02
      4.838  0.2229E+01  0.3078E+02
      4.993  0.2158E+01  0.3139E+02
      5.148  0.8091E+00  0.3165E+02
      5.302  0.7547E+00  0.3188E+02
      5.457  0.2823E+00  0.3207E+02
      5.612  0.1349E+01  0.3240E+02
      5.766  0.9422E+00  0.3259E+02
      5.921  0.1534E+01  0.3291E+02
      6.076  0.7164E+00  0.3316E+02
      6.230  0.1483E+01  0.3345E+02
      6.385  0.2825E+00  0.3362E+02
      6.540  0.3584E+01  0.3429E+02
      6.694  0.2979E+01  0.3560E+02
      6.849  0.7289E+00  0.3593E+02
      7.004  0.2951E+00  0.3597E+02
      7.158  0.1648E+00  0.3600E+02
      7.313  0.6598E-10  0.3600E+02
      7.468  0.4060E-06  0.3601E+02
      7.622  0.8240E-01  0.3603E+02
      7.777  0.4708E-01  0.3605E+02
      7.932  0.6896E+00  0.3619E+02
      8.086  0.7500E+00  0.3640E+02
      8.241  0.2033E+01  0.3696E+02
      8.396  0.1680E+01  0.3743E+02
      8.550  0.1019E+01  0.3786E+02
      8.705  0.7155E+00  0.3815E+02
      8.860  0.5093E+00  0.3831E+02
      9.014  0.4781E+00  0.3840E+02
      9.169  0.9226E+00  0.3868E+02
      9.324  0.2438E+01  0.3930E+02
      9.478  0.2215E+01  0.4007E+02
      9.633  0.1884E+01  0.4070E+02
      9.788  0.2727E+01  0.4135E+02
      9.942  0.4978E+01  0.4281E+02
     10.097  0.1076E+02  0.4531E+02
     10.252  0.5686E+01  0.4701E+02
     10.406  0.0000E+00  0.4800E+02
     10.561  0.0000E+00  0.4800E+02
     10.716  0.0000E+00  0.4800E+02
     10.870  0.0000E+00  0.4800E+02
     11.025  0.0000E+00  0.4800E+02
     11.180  0.0000E+00  0.4800E+02
     11.334  0.0000E+00  0.4800E+02
     11.489  0.0000E+00  0.4800E+02
     11.644  0.0000E+00  0.4800E+02
     11.798  0.0000E+00  0.4800E+02
     11.953  0.0000E+00  0.4800E+02
     12.108  0.0000E+00  0.4800E+02
     12.262  0.0000E+00  0.4800E+02
     12.417  0.0000E+00  0.4800E+02
