 vasp.6.0.8 29Jun18 (build Jun 13 2019 12:54:44) complex

 executed on      IFC18_CrayMPICH date 2021.12.05  14:21:47
 running   64 mpi-ranks, with    1 threads/rank
 distrk:  each k-point on   16 cores,    4 groups
 distr:  one band on NCORES_PER_BAND=   4 cores,    4 groups


--------------------------------------------------------------------------------------------------------


 INCAR:
 POTCAR:    PAW_PBE Th 07Sep2000
 POTCAR:    PAW_PBE Bi_d 06Sep2000
 POTCAR:    PAW_PBE Pt 04Feb2005
 POTCAR:    PAW_PBE Th 07Sep2000
   VRHFIN =Th:  [Xe,5d,4f]
   LEXCH  = PE
   EATOM  =   984.7553 eV,   72.3775 Ry

   TITEL  = PAW_PBE Th 07Sep2000
   LULTRA =        F    use ultrasoft PP ?
   IUNSCR =        1    unscreen: 0-lin 1-nonlin 2-no
   RPACOR =    2.200    partial core radius
   POMASS =  232.039; ZVAL   =   12.000    mass and valenz
   RCORE  =    2.800    outmost cutoff radius
   RWIGS  =    3.000; RWIGS  =    1.588    wigner-seitz radius (au A)
   ENMAX  =  247.306; ENMIN  =  185.480 eV
   RCLOC  =    2.211    cutoff for local pot
   LCOR   =        T    correct aug charges
   LPAW   =        T    paw PP
   EAUG   =  535.431
   DEXC   =    0.000
   RMAX   =    2.862    core radius for proj-oper
   RAUG   =    1.300    factor for augmentation sphere
   RDEP   =    2.926    radius for radial grids
   RDEPT  =    2.250    core radius for aug-charge

   Atomic configuration
   18 entries
     n  l   j            E        occ.
     1  0  0.50   -109990.1879   2.0000
     2  0  0.50    -20388.0147   2.0000
     2  1  1.50    -17049.6156   6.0000
     3  0  0.50     -5106.5436   2.0000
     3  1  1.50     -4175.1262   6.0000
     3  2  2.50     -3342.8437  10.0000
     4  0  0.50     -1280.8211   2.0000
     4  1  1.50      -976.4859   6.0000
     4  2  2.50      -661.8358  10.0000
     4  3  3.50      -324.9124  14.0000
     5  0  0.50      -278.7726   2.0000
     5  1  1.50      -186.2212   6.0000
     5  2  2.50       -86.9031  10.0000
     6  0  0.50       -43.3059   2.0000
     7  0  0.50        -4.0783   2.0000
     6  1  1.50       -21.4071   6.0000
     6  2  1.50        -2.3664   1.0000
     5  3  2.50        -1.2804   1.0000
   Description
     l       E           TYP  RCUT    TYP  RCUT
     0    -43.3059201     23  2.800
     0     -4.0782900     23  2.800
     1    -21.4071032     23  2.500
     1    -22.7676858     23  2.500
     2     -2.3664170     23  2.500
     2      3.0546543     23  2.500
     3     -1.2803910     23  2.800
     3      0.1360583     23  2.800
  local pseudopotential read in
  partial core-charges read in
  partial kinetic energy density read in
  atomic valenz-charges read in
  non local Contribution for L=           0  read in
    real space projection operators read in
  non local Contribution for L=           0  read in
    real space projection operators read in
  non local Contribution for L=           1  read in
    real space projection operators read in
  non local Contribution for L=           1  read in
    real space projection operators read in
  non local Contribution for L=           2  read in
    real space projection operators read in
  non local Contribution for L=           2  read in
    real space projection operators read in
  non local Contribution for L=           3  read in
    real space projection operators read in
  non local Contribution for L=           3  read in
    real space projection operators read in
    PAW grid and wavefunctions read in

   number of l-projection  operators is LMAX  =           8
   number of lm-projection operators is LMMAX =          32

 POTCAR:    PAW_PBE Bi_d 06Sep2000
   VRHFIN =Bi:
   LEXCH  = PE
   EATOM  =  1959.2045 eV,  143.9975 Ry

   TITEL  = PAW_PBE Bi_d 06Sep2000
   LULTRA =        F    use ultrasoft PP ?
   IUNSCR =        1    unscreen: 0-lin 1-nonlin 2-no
   RPACOR =    2.200    partial core radius
   POMASS =  208.980; ZVAL   =   15.000    mass and valenz
   RCORE  =    2.500    outmost cutoff radius
   RWIGS  =    3.090; RWIGS  =    1.635    wigner-seitz radius (au A)
   ENMAX  =  242.839; ENMIN  =  182.129 eV
   ICORE  =        3    local potential
   LCOR   =        T    correct aug charges
   LPAW   =        T    paw PP
   EAUG   =  442.899
   DEXC   =    0.000
   RMAX   =    2.551    core radius for proj-oper
   RAUG   =    1.300    factor for augmentation sphere
   RDEP   =    2.650    radius for radial grids
   RDEPT  =    2.039    core radius for aug-charge

   Atomic configuration
   16 entries
     n  l   j            E        occ.
     1  0  0.50    -90639.6581   2.0000
     2  0  0.50    -16282.4666   2.0000
     2  1  1.50    -13922.8286   6.0000
     3  0  0.50     -3930.4763   2.0000
     3  1  1.50     -3256.7013   6.0000
     3  2  2.50     -2581.6168  10.0000
     4  0  0.50      -902.2614   2.0000
     4  1  1.50      -681.5915   6.0000
     4  2  2.50      -429.8249  10.0000
     4  3  3.50      -152.6004  14.0000
     5  0  0.50      -157.7156   2.0000
     5  1  1.50       -95.8054   6.0000
     5  2  2.50       -27.0806  10.0000
     6  0  0.50       -14.4732   2.0000
     6  1  1.50        -4.5702   3.0000
     5  3  2.50        -2.7212   0.0000
   Description
     l       E           TYP  RCUT    TYP  RCUT
     2    -27.0805982     23  2.500
     2     -1.3605826     23  2.500
     0    -14.4732271     23  2.500
     0      6.8029130     23  2.500
     1     -4.5701651     23  2.500
     1     13.6058260     23  2.500
     3     -1.3605826      7  2.500
  local pseudopotential read in
  partial core-charges read in
  partial kinetic energy density read in
  atomic valenz-charges read in
  non local Contribution for L=           2  read in
    real space projection operators read in
  non local Contribution for L=           2  read in
    real space projection operators read in
  non local Contribution for L=           0  read in
    real space projection operators read in
  non local Contribution for L=           0  read in
    real space projection operators read in
  non local Contribution for L=           1  read in
    real space projection operators read in
  non local Contribution for L=           1  read in
    real space projection operators read in
    PAW grid and wavefunctions read in

   number of l-projection  operators is LMAX  =           6
   number of lm-projection operators is LMMAX =          18

 POTCAR:    PAW_PBE Pt 04Feb2005
   VRHFIN =Pt: s1d9
   LEXCH  = PE
   EATOM  =   729.1176 eV,   53.5886 Ry

   TITEL  = PAW_PBE Pt 04Feb2005
   LULTRA =        F    use ultrasoft PP ?
   IUNSCR =        1    unscreen: 0-lin 1-nonlin 2-no
   RPACOR =    2.330    partial core radius
   POMASS =  195.080; ZVAL   =   10.000    mass and valenz
   RCORE  =    2.600    outmost cutoff radius
   RWIGS  =    2.750; RWIGS  =    1.455    wigner-seitz radius (au A)
   ENMAX  =  230.283; ENMIN  =  172.712 eV
   ICORE  =        3    local potential
   LCOR   =        T    correct aug charges
   LPAW   =        T    paw PP
   EAUG   =  358.966
   DEXC   =    0.000
   RMAX   =    2.658    core radius for proj-oper
   RAUG   =    1.300    factor for augmentation sphere
   RDEP   =    2.761    radius for radial grids
   RDEPT  =    2.203    core radius for aug-charge

   Atomic configuration
   16 entries
     n  l   j            E        occ.
     1  0  0.50    -78401.1885   2.0000
     2  0  0.50    -13770.7750   2.0000
     2  1  1.50    -11931.0468   6.0000
     3  0  0.50     -3234.7234   2.0000
     3  1  1.50     -2699.2216   6.0000
     3  2  2.50     -2119.5714  10.0000
     4  0  0.50      -695.1528   2.0000
     4  1  1.50      -519.6034   6.0000
     4  2  2.50      -306.6786  10.0000
     4  3  3.50       -70.1041  14.0000
     5  0  0.50      -101.7747   2.0000
     5  1  1.50       -55.9873   6.0000
     5  2  2.50        -6.1423   9.0000
     6  0  0.50        -5.6573   1.0000
     6  1  1.50        -6.8029   0.0000
     5  3  2.50        -1.3606   0.0000
   Description
     l       E           TYP  RCUT    TYP  RCUT
     2     -6.1423404     23  2.500
     2     -7.5029230     23  2.500
     0     -5.6573207     23  2.500
     0      0.7416693     23  2.500
     1     -2.7211652     23  2.600
     1     20.4087390     23  2.600
     3     -1.3605826     23  2.500
  local pseudopotential read in
  partial core-charges read in
  partial kinetic energy density read in
  atomic valenz-charges read in
  non local Contribution for L=           2  read in
    real space projection operators read in
  non local Contribution for L=           2  read in
    real space projection operators read in
  non local Contribution for L=           0  read in
    real space projection operators read in
  non local Contribution for L=           0  read in
    real space projection operators read in
  non local Contribution for L=           1  read in
    real space projection operators read in
  non local Contribution for L=           1  read in
    real space projection operators read in
    PAW grid and wavefunctions read in

   number of l-projection  operators is LMAX  =           6
   number of lm-projection operators is LMMAX =          18

 WARNING: PSMAXN for non-local potential too small
          PSMAXN should be >   13.5545592237991       NTYP=           1

 -----------------------------------------------------------------------------
|                                                                             |
|  ADVICE TO THIS USER RUNNING 'VASP/VAMP'   (HEAR YOUR MASTER'S VOICE ...):  |
|                                                                             |
|      You enforced a specific xc-type in the INCAR file,                     |
|      a different type was found on the POTCAR file                          |
|          I HOPE YOU KNOW, WHAT YOU ARE  DOING                               |
|                                                                             |
 -----------------------------------------------------------------------------

  PAW_PBE Th 07Sep2000                  :
 energy of atom  1       EATOM= -984.7553
 kinetic energy error for atom=    0.0005 (will be added to EATOM!!)
  PAW_PBE Bi_d 06Sep2000                :
 energy of atom  2       EATOM=-1959.2045
 kinetic energy error for atom=    0.0012 (will be added to EATOM!!)
  PAW_PBE Pt 04Feb2005                  :
 energy of atom  3       EATOM= -729.1176
 kinetic energy error for atom=    0.0010 (will be added to EATOM!!)


 POSCAR: Th1 Bi1 Pt1
  positions in direct lattice
  No initial velocities read in
 exchange correlation table for  LEXCH =       14
   RHO(1)=    0.500       N(1)  =     2000
   RHO(2)=  100.500       N(2)  =     4000



--------------------------------------------------------------------------------------------------------


 ion  position               nearest neighbor table
   1  0.250  0.250  0.250-   3 2.99   3 2.99   3 2.99   3 2.99   2 3.45   2 3.45   2 3.45   2 3.45
                             2 3.45   2 3.45
   2  0.750  0.750  0.750-   3 2.99   3 2.99   3 2.99   3 2.99   1 3.45   1 3.45   1 3.45   1 3.45
                             1 3.45   1 3.45
   3  0.000  0.000  0.000-   2 2.99   2 2.99   1 2.99   2 2.99   1 2.99   1 2.99   1 2.99   2 2.99


  LATTYP: Found a face centered cubic cell.
 ALAT       =     6.8950816929

  Lattice vectors:

 A1 = (   0.0000000000,   3.4475408464,   3.4475408464)
 A2 = (   3.4475408464,   0.0000000000,   3.4475408464)
 A3 = (   3.4475408464,   3.4475408464,   0.0000000000)


Analysis of symmetry for initial positions (statically):
=====================================================================
 Subroutine PRICEL returns:
 Original cell was already a primitive cell.


 Routine SETGRP: Setting up the symmetry group for a
 face centered cubic supercell.


 Subroutine GETGRP returns: Found 24 space group operations
 (whereof 24 operations were pure point group operations)
 out of a pool of 48 trial point group operations.


The static configuration has the point symmetry T_d .


Analysis of symmetry for dynamics (positions and initial velocities):
=====================================================================
 Subroutine PRICEL returns:
 Original cell was already a primitive cell.


 Routine SETGRP: Setting up the symmetry group for a
 face centered cubic supercell.


 Subroutine GETGRP returns: Found 24 space group operations
 (whereof 24 operations were pure point group operations)
 out of a pool of 48 trial point group operations.


The dynamic configuration has the point symmetry T_d .


 Subroutine INISYM returns: Found 24 space group operations
 (whereof 24 operations are pure point group operations),
 and found     1 'primitive' translations


----------------------------------------------------------------------------------------

                                     Primitive cell

  volume of cell :      81.9518

  direct lattice vectors                    reciprocal lattice vectors
     0.000000000  3.447540846  3.447540846    -0.145030914  0.145030914  0.145030914
     3.447540846  0.000000000  3.447540846     0.145030914 -0.145030914  0.145030914
     3.447540846  3.447540846  0.000000000     0.145030914  0.145030914 -0.145030914

  length of vectors
     4.875559022  4.875559022  4.875559022     0.251200912  0.251200912  0.251200912

  position of ions in fractional coordinates (direct lattice)
     0.250000000  0.250000000  0.250000000
     0.750000000  0.750000000  0.750000000
     0.000000000  0.000000000  0.000000000

  ion indices of the primitive-cell ions
   primitive index   ion index
                 1           1
                 2           2
                 3           3

----------------------------------------------------------------------------------------



 KPOINTS: KPOINTS

Automatic generation of k-mesh.
Space group operators:
 irot       det(A)        alpha          n_x          n_y          n_z        tau_x        tau_y        tau_z
    1     1.000000     0.000000     1.000000     0.000000     0.000000     0.000000     0.000000     0.000000
    2     1.000000   120.000000    -0.577350    -0.577350    -0.577350     0.000000     0.000000     0.000000
    3     1.000000   120.000000     0.577350     0.577350     0.577350     0.000000     0.000000     0.000000
    4    -1.000000    90.000000    -0.000000    -0.000000    -1.000000     0.000000     0.000000     0.000000
    5    -1.000000   180.000000     0.000000     0.707107     0.707107     0.000000     0.000000     0.000000
    6    -1.000000    90.000000    -0.000000     1.000000    -0.000000     0.000000     0.000000     0.000000
    7     1.000000   180.000000     0.000000     0.000000     1.000000     0.000000     0.000000     0.000000
    8     1.000000   120.000000    -0.577350     0.577350     0.577350     0.000000     0.000000     0.000000
    9     1.000000   120.000000    -0.577350     0.577350    -0.577350     0.000000     0.000000     0.000000
   10    -1.000000    90.000000     0.000000     0.000000     1.000000     0.000000     0.000000     0.000000
   11    -1.000000    90.000000    -1.000000     0.000000     0.000000     0.000000     0.000000     0.000000
   12    -1.000000   180.000000     0.707107     0.000000     0.707107     0.000000     0.000000     0.000000
   13     1.000000   120.000000     0.577350    -0.577350     0.577350     0.000000     0.000000     0.000000
   14     1.000000   120.000000    -0.577350    -0.577350     0.577350     0.000000     0.000000     0.000000
   15     1.000000   180.000000     1.000000     0.000000     0.000000     0.000000     0.000000     0.000000
   16    -1.000000    90.000000     0.000000    -1.000000     0.000000     0.000000     0.000000     0.000000
   17    -1.000000   180.000000     0.707107     0.707107    -0.000000     0.000000     0.000000     0.000000
   18    -1.000000    90.000000     1.000000     0.000000     0.000000     0.000000     0.000000     0.000000
   19     1.000000   120.000000     0.577350    -0.577350    -0.577350     0.000000     0.000000     0.000000
   20     1.000000   180.000000    -0.000000    -1.000000     0.000000     0.000000     0.000000     0.000000
   21     1.000000   120.000000     0.577350     0.577350    -0.577350     0.000000     0.000000     0.000000
   22    -1.000000   180.000000    -0.000000    -0.707107     0.707107     0.000000     0.000000     0.000000
   23    -1.000000   180.000000     0.707107    -0.707107     0.000000     0.000000     0.000000     0.000000
   24    -1.000000   180.000000     0.707107     0.000000    -0.707107     0.000000     0.000000     0.000000

 Subroutine IBZKPT returns following result:
 ===========================================

 Found     84 irreducible k-points:

 Following reciprocal coordinates:
            Coordinates               Weight
  0.000000  0.000000  0.000000      1.000000
  0.076923  0.000000 -0.000000      8.000000
  0.153846  0.000000 -0.000000      8.000000
  0.230769  0.000000 -0.000000      8.000000
  0.307692  0.000000 -0.000000      8.000000
  0.384615  0.000000 -0.000000      8.000000
  0.461538 -0.000000 -0.000000      8.000000
  0.076923  0.076923 -0.000000      6.000000
  0.153846  0.076923 -0.000000     24.000000
  0.230769  0.076923 -0.000000     24.000000
  0.307692  0.076923 -0.000000     24.000000
  0.384615  0.076923 -0.000000     24.000000
  0.461538  0.076923 -0.000000     24.000000
 -0.461538  0.076923  0.000000     24.000000
 -0.384615  0.076923  0.000000     24.000000
 -0.307692  0.076923  0.000000     24.000000
 -0.230769  0.076923  0.000000     24.000000
 -0.153846  0.076923  0.000000     24.000000
 -0.076923  0.076923  0.000000     12.000000
  0.153846  0.153846 -0.000000      6.000000
  0.230769  0.153846  0.000000     24.000000
  0.307692  0.153846 -0.000000     24.000000
  0.384615  0.153846 -0.000000     24.000000
  0.461538  0.153846 -0.000000     24.000000
 -0.461538  0.153846  0.000000     24.000000
 -0.384615  0.153846  0.000000     24.000000
 -0.307692  0.153846 -0.000000     24.000000
 -0.230769  0.153846  0.000000     24.000000
 -0.153846  0.153846  0.000000     12.000000
  0.230769  0.230769 -0.000000      6.000000
  0.307692  0.230769 -0.000000     24.000000
  0.384615  0.230769 -0.000000     24.000000
  0.461538  0.230769 -0.000000     24.000000
 -0.461538  0.230769 -0.000000     24.000000
 -0.384615  0.230769  0.000000     24.000000
 -0.307692  0.230769  0.000000     24.000000
 -0.230769  0.230769  0.000000     12.000000
  0.307692  0.307692 -0.000000      6.000000
  0.384615  0.307692 -0.000000     24.000000
  0.461538  0.307692 -0.000000     24.000000
 -0.461538  0.307692  0.000000     24.000000
 -0.384615  0.307692 -0.000000     24.000000
 -0.307692  0.307692  0.000000     12.000000
  0.384615  0.384615 -0.000000      6.000000
  0.461538  0.384615 -0.000000     24.000000
 -0.461538  0.384615  0.000000     24.000000
 -0.384615  0.384615  0.000000     12.000000
  0.461538  0.461538 -0.000000      6.000000
 -0.461538  0.461538 -0.000000     12.000000
  0.230769  0.153846  0.076923     24.000000
  0.307692  0.153846  0.076923     48.000000
  0.384615  0.153846  0.076923     48.000000
  0.461538  0.153846  0.076923     48.000000
 -0.461538  0.153846  0.076923     48.000000
  0.307692  0.230769  0.076923     24.000000
  0.384615  0.230769  0.076923     48.000000
  0.461538  0.230769  0.076923     48.000000
 -0.461538  0.230769  0.076923     48.000000
 -0.384615  0.230769  0.076923     48.000000
 -0.307692  0.230769  0.076923     48.000000
 -0.230769  0.230769  0.076923     48.000000
 -0.153846  0.230769  0.076923     24.000000
  0.384615  0.307692  0.076923     24.000000
  0.461538  0.307692  0.076923     48.000000
 -0.461538  0.307692  0.076923     48.000000
 -0.384615  0.307692  0.076923     48.000000
 -0.307692  0.307692  0.076923     48.000000
 -0.230769  0.307692  0.076923     24.000000
  0.461538  0.384615  0.076923     24.000000
 -0.461538  0.384615  0.076923     48.000000
 -0.384615  0.384615  0.076923     48.000000
 -0.307692  0.384615  0.076923     24.000000
 -0.461538  0.461538  0.076923     24.000000
 -0.384615  0.461538  0.076923     24.000000
  0.461538  0.307692  0.153846     24.000000
 -0.461538  0.307692  0.153846     48.000000
 -0.384615  0.307692  0.153846     48.000000
 -0.461538  0.384615  0.153846     24.000000
 -0.384615  0.384615  0.153846     48.000000
 -0.307692  0.384615  0.153846     48.000000
 -0.230769  0.384615  0.153846     24.000000
 -0.384615  0.461538  0.153846     24.000000
 -0.307692  0.461538  0.153846     24.000000
 -0.307692  0.461538  0.230769     24.000000

 Following cartesian coordinates:
            Coordinates               Weight
  0.000000  0.000000  0.000000      1.000000
 -0.011230  0.011230  0.011230      8.000000
 -0.022460  0.022460  0.022460      8.000000
 -0.033690  0.033690  0.033690      8.000000
 -0.044920  0.044920  0.044920      8.000000
 -0.056151  0.056151  0.056151      8.000000
 -0.067381  0.067381  0.067381      8.000000
 -0.000000 -0.000000  0.022460      6.000000
 -0.011230  0.011230  0.033690     24.000000
 -0.022460  0.022460  0.044920     24.000000
 -0.033690  0.033690  0.056151     24.000000
 -0.044920  0.044920  0.067381     24.000000
 -0.056151  0.056151  0.078611     24.000000
  0.078611 -0.078611 -0.056151     24.000000
  0.067381 -0.067381 -0.044920     24.000000
  0.056151 -0.056151 -0.033690     24.000000
  0.044920 -0.044920 -0.022460     24.000000
  0.033690 -0.033690 -0.011230     24.000000
  0.022460 -0.022460 -0.000000     12.000000
 -0.000000 -0.000000  0.044920      6.000000
 -0.011230  0.011230  0.056151     24.000000
 -0.022460  0.022460  0.067381     24.000000
 -0.033690  0.033690  0.078611     24.000000
 -0.044920  0.044920  0.089841     24.000000
  0.089841 -0.089841 -0.044920     24.000000
  0.078611 -0.078611 -0.033690     24.000000
  0.067381 -0.067381 -0.022460     24.000000
  0.056151 -0.056151 -0.011230     24.000000
  0.044920 -0.044920 -0.000000     12.000000
  0.000000 -0.000000  0.067381      6.000000
 -0.011230  0.011230  0.078611     24.000000
 -0.022460  0.022460  0.089841     24.000000
 -0.033690  0.033690  0.101071     24.000000
  0.101071 -0.101071 -0.033690     24.000000
  0.089841 -0.089841 -0.022460     24.000000
  0.078611 -0.078611 -0.011230     24.000000
  0.067381 -0.067381 -0.000000     12.000000
 -0.000000 -0.000000  0.089841      6.000000
 -0.011230  0.011230  0.101071     24.000000
 -0.022460  0.022460  0.112301     24.000000
  0.112301 -0.112301 -0.022460     24.000000
  0.101071 -0.101071 -0.011230     24.000000
  0.089841 -0.089841 -0.000000     12.000000
 -0.000000 -0.000000  0.112301      6.000000
 -0.011230  0.011230  0.123531     24.000000
  0.123531 -0.123531 -0.011230     24.000000
  0.112301 -0.112301 -0.000000     12.000000
 -0.000000  0.000000  0.134761      6.000000
  0.134761 -0.134761 -0.000000     12.000000
 -0.000000  0.022460  0.044920     24.000000
 -0.011230  0.033690  0.056151     48.000000
 -0.022460  0.044920  0.067381     48.000000
 -0.033690  0.056151  0.078611     48.000000
  0.101071 -0.078611 -0.056151     48.000000
  0.000000  0.022460  0.067381     24.000000
 -0.011230  0.033690  0.078611     48.000000
 -0.022460  0.044920  0.089841     48.000000
  0.112301 -0.089841 -0.044920     48.000000
  0.101071 -0.078611 -0.033690     48.000000
  0.089841 -0.067381 -0.022460     48.000000
  0.078611 -0.056151 -0.011230     48.000000
  0.067381 -0.044920 -0.000000     24.000000
  0.000000  0.022460  0.089841     24.000000
 -0.011230  0.033690  0.101071     48.000000
  0.123531 -0.101071 -0.033690     48.000000
  0.112301 -0.089841 -0.022460     48.000000
  0.101071 -0.078611 -0.011230     48.000000
  0.089841 -0.067381 -0.000000     24.000000
  0.000000  0.022460  0.112301     24.000000
  0.134761 -0.112301 -0.022460     48.000000
  0.123531 -0.101071 -0.011230     48.000000
  0.112301 -0.089841 -0.000000     24.000000
  0.145991 -0.123531 -0.011230     24.000000
  0.134761 -0.112301 -0.000000     24.000000
  0.000000  0.044920  0.089841     24.000000
  0.134761 -0.089841 -0.044920     48.000000
  0.123531 -0.078611 -0.033690     48.000000
  0.145991 -0.101071 -0.033690     24.000000
  0.134761 -0.089841 -0.022460     48.000000
  0.123531 -0.078611 -0.011230     48.000000
  0.112301 -0.067381 -0.000000     24.000000
  0.145991 -0.101071 -0.011230     24.000000
  0.134761 -0.089841 -0.000000     24.000000
  0.145991 -0.078611 -0.011230     24.000000



--------------------------------------------------------------------------------------------------------




 Dimension of arrays:
   k-points           NKPTS =     84   k-points in BZ     NKDIM =     84   number of bands    NBANDS=     24
   number of dos      NEDOS =    301   number of ions     NIONS =      3
   non local maximal  LDIM  =      8   non local SUM 2l+1 LMDIM =     32
   total plane-waves  NPLWV =  74088
   max r-space proj   IRMAX =      1   max aug-charges    IRDMAX= 438193
   dimension x,y,z NGX =    42 NGY =   42 NGZ =   42
   dimension x,y,z NGXF=    84 NGYF=   84 NGZF=   84
   support grid    NGXF=   168 NGYF=  168 NGZF=  168
   ions per type =               1   1   1
   NGX,Y,Z   is equivalent  to a cutoff of  14.32, 14.32, 14.32 a.u.
   NGXF,Y,Z  is equivalent  to a cutoff of  28.64, 28.64, 28.64 a.u.

 SYSTEM =  unknown system
 POSCAR =  Th1 Bi1 Pt1

 Startparameter for this run:
   NWRITE =      2    write-flag & timer
   PREC   = acc       normal or accurate (medium, high low for compatibility)
   ISTART =      0    job   : 0-new  1-cont  2-samecut
   ICHARG =      2    charge: 1-file 2-atom 10-const
   ISPIN  =      1    spin polarized calculation?
   LNONCOLLINEAR =      F non collinear calculations
   LSORBIT =      F    spin-orbit coupling
   INIWAV =      1    electr: 0-lowe 1-rand  2-diag
   LASPH  =      F    aspherical Exc in radial PAW
   METAGGA=      F    non-selfconsistent MetaGGA calc.

 Electronic Relaxation 1
   ENCUT  =  700.0 eV  51.45 Ry    7.17 a.u.  10.52 10.52 10.52*2*pi/ulx,y,z
   ENINI  =  700.0     initial cutoff
   ENAUG  =  535.4 eV  augmentation charge cutoff
   NELM   =     60;   NELMIN=  5; NELMDL= -5     # of ELM steps
   EDIFF  = 0.1E-06   stopping-criterion for ELM
   LREAL  =      F    real-space projection
   NLSPLINE    = F    spline interpolate recip. space projectors
   LCOMPAT=      F    compatible to vasp.4.4
   GGA_COMPAT  = T    GGA compatible to vasp.4.4-vasp.4.6
   LMAXPAW     = -100 max onsite density
   LMAXMIX     =    2 max onsite mixed and CHGCAR
   VOSKOWN=      0    Vosko Wilk Nusair interpolation
   ROPT   =    0.00000   0.00000   0.00000
 Ionic relaxation
   EDIFFG = 0.1E-05   stopping-criterion for IOM
   NSW    =      0    number of steps for IOM
   NBLOCK =      1;   KBLOCK =      1    inner block; outer block
   IBRION =     -1    ionic relax: 0-MD 1-quasi-New 2-CG
   NFREE  =      0    steps in history (QN), initial steepest desc. (CG)
   ISIF   =      3    stress and relaxation
   IWAVPR =     10    prediction:  0-non 1-charg 2-wave 3-comb
   ISYM   =      2    0-nonsym 1-usesym 2-fastsym
   LCORR  =      T    Harris-Foulkes like correction to forces

   POTIM  = 0.5000    time-step for ionic-motion
   TEIN   =    0.0    initial temperature
   TEBEG  =    0.0;   TEEND  =   0.0 temperature during run
   SMASS  =  -3.00    Nose mass-parameter (am)
   estimated Nose-frequenzy (Omega)   =  0.10E-29 period in steps = 0.13E+47 mass=  -0.543E-27a.u.
   SCALEE = 1.0000    scale energy and forces
   NPACO  =    256;   APACO  = 16.0  distance and # of slots for P.C.
   PSTRESS=    0.0 pullay stress

  Mass of Ions in am
   POMASS = 232.04208.98195.08
  Ionic Valenz
   ZVAL   =  12.00 15.00 10.00
  Atomic Wigner-Seitz radii
   RWIGS  =  -1.00 -1.00 -1.00
  virtual crystal weights
   VCA    =   1.00  1.00  1.00
   NELECT =      37.0000    total number of electrons
   NUPDOWN=      -1.0000    fix difference up-down

 DOS related values:
   EMIN   =  10.00;   EMAX   =-10.00  energy-range for DOS
   EFERMI =   0.00
   ISMEAR =     0;   SIGMA  =   0.01  broadening in eV -4-tet -1-fermi 0-gaus

 Electronic relaxation 2 (details)
   IALGO  =     38    algorithm
   LDIAG  =      T    sub-space diagonalisation (order eigenvalues)
   LSUBROT=      F    optimize rotation matrix (better conditioning)
   TURBO    =      0    0=normal 1=particle mesh
   IRESTART =      0    0=no restart 2=restart with 2 vectors
   NREBOOT  =      0    no. of reboots
   NMIN     =      0    reboot dimension
   EREF     =   0.00    reference energy to select bands
   IMIX   =      4    mixing-type and parameters
     AMIX     =   0.40;   BMIX     =  1.00
     AMIX_MAG =   1.60;   BMIX_MAG =  1.00
     AMIN     =   0.10
     WC   =   100.;   INIMIX=   1;  MIXPRE=   1;  MAXMIX= -45

 Intra band minimization:
   WEIMIN = 0.0000     energy-eigenvalue tresh-hold
   EBREAK =  0.10E-08  absolut break condition
   DEPER  =   0.30     relativ break condition

   TIME   =   0.40     timestep for ELM

  volume/ion in A,a.u.               =      27.32       184.35
  Fermi-wavevector in a.u.,A,eV,Ry     =   1.255903  2.373312 21.460354  1.577292
  Thomas-Fermi vector in A             =   2.389637

 Write flags
   LWAVE        =      F    write WAVECAR
   LDOWNSAMPLE  =      F    k-point downsampling of WAVECAR
   LCHARG       =      F    write CHGCAR
   LVTOT        =      F    write LOCPOT, total local potential
   LVHAR        =      F    write LOCPOT, Hartree potential only
   LELF         =      F    write electronic localiz. function (ELF)
   LORBIT       =      0    0 simple, 1 ext, 2 COOP (PROOUT), +10 PAW based schemes


 Dipole corrections
   LMONO  =      F    monopole corrections only (constant potential shift)
   LDIPOL =      F    correct potential (dipole corrections)
   IDIPOL =      0    1-x, 2-y, 3-z, 4-all directions
   EPSILON=  1.0000000 bulk dielectric constant

 Exchange correlation treatment:
   GGA     =    PS    GGA type
   LEXCH   =    14    internal setting for exchange type
   VOSKOWN=      0    Vosko Wilk Nusair interpolation
   LHFCALC =     F    Hartree Fock is set to
   LHFONE  =     F    Hartree Fock one center treatment
   AEXX    =    0.0000 exact exchange contribution

 Linear response parameters
   LEPSILON=     F    determine dielectric tensor
   LRPA    =     F    only Hartree local field effects (RPA)
   LNABLA  =     F    use nabla operator in PAW spheres
   LVEL    =     F    velocity operator in full k-point grid
   LINTERFAST=   F  fast interpolation
   KINTER  =     0    interpolate to denser k-point grid
   CSHIFT  =0.1000    complex shift for real part using Kramers Kronig
   OMEGAMAX=  -1.0    maximum frequency
   DEG_THRESHOLD= 0.2000000E-02 threshold for treating states as degnerate
   RTIME   =   -0.100 relaxation time in fs
  (WPLASMAI=    0.000 imaginary part of plasma frequency in eV, 0.658/RTIME)
   DFIELD  = 0.0000000 0.0000000 0.0000000 field for delta impulse in time

 Orbital magnetization related:
   ORBITALMAG=     F  switch on orbital magnetization
   LCHIMAG   =     F  perturbation theory with respect to B field
   DQ        =  0.001000  dq finite difference perturbation B field
   LLRAUG    =     F  two centre corrections for induced B field



--------------------------------------------------------------------------------------------------------


 Static calculation
 charge density and potential will be updated during run
 non-spin polarized calculation
 Variant of blocked Davidson
 Davidson routine will perform the subspace rotation
 perform sub-space diagonalisation
    after iterative eigenvector-optimisation
 modified Broyden-mixing scheme, WC =      100.0
 initial mixing is a Kerker type mixing with AMIX =  0.4000 and BMIX =      1.0000
 Hartree-type preconditioning will be used
 using additional bands            5
 reciprocal scheme for non local part
 use partial core corrections
 calculate Harris-corrections to forces
   (improved forces if not selfconsistent)
 use gradient corrections
 use of overlap-Matrix (Vanderbilt PP)
 Gauss-broadening in eV      SIGMA  =   0.01


--------------------------------------------------------------------------------------------------------


  energy-cutoff  :      700.00
  volume of cell :       81.95
      direct lattice vectors                 reciprocal lattice vectors
     0.000000000  3.447540846  3.447540846    -0.145030914  0.145030914  0.145030914
     3.447540846  0.000000000  3.447540846     0.145030914 -0.145030914  0.145030914
     3.447540846  3.447540846  0.000000000     0.145030914  0.145030914 -0.145030914

  length of vectors
     4.875559022  4.875559022  4.875559022     0.251200912  0.251200912  0.251200912



 k-points in units of 2pi/SCALE and weight: KPOINTS
   0.00000000  0.00000000  0.00000000       0.000
  -0.01123011  0.01123011  0.01123011       0.004
  -0.02246022  0.02246022  0.02246022       0.004
  -0.03369033  0.03369033  0.03369033       0.004
  -0.04492043  0.04492043  0.04492043       0.004
  -0.05615054  0.05615054  0.05615054       0.004
  -0.06738065  0.06738065  0.06738065       0.004
  -0.00000000 -0.00000000  0.02246022       0.003
  -0.01123011  0.01123011  0.03369033       0.011
  -0.02246022  0.02246022  0.04492043       0.011
  -0.03369033  0.03369033  0.05615054       0.011
  -0.04492043  0.04492043  0.06738065       0.011
  -0.05615054  0.05615054  0.07861076       0.011
   0.07861076 -0.07861076 -0.05615054       0.011
   0.06738065 -0.06738065 -0.04492043       0.011
   0.05615054 -0.05615054 -0.03369033       0.011
   0.04492043 -0.04492043 -0.02246022       0.011
   0.03369033 -0.03369033 -0.01123011       0.011
   0.02246022 -0.02246022 -0.00000000       0.005
  -0.00000000 -0.00000000  0.04492043       0.003
  -0.01123011  0.01123011  0.05615054       0.011
  -0.02246022  0.02246022  0.06738065       0.011
  -0.03369033  0.03369033  0.07861076       0.011
  -0.04492043  0.04492043  0.08984087       0.011
   0.08984087 -0.08984087 -0.04492043       0.011
   0.07861076 -0.07861076 -0.03369033       0.011
   0.06738065 -0.06738065 -0.02246022       0.011
   0.05615054 -0.05615054 -0.01123011       0.011
   0.04492043 -0.04492043 -0.00000000       0.005
   0.00000000 -0.00000000  0.06738065       0.003
  -0.01123011  0.01123011  0.07861076       0.011
  -0.02246022  0.02246022  0.08984087       0.011
  -0.03369033  0.03369033  0.10107098       0.011
   0.10107098 -0.10107098 -0.03369033       0.011
   0.08984087 -0.08984087 -0.02246022       0.011
   0.07861076 -0.07861076 -0.01123011       0.011
   0.06738065 -0.06738065 -0.00000000       0.005
  -0.00000000 -0.00000000  0.08984087       0.003
  -0.01123011  0.01123011  0.10107098       0.011
  -0.02246022  0.02246022  0.11230109       0.011
   0.11230109 -0.11230109 -0.02246022       0.011
   0.10107098 -0.10107098 -0.01123011       0.011
   0.08984087 -0.08984087 -0.00000000       0.005
  -0.00000000 -0.00000000  0.11230109       0.003
  -0.01123011  0.01123011  0.12353119       0.011
   0.12353119 -0.12353119 -0.01123011       0.011
   0.11230109 -0.11230109 -0.00000000       0.005
  -0.00000000  0.00000000  0.13476130       0.003
   0.13476130 -0.13476130 -0.00000000       0.005
  -0.00000000  0.02246022  0.04492043       0.011
  -0.01123011  0.03369033  0.05615054       0.022
  -0.02246022  0.04492043  0.06738065       0.022
  -0.03369033  0.05615054  0.07861076       0.022
   0.10107098 -0.07861076 -0.05615054       0.022
   0.00000000  0.02246022  0.06738065       0.011
  -0.01123011  0.03369033  0.07861076       0.022
  -0.02246022  0.04492043  0.08984087       0.022
   0.11230109 -0.08984087 -0.04492043       0.022
   0.10107098 -0.07861076 -0.03369033       0.022
   0.08984087 -0.06738065 -0.02246022       0.022
   0.07861076 -0.05615054 -0.01123011       0.022
   0.06738065 -0.04492043 -0.00000000       0.011
   0.00000000  0.02246022  0.08984087       0.011
  -0.01123011  0.03369033  0.10107098       0.022
   0.12353119 -0.10107098 -0.03369033       0.022
   0.11230109 -0.08984087 -0.02246022       0.022
   0.10107098 -0.07861076 -0.01123011       0.022
   0.08984087 -0.06738065 -0.00000000       0.011
   0.00000000  0.02246022  0.11230109       0.011
   0.13476130 -0.11230109 -0.02246022       0.022
   0.12353119 -0.10107098 -0.01123011       0.022
   0.11230109 -0.08984087 -0.00000000       0.011
   0.14599141 -0.12353119 -0.01123011       0.011
   0.13476130 -0.11230109 -0.00000000       0.011
   0.00000000  0.04492043  0.08984087       0.011
   0.13476130 -0.08984087 -0.04492043       0.022
   0.12353119 -0.07861076 -0.03369033       0.022
   0.14599141 -0.10107098 -0.03369033       0.011
   0.13476130 -0.08984087 -0.02246022       0.022
   0.12353119 -0.07861076 -0.01123011       0.022
   0.11230109 -0.06738065 -0.00000000       0.011
   0.14599141 -0.10107098 -0.01123011       0.011
   0.13476130 -0.08984087 -0.00000000       0.011
   0.14599141 -0.07861076 -0.01123011       0.011

 k-points in reciprocal lattice and weights: KPOINTS
   0.00000000  0.00000000  0.00000000       0.000
   0.07692308  0.00000000 -0.00000000       0.004
   0.15384615  0.00000000 -0.00000000       0.004
   0.23076923  0.00000000 -0.00000000       0.004
   0.30769231  0.00000000 -0.00000000       0.004
   0.38461538  0.00000000 -0.00000000       0.004
   0.46153846 -0.00000000 -0.00000000       0.004
   0.07692308  0.07692308 -0.00000000       0.003
   0.15384615  0.07692308 -0.00000000       0.011
   0.23076923  0.07692308 -0.00000000       0.011
   0.30769231  0.07692308 -0.00000000       0.011
   0.38461538  0.07692308 -0.00000000       0.011
   0.46153846  0.07692308 -0.00000000       0.011
  -0.46153846  0.07692308  0.00000000       0.011
  -0.38461538  0.07692308  0.00000000       0.011
  -0.30769231  0.07692308  0.00000000       0.011
  -0.23076923  0.07692308  0.00000000       0.011
  -0.15384615  0.07692308  0.00000000       0.011
  -0.07692308  0.07692308  0.00000000       0.005
   0.15384615  0.15384615 -0.00000000       0.003
   0.23076923  0.15384615  0.00000000       0.011
   0.30769231  0.15384615 -0.00000000       0.011
   0.38461538  0.15384615 -0.00000000       0.011
   0.46153846  0.15384615 -0.00000000       0.011
  -0.46153846  0.15384615  0.00000000       0.011
  -0.38461538  0.15384615  0.00000000       0.011
  -0.30769231  0.15384615 -0.00000000       0.011
  -0.23076923  0.15384615  0.00000000       0.011
  -0.15384615  0.15384615  0.00000000       0.005
   0.23076923  0.23076923 -0.00000000       0.003
   0.30769231  0.23076923 -0.00000000       0.011
   0.38461538  0.23076923 -0.00000000       0.011
   0.46153846  0.23076923 -0.00000000       0.011
  -0.46153846  0.23076923 -0.00000000       0.011
  -0.38461538  0.23076923  0.00000000       0.011
  -0.30769231  0.23076923  0.00000000       0.011
  -0.23076923  0.23076923  0.00000000       0.005
   0.30769231  0.30769231 -0.00000000       0.003
   0.38461538  0.30769231 -0.00000000       0.011
   0.46153846  0.30769231 -0.00000000       0.011
  -0.46153846  0.30769231  0.00000000       0.011
  -0.38461538  0.30769231 -0.00000000       0.011
  -0.30769231  0.30769231  0.00000000       0.005
   0.38461538  0.38461538 -0.00000000       0.003
   0.46153846  0.38461538 -0.00000000       0.011
  -0.46153846  0.38461538  0.00000000       0.011
  -0.38461538  0.38461538  0.00000000       0.005
   0.46153846  0.46153846 -0.00000000       0.003
  -0.46153846  0.46153846 -0.00000000       0.005
   0.23076923  0.15384615  0.07692308       0.011
   0.30769231  0.15384615  0.07692308       0.022
   0.38461538  0.15384615  0.07692308       0.022
   0.46153846  0.15384615  0.07692308       0.022
  -0.46153846  0.15384615  0.07692308       0.022
   0.30769231  0.23076923  0.07692308       0.011
   0.38461538  0.23076923  0.07692308       0.022
   0.46153846  0.23076923  0.07692308       0.022
  -0.46153846  0.23076923  0.07692308       0.022
  -0.38461538  0.23076923  0.07692308       0.022
  -0.30769231  0.23076923  0.07692308       0.022
  -0.23076923  0.23076923  0.07692308       0.022
  -0.15384615  0.23076923  0.07692308       0.011
   0.38461538  0.30769231  0.07692308       0.011
   0.46153846  0.30769231  0.07692308       0.022
  -0.46153846  0.30769231  0.07692308       0.022
  -0.38461538  0.30769231  0.07692308       0.022
  -0.30769231  0.30769231  0.07692308       0.022
  -0.23076923  0.30769231  0.07692308       0.011
   0.46153846  0.38461538  0.07692308       0.011
  -0.46153846  0.38461538  0.07692308       0.022
  -0.38461538  0.38461538  0.07692308       0.022
  -0.30769231  0.38461538  0.07692308       0.011
  -0.46153846  0.46153846  0.07692308       0.011
  -0.38461538  0.46153846  0.07692308       0.011
   0.46153846  0.30769231  0.15384615       0.011
  -0.46153846  0.30769231  0.15384615       0.022
  -0.38461538  0.30769231  0.15384615       0.022
  -0.46153846  0.38461538  0.15384615       0.011
  -0.38461538  0.38461538  0.15384615       0.022
  -0.30769231  0.38461538  0.15384615       0.022
  -0.23076923  0.38461538  0.15384615       0.011
  -0.38461538  0.46153846  0.15384615       0.011
  -0.30769231  0.46153846  0.15384615       0.011
  -0.30769231  0.46153846  0.23076923       0.011

 position of ions in fractional coordinates (direct lattice)
   0.25000000  0.25000000  0.25000000
   0.75000000  0.75000000  0.75000000
   0.00000000  0.00000000  0.00000000

 position of ions in cartesian coordinates  (Angst):
   1.72377042  1.72377042  1.72377042
   5.17131127  5.17131127  5.17131127
   0.00000000  0.00000000  0.00000000



--------------------------------------------------------------------------------------------------------


 k-point  1 :   0.0000 0.0000 0.0000  plane waves:    3479
 k-point  2 :   0.0769 0.0000-0.0000  plane waves:    3467
 k-point  3 :   0.1538 0.0000-0.0000  plane waves:    3464
 k-point  4 :   0.2308 0.0000-0.0000  plane waves:    3449
 k-point  5 :   0.3077 0.0000-0.0000  plane waves:    3446
 k-point  6 :   0.3846 0.0000-0.0000  plane waves:    3449
 k-point  7 :   0.4615-0.0000-0.0000  plane waves:    3447
 k-point  8 :   0.0769 0.0769-0.0000  plane waves:    3471
 k-point  9 :   0.1538 0.0769-0.0000  plane waves:    3456
 k-point 10 :   0.2308 0.0769-0.0000  plane waves:    3455
 k-point 11 :   0.3077 0.0769-0.0000  plane waves:    3454
 k-point 12 :   0.3846 0.0769-0.0000  plane waves:    3458
 k-point 13 :   0.4615 0.0769-0.0000  plane waves:    3445
 k-point 14 :  -0.4615 0.0769 0.0000  plane waves:    3454
 k-point 15 :  -0.3846 0.0769 0.0000  plane waves:    3443
 k-point 16 :  -0.3077 0.0769 0.0000  plane waves:    3442
 k-point 17 :  -0.2308 0.0769 0.0000  plane waves:    3445
 k-point 18 :  -0.1538 0.0769 0.0000  plane waves:    3473
 k-point 19 :  -0.0769 0.0769 0.0000  plane waves:    3457
 k-point 20 :   0.1538 0.1538-0.0000  plane waves:    3459
 k-point 21 :   0.2308 0.1538 0.0000  plane waves:    3463
 k-point 22 :   0.3077 0.1538-0.0000  plane waves:    3454
 k-point 23 :   0.3846 0.1538-0.0000  plane waves:    3465
 k-point 24 :   0.4615 0.1538-0.0000  plane waves:    3449
 k-point 25 :  -0.4615 0.1538 0.0000  plane waves:    3452
 k-point 26 :  -0.3846 0.1538 0.0000  plane waves:    3447
 k-point 27 :  -0.3077 0.1538-0.0000  plane waves:    3447
 k-point 28 :  -0.2308 0.1538 0.0000  plane waves:    3445
 k-point 29 :  -0.1538 0.1538 0.0000  plane waves:    3459
 k-point 30 :   0.2308 0.2308-0.0000  plane waves:    3471
 k-point 31 :   0.3077 0.2308-0.0000  plane waves:    3457
 k-point 32 :   0.3846 0.2308-0.0000  plane waves:    3448
 k-point 33 :   0.4615 0.2308-0.0000  plane waves:    3446
 k-point 34 :  -0.4615 0.2308-0.0000  plane waves:    3442
 k-point 35 :  -0.3846 0.2308 0.0000  plane waves:    3449
 k-point 36 :  -0.3077 0.2308 0.0000  plane waves:    3441
 k-point 37 :  -0.2308 0.2308 0.0000  plane waves:    3441
 k-point 38 :   0.3077 0.3077-0.0000  plane waves:    3451
 k-point 39 :   0.3846 0.3077-0.0000  plane waves:    3445
 k-point 40 :   0.4615 0.3077-0.0000  plane waves:    3438
 k-point 41 :  -0.4615 0.3077 0.0000  plane waves:    3445
 k-point 42 :  -0.3846 0.3077-0.0000  plane waves:    3441
 k-point 43 :  -0.3077 0.3077 0.0000  plane waves:    3452
 k-point 44 :   0.3846 0.3846-0.0000  plane waves:    3447
 k-point 45 :   0.4615 0.3846-0.0000  plane waves:    3437
 k-point 46 :  -0.4615 0.3846 0.0000  plane waves:    3437
 k-point 47 :  -0.3846 0.3846 0.0000  plane waves:    3432
 k-point 48 :   0.4615 0.4615-0.0000  plane waves:    3426
 k-point 49 :  -0.4615 0.4615-0.0000  plane waves:    3430
 k-point 50 :   0.2308 0.1538 0.0769  plane waves:    3462
 k-point 51 :   0.3077 0.1538 0.0769  plane waves:    3463
 k-point 52 :   0.3846 0.1538 0.0769  plane waves:    3454
 k-point 53 :   0.4615 0.1538 0.0769  plane waves:    3447
 k-point 54 :  -0.4615 0.1538 0.0769  plane waves:    3443
 k-point 55 :   0.3077 0.2308 0.0769  plane waves:    3458
 k-point 56 :   0.3846 0.2308 0.0769  plane waves:    3456
 k-point 57 :   0.4615 0.2308 0.0769  plane waves:    3456
 k-point 58 :  -0.4615 0.2308 0.0769  plane waves:    3440
 k-point 59 :  -0.3846 0.2308 0.0769  plane waves:    3447
 k-point 60 :  -0.3077 0.2308 0.0769  plane waves:    3448
 k-point 61 :  -0.2308 0.2308 0.0769  plane waves:    3447
 k-point 62 :  -0.1538 0.2308 0.0769  plane waves:    3458
 k-point 63 :   0.3846 0.3077 0.0769  plane waves:    3453
 k-point 64 :   0.4615 0.3077 0.0769  plane waves:    3447
 k-point 65 :  -0.4615 0.3077 0.0769  plane waves:    3443
 k-point 66 :  -0.3846 0.3077 0.0769  plane waves:    3436
 k-point 67 :  -0.3077 0.3077 0.0769  plane waves:    3447
 k-point 68 :  -0.2308 0.3077 0.0769  plane waves:    3458
 k-point 69 :   0.4615 0.3846 0.0769  plane waves:    3438
 k-point 70 :  -0.4615 0.3846 0.0769  plane waves:    3435
 k-point 71 :  -0.3846 0.3846 0.0769  plane waves:    3432
 k-point 72 :  -0.3077 0.3846 0.0769  plane waves:    3441
 k-point 73 :  -0.4615 0.4615 0.0769  plane waves:    3431
 k-point 74 :  -0.3846 0.4615 0.0769  plane waves:    3425
 k-point 75 :   0.4615 0.3077 0.1538  plane waves:    3447
 k-point 76 :  -0.4615 0.3077 0.1538  plane waves:    3445
 k-point 77 :  -0.3846 0.3077 0.1538  plane waves:    3436
 k-point 78 :  -0.4615 0.3846 0.1538  plane waves:    3437
 k-point 79 :  -0.3846 0.3846 0.1538  plane waves:    3437
 k-point 80 :  -0.3077 0.3846 0.1538  plane waves:    3438
 k-point 81 :  -0.2308 0.3846 0.1538  plane waves:    3453
 k-point 82 :  -0.3846 0.4615 0.1538  plane waves:    3428
 k-point 83 :  -0.3077 0.4615 0.1538  plane waves:    3432
 k-point 84 :  -0.3077 0.4615 0.2308  plane waves:    3424

 maximum and minimum number of plane-waves per node :       878      849

 maximum number of plane-waves:      3479
 maximum index in each direction:
   IXMAX=   10   IYMAX=   10   IZMAX=   10
   IXMIN=  -10   IYMIN=  -10   IZMIN=  -10


 parallel 3D FFT for wavefunctions:
    minimum data exchange during FFTs selected (reduces bandwidth)
 parallel 3D FFT for charge:
    minimum data exchange during FFTs selected (reduces bandwidth)


 total amount of memory used by VASP MPI-rank0   103167. kBytes
=======================================================================

   base      :      30000. kBytes
   nonl-proj :      56038. kBytes
   fftplans  :       6282. kBytes
   grid      :       3541. kBytes
   one-center:         49. kBytes
   wavefun   :       7257. kBytes

     INWAV:  cpu time    0.0003: real time    0.0027
 Broyden mixing: mesh for mixing (old mesh)
   NGX = 21   NGY = 21   NGZ = 21
  (NGX  = 84   NGY  = 84   NGZ  = 84)
  gives a total of   9261 points

 initial charge density was supplied:
 charge density of overlapping atoms calculated
 number of electron      37.0000000 magnetization
 keeping initial charge density in first step


--------------------------------------------------------------------------------------------------------


 Maximum index for augmentation-charges        29688 (set IRDMAX)


--------------------------------------------------------------------------------------------------------


 First call to EWALD:  gamma=   0.408
 Maximum number of real-space cells 3x 3x 3
 Maximum number of reciprocal cells 3x 3x 3

    FEWALD:  cpu time    0.0053: real time    0.0080


--------------------------------------- Iteration      1(   1)  ---------------------------------------


    POTLOK:  cpu time    0.0573: real time    0.1280
    SETDIJ:  cpu time    0.0980: real time    0.0984
     EDDAV:  cpu time    1.5330: real time    1.5526
       DOS:  cpu time    0.0045: real time    0.0049
    --------------------------------------------
      LOOP:  cpu time    1.6931: real time    1.7851

 eigenvalue-minimisations  :  4032
 total energy-change (2. order) : 0.4449706E+03  (-0.2044242E+04)
 number of electron      37.0000000 magnetization
 augmentation part       37.0000000 magnetization

 Free energy of the ion-electron system (eV)
  ---------------------------------------------------
  alpha Z        PSCENC =       209.65460766
  Ewald energy   TEWEN  =     -3107.19460786
  -Hartree energ DENC   =      -765.40173852
  -exchange      EXHF   =         0.00000000
  -V(xc)+E(xc)   XCENC  =        68.09026540
  PAW double counting   =      3147.30828992    -3070.62761383
  entropy T*S    EENTRO =        -0.00017167
  eigenvalues    EBANDS =       288.46818517
  atomic energy  EATOM  =      3674.67342263
  Solvation  Ediel_sol  =         0.00000000
  ---------------------------------------------------
  free energy    TOTEN  =       444.97063892 eV

  energy without entropy =      444.97081058  energy(sigma->0) =      444.97072475


--------------------------------------------------------------------------------------------------------




--------------------------------------- Iteration      1(   2)  ---------------------------------------


     EDDAV:  cpu time    1.5412: real time    1.5714
       DOS:  cpu time    0.0028: real time    0.0032
    --------------------------------------------
      LOOP:  cpu time    1.5440: real time    1.5753

 eigenvalue-minimisations  :  4168
 total energy-change (2. order) :-0.3984692E+03  (-0.3901682E+03)
 number of electron      37.0000000 magnetization
 augmentation part       37.0000000 magnetization

 Free energy of the ion-electron system (eV)
  ---------------------------------------------------
  alpha Z        PSCENC =       209.65460766
  Ewald energy   TEWEN  =     -3107.19460786
  -Hartree energ DENC   =      -765.40173852
  -exchange      EXHF   =         0.00000000
  -V(xc)+E(xc)   XCENC  =        68.09026540
  PAW double counting   =      3147.30828992    -3070.62761383
  entropy T*S    EENTRO =        -0.00022797
  eigenvalues    EBANDS =      -110.00098905
  atomic energy  EATOM  =      3674.67342263
  Solvation  Ediel_sol  =         0.00000000
  ---------------------------------------------------
  free energy    TOTEN  =        46.50140839 eV

  energy without entropy =       46.50163636  energy(sigma->0) =       46.50152238


--------------------------------------------------------------------------------------------------------




--------------------------------------- Iteration      1(   3)  ---------------------------------------


     EDDAV:  cpu time    1.9307: real time    1.9451
       DOS:  cpu time    0.0029: real time    0.0033
    --------------------------------------------
      LOOP:  cpu time    1.9335: real time    1.9482

 eigenvalue-minimisations  :  5528
 total energy-change (2. order) :-0.6498494E+02  (-0.6418958E+02)
 number of electron      37.0000000 magnetization
 augmentation part       37.0000000 magnetization

 Free energy of the ion-electron system (eV)
  ---------------------------------------------------
  alpha Z        PSCENC =       209.65460766
  Ewald energy   TEWEN  =     -3107.19460786
  -Hartree energ DENC   =      -765.40173852
  -exchange      EXHF   =         0.00000000
  -V(xc)+E(xc)   XCENC  =        68.09026540
  PAW double counting   =      3147.30828992    -3070.62761383
  entropy T*S    EENTRO =        -0.00013593
  eigenvalues    EBANDS =      -174.98602380
  atomic energy  EATOM  =      3674.67342263
  Solvation  Ediel_sol  =         0.00000000
  ---------------------------------------------------
  free energy    TOTEN  =       -18.48353432 eV

  energy without entropy =      -18.48339839  energy(sigma->0) =      -18.48346635


--------------------------------------------------------------------------------------------------------




--------------------------------------- Iteration      1(   4)  ---------------------------------------


     EDDAV:  cpu time    2.3913: real time    2.4129
       DOS:  cpu time    0.0029: real time    0.0032
    --------------------------------------------
      LOOP:  cpu time    2.3943: real time    2.4157

 eigenvalue-minimisations  :  7256
 total energy-change (2. order) :-0.4330068E+01  (-0.4311768E+01)
 number of electron      37.0000000 magnetization
 augmentation part       37.0000000 magnetization

 Free energy of the ion-electron system (eV)
  ---------------------------------------------------
  alpha Z        PSCENC =       209.65460766
  Ewald energy   TEWEN  =     -3107.19460786
  -Hartree energ DENC   =      -765.40173852
  -exchange      EXHF   =         0.00000000
  -V(xc)+E(xc)   XCENC  =        68.09026540
  PAW double counting   =      3147.30828992    -3070.62761383
  entropy T*S    EENTRO =        -0.00005900
  eigenvalues    EBANDS =      -179.31616911
  atomic energy  EATOM  =      3674.67342263
  Solvation  Ediel_sol  =         0.00000000
  ---------------------------------------------------
  free energy    TOTEN  =       -22.81360271 eV

  energy without entropy =      -22.81354370  energy(sigma->0) =      -22.81357321


--------------------------------------------------------------------------------------------------------




--------------------------------------- Iteration      1(   5)  ---------------------------------------


     EDDAV:  cpu time    1.9616: real time    1.9829
       DOS:  cpu time    0.0029: real time    0.0032
    CHARGE:  cpu time    0.3339: real time    0.3354
    MIXING:  cpu time    0.0051: real time    0.0059
    --------------------------------------------
      LOOP:  cpu time    2.3035: real time    2.3279

 eigenvalue-minimisations  :  5584
 total energy-change (2. order) :-0.1388466E+00  (-0.1388058E+00)
 number of electron      37.0000000 magnetization
 augmentation part        5.9915205 magnetization

 Broyden mixing:
  rms(total) = 0.31903E+01    rms(broyden)= 0.31903E+01
  rms(prec ) = 0.35111E+01
  weight for this iteration     100.00

 Free energy of the ion-electron system (eV)
  ---------------------------------------------------
  alpha Z        PSCENC =       209.65460766
  Ewald energy   TEWEN  =     -3107.19460786
  -Hartree energ DENC   =      -765.40173852
  -exchange      EXHF   =         0.00000000
  -V(xc)+E(xc)   XCENC  =        68.09026540
  PAW double counting   =      3147.30828992    -3070.62761383
  entropy T*S    EENTRO =        -0.00006387
  eigenvalues    EBANDS =      -179.45501088
  atomic energy  EATOM  =      3674.67342263
  Solvation  Ediel_sol  =         0.00000000
  ---------------------------------------------------
  free energy    TOTEN  =       -22.95244935 eV

  energy without entropy =      -22.95238547  energy(sigma->0) =      -22.95241741


--------------------------------------------------------------------------------------------------------




--------------------------------------- Iteration      1(   6)  ---------------------------------------


    POTLOK:  cpu time    0.0390: real time    0.0670
    SETDIJ:  cpu time    0.0866: real time    0.0868
     EDDAV:  cpu time    1.7922: real time    1.7926
       DOS:  cpu time    0.0030: real time    0.0034
    CHARGE:  cpu time    0.3018: real time    0.3019
    MIXING:  cpu time    0.0046: real time    0.0047
    --------------------------------------------
      LOOP:  cpu time    2.2272: real time    2.2562

 eigenvalue-minimisations  :  5088
 total energy-change (2. order) : 0.9314596E+00  (-0.1790018E+00)
 number of electron      37.0000000 magnetization
 augmentation part        6.0514235 magnetization

 Broyden mixing:
  rms(total) = 0.19743E+01    rms(broyden)= 0.19743E+01
  rms(prec ) = 0.20876E+01
  weight for this iteration     100.00

 eigenvalues of (default mixing * dielectric matrix)
  average eigenvalue GAMMA=   2.5555
  2.5555

 Free energy of the ion-electron system (eV)
  ---------------------------------------------------
  alpha Z        PSCENC =       209.65460766
  Ewald energy   TEWEN  =     -3107.19460786
  -Hartree energ DENC   =      -749.97383870
  -exchange      EXHF   =         0.00000000
  -V(xc)+E(xc)   XCENC  =        67.62738089
  PAW double counting   =      3430.27324317    -3357.97674618
  entropy T*S    EENTRO =        -0.00017243
  eigenvalues    EBANDS =      -189.10427888
  atomic energy  EATOM  =      3674.67342263
  Solvation  Ediel_sol  =         0.00000000
  ---------------------------------------------------
  free energy    TOTEN  =       -22.02098970 eV

  energy without entropy =      -22.02081727  energy(sigma->0) =      -22.02090348


--------------------------------------------------------------------------------------------------------




--------------------------------------- Iteration      1(   7)  ---------------------------------------


    POTLOK:  cpu time    0.0380: real time    0.0713
    SETDIJ:  cpu time    0.0853: real time    0.0855
     EDDAV:  cpu time    2.0717: real time    2.0719
       DOS:  cpu time    0.0031: real time    0.0034
    CHARGE:  cpu time    0.2943: real time    0.2945
    MIXING:  cpu time    0.0062: real time    0.0064
    --------------------------------------------
      LOOP:  cpu time    2.4987: real time    2.5327

 eigenvalue-minimisations  :  6072
 total energy-change (2. order) : 0.1163851E+00  (-0.2430229E+00)
 number of electron      37.0000000 magnetization
 augmentation part        6.0002994 magnetization

 Broyden mixing:
  rms(total) = 0.63143E+00    rms(broyden)= 0.63142E+00
  rms(prec ) = 0.75845E+00
  weight for this iteration     100.00

 eigenvalues of (default mixing * dielectric matrix)
  average eigenvalue GAMMA=   2.1361
  1.0514  3.2209

 Free energy of the ion-electron system (eV)
  ---------------------------------------------------
  alpha Z        PSCENC =       209.65460766
  Ewald energy   TEWEN  =     -3107.19460786
  -Hartree energ DENC   =      -736.65227704
  -exchange      EXHF   =         0.00000000
  -V(xc)+E(xc)   XCENC  =        67.39553442
  PAW double counting   =      3806.38921937    -3738.90230278
  entropy T*S    EENTRO =        -0.00037025
  eigenvalues    EBANDS =      -197.26783077
  atomic energy  EATOM  =      3674.67342263
  Solvation  Ediel_sol  =         0.00000000
  ---------------------------------------------------
  free energy    TOTEN  =       -21.90460460 eV

  energy without entropy =      -21.90423435  energy(sigma->0) =      -21.90441948


--------------------------------------------------------------------------------------------------------




--------------------------------------- Iteration      1(   8)  ---------------------------------------


    POTLOK:  cpu time    0.0410: real time    0.0672
    SETDIJ:  cpu time    0.0825: real time    0.0826
     EDDAV:  cpu time    1.7890: real time    1.7892
       DOS:  cpu time    0.0030: real time    0.0038
    CHARGE:  cpu time    0.2790: real time    0.2792
    MIXING:  cpu time    0.0058: real time    0.0059
    --------------------------------------------
      LOOP:  cpu time    2.2002: real time    2.2280

 eigenvalue-minimisations  :  5072
 total energy-change (2. order) : 0.4866489E-01  (-0.3279450E-01)
 number of electron      37.0000000 magnetization
 augmentation part        5.9554786 magnetization

 Broyden mixing:
  rms(total) = 0.46304E+00    rms(broyden)= 0.46304E+00
  rms(prec ) = 0.50712E+00
  weight for this iteration     100.00

 eigenvalues of (default mixing * dielectric matrix)
  average eigenvalue GAMMA=   1.9048
  3.5868  1.3303  0.7973

 Free energy of the ion-electron system (eV)
  ---------------------------------------------------
  alpha Z        PSCENC =       209.65460766
  Ewald energy   TEWEN  =     -3107.19460786
  -Hartree energ DENC   =      -736.95054602
  -exchange      EXHF   =         0.00000000
  -V(xc)+E(xc)   XCENC  =        67.40634335
  PAW double counting   =      3831.33908973    -3763.89846174
  entropy T*S    EENTRO =        -0.00009361
  eigenvalues    EBANDS =      -196.88569385
  atomic energy  EATOM  =      3674.67342263
  Solvation  Ediel_sol  =         0.00000000
  ---------------------------------------------------
  free energy    TOTEN  =       -21.85593971 eV

  energy without entropy =      -21.85584610  energy(sigma->0) =      -21.85589290


--------------------------------------------------------------------------------------------------------




--------------------------------------- Iteration      1(   9)  ---------------------------------------


    POTLOK:  cpu time    0.0371: real time    0.0622
    SETDIJ:  cpu time    0.0887: real time    0.0888
     EDDAV:  cpu time    2.0375: real time    2.0378
       DOS:  cpu time    0.0031: real time    0.0034
    CHARGE:  cpu time    0.2786: real time    0.2787
    MIXING:  cpu time    0.0069: real time    0.0070
    --------------------------------------------
      LOOP:  cpu time    2.4519: real time    2.4780

 eigenvalue-minimisations  :  6040
 total energy-change (2. order) : 0.1020535E-01  (-0.2157690E-01)
 number of electron      37.0000000 magnetization
 augmentation part        5.9463219 magnetization

 Broyden mixing:
  rms(total) = 0.33253E+00    rms(broyden)= 0.33253E+00
  rms(prec ) = 0.34416E+00
  weight for this iteration     100.00

 eigenvalues of (default mixing * dielectric matrix)
  average eigenvalue GAMMA=   1.4091
  2.4640  1.2602  1.2602  0.6521

 Free energy of the ion-electron system (eV)
  ---------------------------------------------------
  alpha Z        PSCENC =       209.65460766
  Ewald energy   TEWEN  =     -3107.19460786
  -Hartree energ DENC   =      -739.31752000
  -exchange      EXHF   =         0.00000000
  -V(xc)+E(xc)   XCENC  =        67.43961969
  PAW double counting   =      3912.89826667    -3845.34742472
  entropy T*S    EENTRO =        -0.00021468
  eigenvalues    EBANDS =      -194.65188375
  atomic energy  EATOM  =      3674.67342263
  Solvation  Ediel_sol  =         0.00000000
  ---------------------------------------------------
  free energy    TOTEN  =       -21.84573436 eV

  energy without entropy =      -21.84551968  energy(sigma->0) =      -21.84562702


--------------------------------------------------------------------------------------------------------




--------------------------------------- Iteration      1(  10)  ---------------------------------------


    POTLOK:  cpu time    0.0494: real time    0.0653
    SETDIJ:  cpu time    0.0888: real time    0.0890
     EDDAV:  cpu time    1.7444: real time    1.7446
       DOS:  cpu time    0.0030: real time    0.0032
    CHARGE:  cpu time    0.2801: real time    0.2812
    MIXING:  cpu time    0.0049: real time    0.0050
    --------------------------------------------
      LOOP:  cpu time    2.1706: real time    2.1966

 eigenvalue-minimisations  :  4880
 total energy-change (2. order) : 0.5618345E-02  (-0.3435090E-02)
 number of electron      37.0000000 magnetization
 augmentation part        5.9534932 magnetization

 Broyden mixing:
  rms(total) = 0.66247E-01    rms(broyden)= 0.66247E-01
  rms(prec ) = 0.69347E-01
  weight for this iteration     100.00

 eigenvalues of (default mixing * dielectric matrix)
  average eigenvalue GAMMA=   1.4240
  2.4171  1.7415  1.4077  0.9123  0.6414

 Free energy of the ion-electron system (eV)
  ---------------------------------------------------
  alpha Z        PSCENC =       209.65460766
  Ewald energy   TEWEN  =     -3107.19460786
  -Hartree energ DENC   =      -739.50986962
  -exchange      EXHF   =         0.00000000
  -V(xc)+E(xc)   XCENC  =        67.42907871
  PAW double counting   =      3853.53552475    -3785.65369976
  entropy T*S    EENTRO =        -0.00015409
  eigenvalues    EBANDS =      -194.77441845
  atomic energy  EATOM  =      3674.67342263
  Solvation  Ediel_sol  =         0.00000000
  ---------------------------------------------------
  free energy    TOTEN  =       -21.84011601 eV

  energy without entropy =      -21.83996192  energy(sigma->0) =      -21.84003897


--------------------------------------------------------------------------------------------------------




--------------------------------------- Iteration      1(  11)  ---------------------------------------


    POTLOK:  cpu time    0.0457: real time    0.0696
    SETDIJ:  cpu time    0.0889: real time    0.0890
     EDDAV:  cpu time    1.9929: real time    1.9931
       DOS:  cpu time    0.0030: real time    0.0032
    CHARGE:  cpu time    0.2800: real time    0.2813
    MIXING:  cpu time    0.0059: real time    0.0059
    --------------------------------------------
      LOOP:  cpu time    2.4163: real time    2.4343

 eigenvalue-minimisations  :  5856
 total energy-change (2. order) :-0.1793755E-03  (-0.2462082E-03)
 number of electron      37.0000000 magnetization
 augmentation part        5.9551924 magnetization

 Broyden mixing:
  rms(total) = 0.33161E-01    rms(broyden)= 0.33161E-01
  rms(prec ) = 0.37260E-01
  weight for this iteration     100.00

 eigenvalues of (default mixing * dielectric matrix)
  average eigenvalue GAMMA=   1.3748
  2.5945  1.9581  0.6290  0.9453  0.9453  1.1768

 Free energy of the ion-electron system (eV)
  ---------------------------------------------------
  alpha Z        PSCENC =       209.65460766
  Ewald energy   TEWEN  =     -3107.19460786
  -Hartree energ DENC   =      -739.69708943
  -exchange      EXHF   =         0.00000000
  -V(xc)+E(xc)   XCENC  =        67.42330840
  PAW double counting   =      3861.13408650    -3793.20408473
  entropy T*S    EENTRO =        -0.00015603
  eigenvalues    EBANDS =      -194.62978253
  atomic energy  EATOM  =      3674.67342263
  Solvation  Ediel_sol  =         0.00000000
  ---------------------------------------------------
  free energy    TOTEN  =       -21.84029539 eV

  energy without entropy =      -21.84013936  energy(sigma->0) =      -21.84021737


--------------------------------------------------------------------------------------------------------




--------------------------------------- Iteration      1(  12)  ---------------------------------------


    POTLOK:  cpu time    0.0382: real time    0.0735
    SETDIJ:  cpu time    0.0866: real time    0.0868
     EDDAV:  cpu time    1.9374: real time    1.9378
       DOS:  cpu time    0.0029: real time    0.0031
    CHARGE:  cpu time    0.2821: real time    0.2823
    MIXING:  cpu time    0.0050: real time    0.0051
    --------------------------------------------
      LOOP:  cpu time    2.3523: real time    2.3881

 eigenvalue-minimisations  :  5560
 total energy-change (2. order) : 0.1209119E-03  (-0.5377728E-04)
 number of electron      37.0000000 magnetization
 augmentation part        5.9558576 magnetization

 Broyden mixing:
  rms(total) = 0.81141E-02    rms(broyden)= 0.81141E-02
  rms(prec ) = 0.95675E-02
  weight for this iteration     100.00

 eigenvalues of (default mixing * dielectric matrix)
  average eigenvalue GAMMA=   1.4179
  2.4005  2.4005  0.6331  1.2055  1.2055  1.0400  1.0400

 Free energy of the ion-electron system (eV)
  ---------------------------------------------------
  alpha Z        PSCENC =       209.65460766
  Ewald energy   TEWEN  =     -3107.19460786
  -Hartree energ DENC   =      -739.69876308
  -exchange      EXHF   =         0.00000000
  -V(xc)+E(xc)   XCENC  =        67.42211856
  PAW double counting   =      3863.38274785    -3795.42204600
  entropy T*S    EENTRO =        -0.00016169
  eigenvalues    EBANDS =      -194.65749255
  atomic energy  EATOM  =      3674.67342263
  Solvation  Ediel_sol  =         0.00000000
  ---------------------------------------------------
  free energy    TOTEN  =       -21.84017448 eV

  energy without entropy =      -21.84001279  energy(sigma->0) =      -21.84009363


--------------------------------------------------------------------------------------------------------




--------------------------------------- Iteration      1(  13)  ---------------------------------------


    POTLOK:  cpu time    0.0424: real time    0.0626
    SETDIJ:  cpu time    0.0884: real time    0.0889
     EDDAV:  cpu time    2.1259: real time    2.1262
       DOS:  cpu time    0.0029: real time    0.0031
    CHARGE:  cpu time    0.2814: real time    0.2820
    MIXING:  cpu time    0.0049: real time    0.0051
    --------------------------------------------
      LOOP:  cpu time    2.5460: real time    2.5690

 eigenvalue-minimisations  :  6376
 total energy-change (2. order) : 0.1764759E-05  (-0.1669096E-04)
 number of electron      37.0000000 magnetization
 augmentation part        5.9565425 magnetization

 Broyden mixing:
  rms(total) = 0.32297E-02    rms(broyden)= 0.32297E-02
  rms(prec ) = 0.38585E-02
  weight for this iteration     100.00

 eigenvalues of (default mixing * dielectric matrix)
  average eigenvalue GAMMA=   1.3905
  2.5907  2.0684  1.5204  1.3651  0.6346  0.9344  1.0052  1.0052

 Free energy of the ion-electron system (eV)
  ---------------------------------------------------
  alpha Z        PSCENC =       209.65460766
  Ewald energy   TEWEN  =     -3107.19460786
  -Hartree energ DENC   =      -739.70725759
  -exchange      EXHF   =         0.00000000
  -V(xc)+E(xc)   XCENC  =        67.42035251
  PAW double counting   =      3864.07547587    -3796.07911786
  entropy T*S    EENTRO =        -0.00016406
  eigenvalues    EBANDS =      -194.68288402
  atomic energy  EATOM  =      3674.67342263
  Solvation  Ediel_sol  =         0.00000000
  ---------------------------------------------------
  free energy    TOTEN  =       -21.84017271 eV

  energy without entropy =      -21.84000865  energy(sigma->0) =      -21.84009068


--------------------------------------------------------------------------------------------------------




--------------------------------------- Iteration      1(  14)  ---------------------------------------


    POTLOK:  cpu time    0.0444: real time    0.0652
    SETDIJ:  cpu time    0.0888: real time    0.0889
     EDDAV:  cpu time    1.8294: real time    1.8298
       DOS:  cpu time    0.0028: real time    0.0030
    CHARGE:  cpu time    0.2809: real time    0.2812
    MIXING:  cpu time    0.0052: real time    0.0053
    --------------------------------------------
      LOOP:  cpu time    2.2515: real time    2.2722

 eigenvalue-minimisations  :  5280
 total energy-change (2. order) : 0.1484314E-05  (-0.1241746E-05)
 number of electron      37.0000000 magnetization
 augmentation part        5.9569167 magnetization

 Broyden mixing:
  rms(total) = 0.22153E-02    rms(broyden)= 0.22152E-02
  rms(prec ) = 0.23714E-02
  weight for this iteration     100.00

 eigenvalues of (default mixing * dielectric matrix)
  average eigenvalue GAMMA=   1.3778
  2.5804  1.8299  1.7271  1.7271  1.0696  1.0696  0.6329  0.8820  0.8820

 Free energy of the ion-electron system (eV)
  ---------------------------------------------------
  alpha Z        PSCENC =       209.65460766
  Ewald energy   TEWEN  =     -3107.19460786
  -Hartree energ DENC   =      -739.69993884
  -exchange      EXHF   =         0.00000000
  -V(xc)+E(xc)   XCENC  =        67.42044710
  PAW double counting   =      3864.03557002    -3796.04143064
  entropy T*S    EENTRO =        -0.00016318
  eigenvalues    EBANDS =      -194.68807813
  atomic energy  EATOM  =      3674.67342263
  Solvation  Ediel_sol  =         0.00000000
  ---------------------------------------------------
  free energy    TOTEN  =       -21.84017123 eV

  energy without entropy =      -21.84000805  energy(sigma->0) =      -21.84008964


--------------------------------------------------------------------------------------------------------




--------------------------------------- Iteration      1(  15)  ---------------------------------------


    POTLOK:  cpu time    0.0508: real time    0.0698
    SETDIJ:  cpu time    0.0873: real time    0.0876
     EDDAV:  cpu time    2.1342: real time    2.1345
       DOS:  cpu time    0.0030: real time    0.0031
    CHARGE:  cpu time    0.2799: real time    0.2802
    MIXING:  cpu time    0.0063: real time    0.0064
    --------------------------------------------
      LOOP:  cpu time    2.5614: real time    2.5821

 eigenvalue-minimisations  :  6400
 total energy-change (2. order) : 0.2437205E-06  (-0.1538466E-06)
 number of electron      37.0000000 magnetization
 augmentation part        5.9567087 magnetization

 Broyden mixing:
  rms(total) = 0.89306E-04    rms(broyden)= 0.88946E-04
  rms(prec ) = 0.24310E-03
  weight for this iteration     100.00

 eigenvalues of (default mixing * dielectric matrix)
  average eigenvalue GAMMA=   1.4160
  2.7170  2.1999  2.1999  1.3556  1.0616  1.0616  0.6334  1.1042  0.9135  0.9135

 Free energy of the ion-electron system (eV)
  ---------------------------------------------------
  alpha Z        PSCENC =       209.65460766
  Ewald energy   TEWEN  =     -3107.19460786
  -Hartree energ DENC   =      -739.70384962
  -exchange      EXHF   =         0.00000000
  -V(xc)+E(xc)   XCENC  =        67.42090323
  PAW double counting   =      3863.75467564    -3795.76091420
  entropy T*S    EENTRO =        -0.00016299
  eigenvalues    EBANDS =      -194.68424548
  atomic energy  EATOM  =      3674.67342263
  Solvation  Ediel_sol  =         0.00000000
  ---------------------------------------------------
  free energy    TOTEN  =       -21.84017098 eV

  energy without entropy =      -21.84000800  energy(sigma->0) =      -21.84008949


--------------------------------------------------------------------------------------------------------




--------------------------------------- Iteration      1(  16)  ---------------------------------------


    POTLOK:  cpu time    0.0435: real time    0.0681
    SETDIJ:  cpu time    0.0889: real time    0.0890
     EDDAV:  cpu time    1.4372: real time    1.4374
       DOS:  cpu time    0.0029: real time    0.0033
    --------------------------------------------
      LOOP:  cpu time    1.5725: real time    1.5964

 eigenvalue-minimisations  :  3568
 total energy-change (2. order) : 0.8982624E-08  (-0.2832355E-07)
 number of electron      37.0000000 magnetization
 augmentation part        5.9567087 magnetization

 Free energy of the ion-electron system (eV)
  ---------------------------------------------------
  alpha Z        PSCENC =       209.65460766
  Ewald energy   TEWEN  =     -3107.19460786
  -Hartree energ DENC   =      -739.70193874
  -exchange      EXHF   =         0.00000000
  -V(xc)+E(xc)   XCENC  =        67.42084910
  PAW double counting   =      3863.77409405    -3795.78013965
  entropy T*S    EENTRO =        -0.00016281
  eigenvalues    EBANDS =      -194.68629536
  atomic energy  EATOM  =      3674.67342263
  Solvation  Ediel_sol  =         0.00000000
  ---------------------------------------------------
  free energy    TOTEN  =       -21.84017097 eV

  energy without entropy =      -21.84000816  energy(sigma->0) =      -21.84008957


--------------------------------------------------------------------------------------------------------




 average (electrostatic) potential at core
  the test charge radii are     1.1985  1.0856  1.2059
  (the norm of the test charge is              1.0000)
       1 -57.5133       2-102.5576       3 -65.9872



 E-fermi :   8.2528     XC(G=0): -10.9348     alpha+bet :-13.7279


 k-point     1 :       0.0000    0.0000    0.0000
  band No.  band energies     occupation
      1     -31.8752      2.00000
      2     -14.6877      2.00000
      3     -14.6877      2.00000
      4     -14.6557      2.00000
      5     -14.6557      2.00000
      6     -14.6557      2.00000
      7      -9.8355      2.00000
      8      -9.8355      2.00000
      9      -9.8355      2.00000
     10      -3.8876      2.00000
     11       4.0233      2.00000
     12       4.0233      2.00000
     13       4.0233      2.00000
     14       4.2538      2.00000
     15       4.2538      2.00000
     16       6.2939      2.00000
     17       7.1944      2.00000
     18       7.1944      2.00000
     19       7.1944      2.00000
     20       8.5006      0.00000
     21       8.5006      0.00000
     22       8.5006      0.00000
     23       9.2977      0.00000
     24      10.1996      0.00000

 k-point     2 :       0.0769    0.0000   -0.0000
  band No.  band energies     occupation
      1     -31.8749      2.00000
      2     -14.6883      2.00000
      3     -14.6883      2.00000
      4     -14.6558      2.00000
      5     -14.6556      2.00000
      6     -14.6556      2.00000
      7      -9.8502      2.00000
      8      -9.8336      2.00000
      9      -9.8336      2.00000
     10      -3.8305      2.00000
     11       3.8884      2.00000
     12       3.9093      2.00000
     13       3.9093      2.00000
     14       4.3612      2.00000
     15       4.3612      2.00000
     16       6.0266      2.00000
     17       7.1132      2.00000
     18       7.1132      2.00000
     19       7.3549      2.00000
     20       8.5944      0.00000
     21       8.5944      0.00000
     22       8.5996      0.00000
     23       9.5090      0.00000
     24      10.2077      0.00000

 k-point     3 :       0.1538    0.0000   -0.0000
  band No.  band energies     occupation
      1     -31.8742      2.00000
      2     -14.6901      2.00000
      3     -14.6901      2.00000
      4     -14.6562      2.00000
      5     -14.6552      2.00000
      6     -14.6552      2.00000
      7      -9.8898      2.00000
      8      -9.8286      2.00000
      9      -9.8286      2.00000
     10      -3.6720      2.00000
     11       3.5508      2.00000
     12       3.7503      2.00000
     13       3.7503      2.00000
     14       4.4905      2.00000
     15       4.4905      2.00000
     16       5.5659      2.00000
     17       6.9444      2.00000
     18       6.9444      2.00000
     19       7.4980      2.00000
     20       8.8159      0.00000
     21       8.8159      0.00000
     22       9.0296      0.00000
     23       9.8855      0.00000
     24      10.2249      0.00000

 k-point     4 :       0.2308    0.0000   -0.0000
  band No.  band energies     occupation
      1     -31.8731      2.00000
      2     -14.6926      2.00000
      3     -14.6926      2.00000
      4     -14.6568      2.00000
      5     -14.6546      2.00000
      6     -14.6546      2.00000
      7      -9.9425      2.00000
      8      -9.8214      2.00000
      9      -9.8214      2.00000
     10      -3.4478      2.00000
     11       3.1387      2.00000
     12       3.6274      2.00000
     13       3.6274      2.00000
     14       4.5422      2.00000
     15       4.5422      2.00000
     16       5.1444      2.00000
     17       6.7966      2.00000
     18       6.7966      2.00000
     19       7.5828      2.00000
     20       9.0834      0.00000
     21       9.0834      0.00000
     22       9.6256      0.00000
     23      10.1844      0.00000
     24      10.2192      0.00000

 k-point     5 :       0.3077    0.0000   -0.0000
  band No.  band energies     occupation
      1     -31.8720      2.00000
      2     -14.6953      2.00000
      3     -14.6953      2.00000
      4     -14.6575      2.00000
      5     -14.6540      2.00000
      6     -14.6540      2.00000
      7      -9.9949      2.00000
      8      -9.8139      2.00000
      9      -9.8139      2.00000
     10      -3.2083      2.00000
     11       2.7566      2.00000
[...]
  212              fftbas_plan_mpi                       0.079623                     12   6
  213                dfftw_execute                         0.034626                   36   7
  214                map_backward                          0.004155                   12   7
  215                  map_gather                            0.001261                  6   8
  216                  m_alltoallv_z                         0.001525                  6   8
  217                  map_scatter                           0.001077                  6   8
  218                map_forward                           0.037775                   12   7
  219                  map_gather                            0.019236                  6   8
  220                  m_alltoallv_z                         0.006560                  6   8
  221                  map_scatter                           0.011662                  6   8
  222            M_sumb_d                              0.007333                        6   5
  223          M_sumb_d                              0.000031                          1   4
  224        setdij_                               1.463592                           20   3
  225          fft3d_mpi                             0.288024                         40   4
  226            fftbas_plan_mpi                       0.265667                       40   5
  227              dfftw_execute                         0.116957                    120   6
  228              map_backward                          0.020011                     40   6
  229                map_gather                            0.004210                   20   7
  230                m_alltoallv_z                         0.011205                   20   7
  231                map_scatter                           0.003639                   20   7
  232              map_forward                           0.118745                     40   6
  233                map_gather                            0.057802                   20   7
  234                m_alltoallv_z                         0.021179                   20   7
  235                map_scatter                           0.038804                   20   7
  236          M_sumb_d                              0.010664                         20   4
  237        set_dd_magatom                        0.000004                            1   3
  238        set_dd_paw                            0.017060                            1   3
  239          set_rsgf_all                          0.000004                          1   4
  240          M_sumb_d                              0.016890                          8   4
  241        strkin                                0.001011                            1   3
  242          M_sumb_d                              0.000336                          1   4
  243        strelo                                0.003069                            1   3
  244          M_sumb_d                              0.000104                          2   4
  245        strenl                                1.246048                            1   3
  246          spher                                 0.919761                         19   4
  247          phase                                 0.013966                        189   4
  248          proj1                                 0.262668                       1134   4
  249            crexp_mul_wave                        0.035072                     3402   5
  250            M_sumb_d                              0.071475                     1134   5
  251          M_sumb_d                              0.026600                          1   4
  252        M_sumb_d                              0.000206                            6   3
  253        fft3d_mpi                             0.017529                           11   3
  254          fftbas_plan_mpi                       0.016207                         11   4
  255            dfftw_execute                         0.006186                       33   5
  256            map_forward                           0.003496                       10   5
  257              map_gather                            0.000743                      5   6
  258              m_alltoallv_z                         0.001331                      5   6
  259              map_scatter                           0.001053                      5   6
  260            map_backward                          0.004238                       12   5
  261              map_gather                            0.001290                      6   6
  262              m_alltoallv_z                         0.001517                      6   6
  263              map_scatter                           0.001139                      6   6
  264        ggaall_grid                           0.001988                            1   3
  265        forhar                                0.007206                            2   3
  266          M_sumb_d                              0.000173                          2   4
  267        strehar                               0.003079                            1   3
  268          M_sumb_d                              0.000053                          1   4
  269        chggra                                0.007252                            1   3
  270          fft3d_mpi                             0.004819                          3   4
  271            fftbas_plan_mpi                       0.004460                        3   5
  272              dfftw_execute                         0.001722                      9   6
  273              map_backward                          0.000691                      2   6
  274                map_gather                            0.000196                    1   7
  275                m_alltoallv_z                         0.000258                    1   7
  276                map_scatter                           0.000183                    1   7
  277              map_forward                           0.001319                      4   6
  278                map_gather                            0.000264                    2   7
  279                m_alltoallv_z                         0.000493                    2   7
  280                map_scatter                           0.000464                    2   7
  281          M_sumb_d                              0.000116                          3   4
  282        brmix                                 0.027432                            1   3
  283          M_sumb_d                              0.000248                          6   4
  284          brpre                                 0.000047                          1   4
  285          setg0                                 0.001762                          1   4
  286          broyd                                 0.005780                          1   4
  287            M_sumb_d                              0.000560                       18   5
  288            brget                                 0.000348                       64   5
  289            brsav                                 0.000080                       16   5
  290          M_bcast_z                             0.018500                          1   4
  291          M_bcast_d                             0.000042                          1   4
  292        M_bcast_d                             0.000477                            2   3
  293      potlok                                0.030752                              1   2
  294        fft3d_mpi                             0.020923                           13   3
  295          fftbas_plan_mpi                       0.019377                         13   4
  296            dfftw_execute                         0.007103                       39   5
  297            map_forward                           0.004811                       14   5
  298              map_gather                            0.000847                      8   6
  299              m_alltoallv_z                         0.001961                      8   6
  300              map_scatter                           0.001578                      8   6
  301            map_backward                          0.004683                       12   5
  302              map_gather                            0.001479                      6   6
  303              m_alltoallv_z                         0.001771                      6   6
  304              map_scatter                           0.001140                      6   6
  305        ggaall_grid                           0.002035                            1   3
  306        M_sumb_d                              0.000219                            6   3
  307        M_bcast_d                             0.000171                            1   3
  308      potlok_metagga                        0.000004                              1   2
  309      set_dd_magatom                        0.000003                              1   2
  310      set_dd_paw                            0.000489                              1   2
  311        set_rsgf_all                          0.000003                            1   3
  312        M_sumb_d                              0.000297                            8   3
  313      densta                                0.002367                              1   2
  314        M_sumb_d                              0.000900                           40   3
  315      lprj_proall                           0.000007                              1   2

 Flat profile
 ============

             routine name                   CPU           calls
 ---------------------------------------------------------------
 total_time                             13.047200           1
 dfftw_execute                           5.925130       49224
 eddav                                   5.076982          16
 fftbas_plan_mpi                         3.600851       16410
 M_sumb_d                                2.767068       45694
 setdij_                                 2.412707          40
 set_charge                              1.995996          12
 m_alltoallv_z                           1.694991       16433
 pdssyex_zheevx                          1.504788         336
 M_alltoall_d                            1.227631       54656
 elmin                                   1.138952           1
 spher                                   1.019904          20
 proj1                                   1.017495        6674
 orth1                                   0.934877       11166
 gemm                                    0.918787       22290
 vhamil                                  0.898255        7430
 fftwav_mpi                              0.742692        8690
 map_forward                             0.729445       17658
 map_gather                              0.685168       16433
 map_scatter                             0.682775       16433
 M_bcast_z                               0.577290        6266
 vnlac0                                  0.501858        7430
 redis_pw                                0.465686       20988
 hamiltmu                                0.413119        3715
 redis_proj                              0.408456       26423
 w1_copy                                 0.336536       22290
 fft3d_mpi                               0.281601       16408
 work_mul_crexp                          0.276144       22290
 map_backward                            0.268256       15158
 fftext_mpi                              0.250417        7430
 crpa_reader                             0.240533           1
 crexp_mul_wave                          0.221341       20022
 eccp                                    0.208461        2016
 kinhamil                                0.155625        7430
 overl                                   0.147882       12865
 M_bcast_d                               0.122390        3747
 potlok                                  0.107080          13
 pw_charge                               0.098746        1260
 overl1                                  0.090655        7430
 apply_precond                           0.078271        5414
 setup_precond                           0.072382        2016
 lincom                                  0.063729         357
 w1_projall                              0.059710        2707
 force_and_stress                        0.052727           1
 fornl                                   0.052165           1
 phase                                   0.041898         568
 soft_charge                             0.033413          12
 truncate_high_frequency_w1              0.031824        9446
 ggaall_grid                             0.028791          14
 densta                                  0.024614          17
 strenl                                  0.023053           1
 brmix                                   0.017315          12
 setg0                                   0.017272          13
 broyd                                   0.012252          12
 forhar                                  0.007033           2
 depsum                                  0.005179          12
 forloc                                  0.003501           1
 strehar                                 0.003026           1
 strelo                                  0.002965           1
 set_dd_paw                              0.002862          14
 chggra                                  0.002317           1
 brget                                   0.002250         432
 orthch                                  0.002138           1
 choleski                                0.001909          21
 proj                                    0.001559          21
 brgrid                                  0.001197           1
 brsav                                   0.001178         128
 brpre                                   0.000766          12
 strkin                                  0.000675           1
 fordep                                  0.000125           1
 vectorpot                               0.000116          13
 set_rsgf_all                            0.000063          14
 potlok_metagga                          0.000054          13
 set_dd_magatom                          0.000053          14
 set_kineden                             0.000041          11
 rotate_active_occupied_orbital          0.000015           1
 lprj_proall                             0.000007           1
 redis_pw_over_bands                     0.000003           1
 ---------------------------------------------------------------
  summed up times    53.8422179222107

 Accumulative profile
 ====================

             routine name                   CPU           calls
 ---------------------------------------------------------------
 total_time                             53.842218           1
 elmin                                  36.063216           1
 eddav                                  30.216720          16
 fft3d_mpi                              13.834450       16408
 fftbas_plan_mpi                        13.586615       16410
 hamiltmu                                9.610126        3715
 fftwav_mpi                              7.857686        8690
 kinhamil                                6.045961        7430
 dfftw_execute                           5.925130       49224
 fftext_mpi                              5.890336        7430
 force_and_stress                        3.646020           1
 set_charge                              3.448042          12
 setdij_                                 3.053382          40
 M_sumb_d                                2.767068       45694
 map_forward                             2.496924       17658
 vnlac0                                  2.162136        7430
 m_alltoallv_z                           1.694991       16433
 proj1                                   1.685015        6674
 map_backward                            1.563711       15158
 pdssyex_zheevx                          1.504788         336
 w1_projall                              1.452805        2707
 strenl                                  1.246048           1
 soft_charge                             1.234427          12
 M_alltoall_d                            1.227631       54656
 redis_pw                                1.149468       20988
 spher                                   1.019904          20
 redis_proj                              0.952304       26423
 orth1                                   0.934877       11166
 gemm                                    0.918787       22290
 vhamil                                  0.898255        7430
 map_gather                              0.685168       16433
 map_scatter                             0.682775       16433
 M_bcast_z                               0.577290        6266
 fordep                                  0.446507           1
 potlok                                  0.412764          13
 w1_copy                                 0.336536       22290
 eccp                                    0.325423        2016
 work_mul_crexp                          0.276144       22290
 crpa_reader                             0.240533           1
 crexp_mul_wave                          0.221341       20022
 set_dd_paw                              0.163486          14
 overl                                   0.147882       12865
 setup_precond                           0.122929        2016
 M_bcast_d                               0.122390        3747
 pw_charge                               0.098746        1260
 overl1                                  0.090655        7430
 brmix                                   0.086240          12
 apply_precond                           0.078271        5414
 fornl                                   0.068472           1
 lincom                                  0.063729         357
 phase                                   0.041898         568
 densta                                  0.037971          17
 orthch                                  0.033367           1
 truncate_high_frequency_w1              0.031824        9446
 proj                                    0.030811          21
 ggaall_grid                             0.028791          14
 broyd                                   0.020456          12
 setg0                                   0.017272          13
 depsum                                  0.009170          12
 chggra                                  0.007252           1
 forhar                                  0.007206           2
 forloc                                  0.003560           1
 strehar                                 0.003079           1
 strelo                                  0.003069           1
 brget                                   0.002250         432
 choleski                                0.001909          21
 brgrid                                  0.001197           1
 brsav                                   0.001178         128
 strkin                                  0.001011           1
 brpre                                   0.000766          12
 vectorpot                               0.000116          13
 set_rsgf_all                            0.000063          14
 potlok_metagga                          0.000054          13
 set_dd_magatom                          0.000053          14
 set_kineden                             0.000041          11
 rotate_active_occupied_orbital          0.000015           1
 lprj_proall                             0.000007           1
 redis_pw_over_bands                     0.000003           1
 ---------------------------------------------------------------

Profiling took   1.307888  1.568520  0.005889  0.004330 seconds
Profiling took   1.291011 seconds
