 ----------------------------------------------------
    OOO  PPPP  EEEEE N   N M   M PPPP
   O   O P   P E     NN  N MM MM P   P
   O   O PPPP  EEEEE N N N M M M PPPP   -- VERSION
   O   O P     E     N  NN M   M P
    OOO  P     EEEEE N   N M   M P
 ----------------------------------------------------
 running   64 mpi-ranks, with    1 threads/rank
 distrk:  each k-point on   16 cores,    4 groups
 distr:  one band on    4 cores,    4 groups
 using from now: INCAR
 vasp.6.0.8 29Jun18 (build Jun 13 2019 12:54:44) complex

 POSCAR found type information on POSCAR  Th Bi Pt
 POSCAR found :  3 types and       3 ions
 scaLAPACK will be used
 WARNING: PSMAXN for non-local potential too small

 -----------------------------------------------------------------------------
|                                                                             |
|  ADVICE TO THIS USER RUNNING 'VASP/VAMP'   (HEAR YOUR MASTER'S VOICE ...):  |
|                                                                             |
|      You enforced a specific xc-type in the INCAR file,                     |
|      a different type was found on the POTCAR file                          |
|          I HOPE YOU KNOW, WHAT YOU ARE  DOING                               |
|                                                                             |
 -----------------------------------------------------------------------------

 LDA part: xc-table for Pade appr. of Perdew
 POSCAR, INCAR and KPOINTS ok, starting setup
 FFT: planning ...
 WAVECAR not read
 entering main loop
       N       E                     dE             d eps       ncg     rms          rms(c)
 ELPA: falling back to scaLAPACK
 ELPA: falling back to scaLAPACK
 ELPA: falling back to scaLAPACK
 ELPA: falling back to scaLAPACK
DAV:   1     0.444970638916E+03    0.44497E+03   -0.20442E+04  4032   0.200E+03
DAV:   2     0.465014083943E+02   -0.39847E+03   -0.39017E+03  4168   0.495E+02
DAV:   3    -0.184835343172E+02   -0.64985E+02   -0.64190E+02  5528   0.167E+02
DAV:   4    -0.228136027082E+02   -0.43301E+01   -0.43118E+01  7256   0.445E+01
DAV:   5    -0.229524493458E+02   -0.13885E+00   -0.13881E+00  5584   0.619E+00    0.319E+01
DAV:   6    -0.220209896974E+02    0.93146E+00   -0.17900E+00  5088   0.821E+00    0.197E+01
DAV:   7    -0.219046045991E+02    0.11639E+00   -0.24302E+00  6072   0.835E+00    0.631E+00
DAV:   8    -0.218559397067E+02    0.48665E-01   -0.32794E-01  5072   0.283E+00    0.463E+00
DAV:   9    -0.218457343579E+02    0.10205E-01   -0.21577E-01  6040   0.224E+00    0.333E+00
DAV:  10    -0.218401160129E+02    0.56183E-02   -0.34351E-02  4880   0.109E+00    0.662E-01
DAV:  11    -0.218402953884E+02   -0.17938E-03   -0.24621E-03  5856   0.304E-01    0.332E-01
DAV:  12    -0.218401744765E+02    0.12091E-03   -0.53777E-04  5560   0.131E-01    0.811E-02
DAV:  13    -0.218401727118E+02    0.17648E-05   -0.16691E-04  6376   0.678E-02    0.323E-02
DAV:  14    -0.218401712275E+02    0.14843E-05   -0.12417E-05  5280   0.205E-02    0.222E-02
DAV:  15    -0.218401709837E+02    0.24372E-06   -0.15385E-06  6400   0.702E-03    0.893E-04
DAV:  16    -0.218401709748E+02    0.89826E-08   -0.28324E-07  3568   0.267E-03
   1 F= -.21840171E+02 E0= -.21840090E+02  d E =-.162813E-03
