<?xml version="1.0" encoding="ISO-8859-1"?>
<modeling>
 <generator>
  <i name="program" type="string">vasp </i>
  <i name="version" type="string">6.0.8  </i>
  <i name="subversion" type="string">29Jun18 (build Jun 13 2019 12:54:44) complex                          parallel </i>
  <i name="platform" type="string">IFC18_CrayMPICH </i>
  <i name="date" type="string">2021 12 05 </i>
  <i name="time" type="string">14:21:47 </i>
 </generator>
 <incar>
  <i type="int" name="KPAR">     4</i>
  <i type="int" name="NPAR">     4</i>
  <i type="int" name="ISTART">     0</i>
  <i type="string" name="PREC"> ACC</i>
  <i type="string" name="ALGO"> Normal</i>
  <i type="logical" name="ADDGRID"> T  </i>
  <i type="int" name="ISPIN">     1</i>
  <i type="int" name="NELMIN">     5</i>
  <i type="int" name="IBRION">    -1</i>
  <i name="EDIFF">      0.00000010</i>
  <i type="int" name="NSW">     0</i>
  <i type="int" name="ISIF">     3</i>
  <i name="ENCUT">    700.00000000</i>
  <i type="logical" name="LREAL"> F  </i>
  <i type="int" name="ISMEAR">     0</i>
  <i name="SIGMA">      0.01000000</i>
  <i type="logical" name="LWAVE"> F  </i>
  <i type="logical" name="LCHARG"> F  </i>
  <i type="logical" name="LVTOT"> F  </i>
  <i type="string" name="ALGO"> Normal</i>
  <i type="string" name="GGA"> PS</i>
  <i name="EDIFF">      0.00000010</i>
  <i type="int" name="ISPIN">     1</i>
 </incar>
 <structure name="primitive_cell" >
  <crystal>
   <varray name="basis" >
    <v>       0.00000000       3.44754085       3.44754085 </v>
    <v>       3.44754085       0.00000000       3.44754085 </v>
    <v>       3.44754085       3.44754085       0.00000000 </v>
   </varray>
   <i name="volume">     81.95175470 </i>
   <varray name="rec_basis" >
    <v>      -0.14503091       0.14503091       0.14503091 </v>
    <v>       0.14503091      -0.14503091       0.14503091 </v>
    <v>       0.14503091       0.14503091      -0.14503091 </v>
   </varray>
  </crystal>
  <varray name="positions" >
   <v>       0.25000000       0.25000000       0.25000000 </v>
   <v>       0.75000000       0.75000000       0.75000000 </v>
   <v>       0.00000000       0.00000000       0.00000000 </v>
  </varray>
 </structure>
 <varray name="primitive_index" >
  <v type="int" >        1 </v>
  <v type="int" >        2 </v>
  <v type="int" >        3 </v>
 </varray>
 <kpoints>
  <generation param="Gamma">
   <v type="int" name="divisions">      13       13       13 </v>
   <v name="usershift">      0.00000000       0.00000000       0.00000000 </v>
   <v name="genvec1">      0.07692308       0.00000000      -0.00000000 </v>
   <v name="genvec2">      0.00000000       0.07692308       0.00000000 </v>
   <v name="genvec3">     -0.00000000      -0.00000000       0.07692308 </v>
   <v name="shift">      0.00000000       0.00000000       0.00000000 </v>
  </generation>
  <varray name="kpointlist" >
   <v>       0.00000000       0.00000000       0.00000000 </v>
   <v>       0.07692308       0.00000000      -0.00000000 </v>
   <v>       0.15384615       0.00000000      -0.00000000 </v>
   <v>       0.23076923       0.00000000      -0.00000000 </v>
   <v>       0.30769231       0.00000000      -0.00000000 </v>
   <v>       0.38461538       0.00000000      -0.00000000 </v>
   <v>       0.46153846      -0.00000000      -0.00000000 </v>
   <v>       0.07692308       0.07692308      -0.00000000 </v>
   <v>       0.15384615       0.07692308      -0.00000000 </v>
   <v>       0.23076923       0.07692308      -0.00000000 </v>
   <v>       0.30769231       0.07692308      -0.00000000 </v>
   <v>       0.38461538       0.07692308      -0.00000000 </v>
   <v>       0.46153846       0.07692308      -0.00000000 </v>
   <v>      -0.46153846       0.07692308       0.00000000 </v>
   <v>      -0.38461538       0.07692308       0.00000000 </v>
   <v>      -0.30769231       0.07692308       0.00000000 </v>
   <v>      -0.23076923       0.07692308       0.00000000 </v>
   <v>      -0.15384615       0.07692308       0.00000000 </v>
   <v>      -0.07692308       0.07692308       0.00000000 </v>
   <v>       0.15384615       0.15384615      -0.00000000 </v>
   <v>       0.23076923       0.15384615       0.00000000 </v>
   <v>       0.30769231       0.15384615      -0.00000000 </v>
   <v>       0.38461538       0.15384615      -0.00000000 </v>
   <v>       0.46153846       0.15384615      -0.00000000 </v>
   <v>      -0.46153846       0.15384615       0.00000000 </v>
   <v>      -0.38461538       0.15384615       0.00000000 </v>
   <v>      -0.30769231       0.15384615      -0.00000000 </v>
   <v>      -0.23076923       0.15384615       0.00000000 </v>
   <v>      -0.15384615       0.15384615       0.00000000 </v>
   <v>       0.23076923       0.23076923      -0.00000000 </v>
   <v>       0.30769231       0.23076923      -0.00000000 </v>
   <v>       0.38461538       0.23076923      -0.00000000 </v>
   <v>       0.46153846       0.23076923      -0.00000000 </v>
   <v>      -0.46153846       0.23076923      -0.00000000 </v>
   <v>      -0.38461538       0.23076923       0.00000000 </v>
   <v>      -0.30769231       0.23076923       0.00000000 </v>
   <v>      -0.23076923       0.23076923       0.00000000 </v>
   <v>       0.30769231       0.30769231      -0.00000000 </v>
   <v>       0.38461538       0.30769231      -0.00000000 </v>
   <v>       0.46153846       0.30769231      -0.00000000 </v>
   <v>      -0.46153846       0.30769231       0.00000000 </v>
   <v>      -0.38461538       0.30769231      -0.00000000 </v>
   <v>      -0.30769231       0.30769231       0.00000000 </v>
   <v>       0.38461538       0.38461538      -0.00000000 </v>
   <v>       0.46153846       0.38461538      -0.00000000 </v>
   <v>      -0.46153846       0.38461538       0.00000000 </v>
   <v>      -0.38461538       0.38461538       0.00000000 </v>
   <v>       0.46153846       0.46153846      -0.00000000 </v>
   <v>      -0.46153846       0.46153846      -0.00000000 </v>
   <v>       0.23076923       0.15384615       0.07692308 </v>
   <v>       0.30769231       0.15384615       0.07692308 </v>
   <v>       0.38461538       0.15384615       0.07692308 </v>
   <v>       0.46153846       0.15384615       0.07692308 </v>
   <v>      -0.46153846       0.15384615       0.07692308 </v>
   <v>       0.30769231       0.23076923       0.07692308 </v>
   <v>       0.38461538       0.23076923       0.07692308 </v>
   <v>       0.46153846       0.23076923       0.07692308 </v>
   <v>      -0.46153846       0.23076923       0.07692308 </v>
   <v>      -0.38461538       0.23076923       0.07692308 </v>
   <v>      -0.30769231       0.23076923       0.07692308 </v>
   <v>      -0.23076923       0.23076923       0.07692308 </v>
   <v>      -0.15384615       0.23076923       0.07692308 </v>
   <v>       0.38461538       0.30769231       0.07692308 </v>
   <v>       0.46153846       0.30769231       0.07692308 </v>
   <v>      -0.46153846       0.30769231       0.07692308 </v>
   <v>      -0.38461538       0.30769231       0.07692308 </v>
   <v>      -0.30769231       0.30769231       0.07692308 </v>
   <v>      -0.23076923       0.30769231       0.07692308 </v>
   <v>       0.46153846       0.38461538       0.07692308 </v>
   <v>      -0.46153846       0.38461538       0.07692308 </v>
   <v>      -0.38461538       0.38461538       0.07692308 </v>
   <v>      -0.30769231       0.38461538       0.07692308 </v>
   <v>      -0.46153846       0.46153846       0.07692308 </v>
   <v>      -0.38461538       0.46153846       0.07692308 </v>
   <v>       0.46153846       0.30769231       0.15384615 </v>
   <v>      -0.46153846       0.30769231       0.15384615 </v>
   <v>      -0.38461538       0.30769231       0.15384615 </v>
   <v>      -0.46153846       0.38461538       0.15384615 </v>
   <v>      -0.38461538       0.38461538       0.15384615 </v>
   <v>      -0.30769231       0.38461538       0.15384615 </v>
   <v>      -0.23076923       0.38461538       0.15384615 </v>
   <v>      -0.38461538       0.46153846       0.15384615 </v>
   <v>      -0.30769231       0.46153846       0.15384615 </v>
   <v>      -0.30769231       0.46153846       0.23076923 </v>
  </varray>
  <varray name="weights" >
   <v>       0.00045517 </v>
   <v>       0.00364133 </v>
   <v>       0.00364133 </v>
   <v>       0.00364133 </v>
   <v>       0.00364133 </v>
   <v>       0.00364133 </v>
   <v>       0.00364133 </v>
   <v>       0.00273100 </v>
   <v>       0.01092399 </v>
   <v>       0.01092399 </v>
   <v>       0.01092399 </v>
   <v>       0.01092399 </v>
   <v>       0.01092399 </v>
   <v>       0.01092399 </v>
   <v>       0.01092399 </v>
   <v>       0.01092399 </v>
   <v>       0.01092399 </v>
   <v>       0.01092399 </v>
   <v>       0.00546199 </v>
   <v>       0.00273100 </v>
   <v>       0.01092399 </v>
   <v>       0.01092399 </v>
   <v>       0.01092399 </v>
   <v>       0.01092399 </v>
   <v>       0.01092399 </v>
   <v>       0.01092399 </v>
   <v>       0.01092399 </v>
   <v>       0.01092399 </v>
   <v>       0.00546199 </v>
   <v>       0.00273100 </v>
   <v>       0.01092399 </v>
   <v>       0.01092399 </v>
   <v>       0.01092399 </v>
   <v>       0.01092399 </v>
   <v>       0.01092399 </v>
   <v>       0.01092399 </v>
   <v>       0.00546199 </v>
   <v>       0.00273100 </v>
   <v>       0.01092399 </v>
   <v>       0.01092399 </v>
   <v>       0.01092399 </v>
   <v>       0.01092399 </v>
   <v>       0.00546199 </v>
   <v>       0.00273100 </v>
   <v>       0.01092399 </v>
   <v>       0.01092399 </v>
   <v>       0.00546199 </v>
   <v>       0.00273100 </v>
   <v>       0.00546199 </v>
   <v>       0.01092399 </v>
   <v>       0.02184797 </v>
   <v>       0.02184797 </v>
   <v>       0.02184797 </v>
   <v>       0.02184797 </v>
   <v>       0.01092399 </v>
   <v>       0.02184797 </v>
   <v>       0.02184797 </v>
   <v>       0.02184797 </v>
   <v>       0.02184797 </v>
   <v>       0.02184797 </v>
   <v>       0.02184797 </v>
   <v>       0.01092399 </v>
   <v>       0.01092399 </v>
   <v>       0.02184797 </v>
   <v>       0.02184797 </v>
   <v>       0.02184797 </v>
   <v>       0.02184797 </v>
   <v>       0.01092399 </v>
   <v>       0.01092399 </v>
   <v>       0.02184797 </v>
   <v>       0.02184797 </v>
   <v>       0.01092399 </v>
   <v>       0.01092399 </v>
   <v>       0.01092399 </v>
   <v>       0.01092399 </v>
   <v>       0.02184797 </v>
   <v>       0.02184797 </v>
   <v>       0.01092399 </v>
   <v>       0.02184797 </v>
   <v>       0.02184797 </v>
   <v>       0.01092399 </v>
   <v>       0.01092399 </v>
   <v>       0.01092399 </v>
   <v>       0.01092399 </v>
  </varray>
 </kpoints>
 <parameters>
  <separator name="general" >
   <i type="string" name="SYSTEM">unknown system</i>
   <i type="logical" name="LCOMPAT"> F  </i>
  </separator>
  <separator name="electronic" >
   <i type="string" name="PREC">acc</i>
   <i name="ENMAX">    700.00000000</i>
   <i name="ENAUG">    535.43100000</i>
   <i name="EDIFF">      0.00000010</i>
   <i type="int" name="IALGO">    38</i>
   <i type="int" name="IWAVPR">    10</i>
   <i type="int" name="NBANDS">    24</i>
   <i type="int" name="NBANDSLOW">    -1</i>
   <i type="int" name="NBANDSHIGH">    -1</i>
   <i name="NELECT">     37.00000000</i>
   <i type="int" name="TURBO">     0</i>
   <i type="int" name="IRESTART">     0</i>
   <i type="int" name="NREBOOT">     0</i>
   <i type="int" name="NMIN">     0</i>
   <i name="EREF">      0.00000000</i>
   <separator name="electronic smearing" >
    <i type="int" name="ISMEAR">     0</i>
    <i name="SIGMA">      0.01000000</i>
    <i name="KSPACING">      0.50000000</i>
    <i type="logical" name="KGAMMA"> T  </i>
    <i type="logical" name="KBLOWUP"> T  </i>
   </separator>
   <separator name="electronic projectors" >
    <i type="logical" name="LREAL"> F  </i>
    <v name="ROPT">      0.00000000      0.00000000      0.00000000</v>
    <i type="int" name="LMAXPAW">  -100</i>
    <i type="int" name="LMAXMIX">     2</i>
    <i type="logical" name="NLSPLINE"> F  </i>
   </separator>
   <separator name="electronic startup" >
    <i type="int" name="ISTART">     0</i>
    <i type="int" name="ICHARG">     2</i>
    <i type="int" name="INIWAV">     1</i>
   </separator>
   <separator name="electronic spin" >
    <i type="int" name="ISPIN">     1</i>
    <i type="logical" name="LNONCOLLINEAR"> F  </i>
    <v name="MAGMOM">      1.00000000      1.00000000      1.00000000</v>
    <i name="NUPDOWN">     -1.00000000</i>
    <i type="logical" name="LSORBIT"> F  </i>
    <v name="SAXIS">      0.00000000      0.00000000      1.00000000</v>
    <i type="logical" name="LSPIRAL"> F  </i>
    <v name="QSPIRAL">      0.00000000      0.00000000      0.00000000</v>
    <i type="logical" name="LZEROZ"> F  </i>
   </separator>
   <separator name="electronic exchange-correlation" >
    <i type="logical" name="LASPH"> F  </i>
    <i type="logical" name="LMETAGGA"> F  </i>
   </separator>
   <separator name="electronic convergence" >
    <i type="int" name="NELM">    60</i>
    <i type="int" name="NELMDL">    -5</i>
    <i type="int" name="NELMIN">     5</i>
    <i name="ENINI">    700.00000000</i>
    <separator name="electronic convergence detail" >
     <i type="logical" name="LDIAG"> T  </i>
     <i type="logical" name="LSUBROT"> F  </i>
     <i name="WEIMIN">      0.00000000</i>
     <i name="EBREAK">      0.00000000</i>
     <i name="DEPER">      0.30000000</i>
     <i type="int" name="NRMM">     4</i>
     <i name="TIME">      0.40000000</i>
    </separator>
   </separator>
   <separator name="electronic mixer" >
    <i name="AMIX">      0.40000000</i>
    <i name="BMIX">      1.00000000</i>
    <i name="AMIN">      0.10000000</i>
    <i name="AMIX_MAG">      1.60000000</i>
    <i name="BMIX_MAG">      1.00000000</i>
    <separator name="electronic mixer details" >
     <i type="int" name="IMIX">     4</i>
     <i type="logical" name="MIXFIRST"> F  </i>
     <i type="int" name="MAXMIX">   -45</i>
     <i name="WC">    100.00000000</i>
     <i type="int" name="INIMIX">     1</i>
     <i type="int" name="MIXPRE">     1</i>
     <i type="int" name="MREMOVE">     5</i>
    </separator>
   </separator>
   <separator name="electronic dipolcorrection" >
    <i type="logical" name="LDIPOL"> F  </i>
    <i type="logical" name="LMONO"> F  </i>
    <i type="int" name="IDIPOL">     0</i>
    <i name="EPSILON">      1.00000000</i>
    <v name="DIPOL">   -100.00000000   -100.00000000   -100.00000000</v>
    <i name="EFIELD">      0.00000000</i>
   </separator>
  </separator>
  <separator name="grids" >
   <i type="int" name="NGX">    42</i>
   <i type="int" name="NGY">    42</i>
   <i type="int" name="NGZ">    42</i>
   <i type="int" name="NGXF">    84</i>
   <i type="int" name="NGYF">    84</i>
   <i type="int" name="NGZF">    84</i>
   <i type="logical" name="ADDGRID"> T  </i>
  </separator>
  <separator name="ionic" >
   <i type="int" name="NSW">     0</i>
   <i type="int" name="IBRION">    -1</i>
   <i type="int" name="MDALGO">     0</i>
   <i type="int" name="ISIF">     3</i>
   <i name="PSTRESS">      0.00000000</i>
   <i name="EDIFFG">      0.00000100</i>
   <i type="int" name="NFREE">     0</i>
   <i name="POTIM">      0.50000000</i>
   <i name="SMASS">     -3.00000000</i>
   <i name="SCALEE">      1.00000000</i>
  </separator>
  <separator name="ionic md" >
   <i name="TEBEG">      0.00010000</i>
   <i name="TEEND">      0.00010000</i>
   <i type="int" name="NBLOCK">     1</i>
   <i type="int" name="KBLOCK">     1</i>
   <i type="int" name="NPACO">   256</i>
   <i name="APACO">     16.00000000</i>
  </separator>
  <separator name="symmetry" >
   <i type="int" name="ISYM">     2</i>
   <i name="SYMPREC">      0.00001000</i>
  </separator>
  <separator name="dos" >
   <i type="int" name="LORBIT">     0</i>
   <v name="RWIGS">     -1.00000000     -1.00000000     -1.00000000</v>
   <i type="int" name="NEDOS">   301</i>
   <i name="EMIN">     10.00000000</i>
   <i name="EMAX">    -10.00000000</i>
   <i name="EFERMI">      0.00000000</i>
  </separator>
  <separator name="writing" >
   <i type="int" name="NWRITE">     2</i>
   <i type="logical" name="LWAVE"> F  </i>
   <i type="logical" name="LDOWNSAMPLE"> F  </i>
   <i type="logical" name="LCHARG"> F  </i>
   <i type="logical" name="LPARD"> F  </i>
   <i type="logical" name="LVTOT"> F  </i>
   <i type="logical" name="LVHAR"> F  </i>
   <i type="logical" name="LELF"> F  </i>
   <i type="logical" name="LOPTICS"> F  </i>
   <v name="STM">      0.00000000      0.00000000      0.00000000      0.00000000      0.00000000      0.00000000      0.00000000</v>
  </separator>
  <separator name="performance" >
   <i type="int" name="NPAR">     4</i>
   <i type="int" name="NSIM">     4</i>
   <i type="int" name="NBLK">    -1</i>
   <i type="logical" name="LPLANE"> T  </i>
   <i type="logical" name="LSCALAPACK"> T  </i>
   <i type="logical" name="LSCAAWARE"> F  </i>
   <i type="logical" name="LSCALU"> F  </i>
   <i type="logical" name="LASYNC"> F  </i>
   <i type="logical" name="LORBITALREAL"> F  </i>
  </separator>
  <separator name="miscellaneous" >
   <i type="int" name="IDIOT">     3</i>
   <i type="int" name="PHON_NSTRUCT">    -1</i>
   <i type="logical" name="LMUSIC"> F  </i>
   <v name="POMASS">    232.03900000    208.98000000    195.08000000</v>
   <v name="DARWINR">      0.00000000      0.00000000      0.00000000</v>
   <v name="DARWINV">      1.00000000      1.00000000      1.00000000</v>
   <i type="logical" name="LCORR"> T  </i>
  </separator>
  <i type="logical" name="GGA_COMPAT"> T  </i>
  <i type="logical" name="LBERRY"> F  </i>
  <i type="int" name="ICORELEVEL">     0</i>
  <i type="logical" name="LDAU"> F  </i>
  <i type="int" name="I_CONSTRAINED_M">     0</i>
  <separator name="electronic exchange-correlation" >
   <i type="string" name="GGA">PS</i>
   <i type="int" name="VOSKOWN">     0</i>
   <i type="logical" name="LHFCALC"> F  </i>
   <i type="string" name="PRECFOCK"></i>
   <i type="logical" name="LSYMGRAD"> F  </i>
   <i type="logical" name="LHFONE"> F  </i>
   <i type="logical" name="LRHFCALC"> F  </i>
   <i type="logical" name="LTHOMAS"> F  </i>
   <i type="logical" name="LMODELHF"> F  </i>
   <i type="logical" name="LFOCKACE"> F  </i>
   <i name="ENCUT4O">     -1.00000000</i>
   <i type="int" name="EXXOEP">     0</i>
   <i type="int" name="FOURORBIT">     0</i>
   <i name="AEXX">      0.00000000</i>
   <i name="HFALPHA">      0.00000000</i>
   <i name="MCALPHA">      0.00000000</i>
   <i name="ALDAX">      1.00000000</i>
   <i name="AGGAX">      1.00000000</i>
   <i name="ALDAC">      1.00000000</i>
   <i name="AGGAC">      1.00000000</i>
   <i type="int" name="NKREDX">     1</i>
   <i type="int" name="NKREDY">     1</i>
   <i type="int" name="NKREDZ">     1</i>
   <i type="logical" name="SHIFTRED"> F  </i>
   <i type="logical" name="ODDONLY"> F  </i>
   <i type="logical" name="EVENONLY"> F  </i>
   <i type="int" name="LMAXFOCK">     0</i>
   <i type="int" name="NMAXFOCKAE">     0</i>
   <i type="logical" name="LFOCKAEDFT"> F  </i>
   <i name="HFSCREEN">      0.00000000</i>
   <i name="HFSCREENC">      0.00000000</i>
   <i type="int" name="NBANDSGWLOW">     0</i>
  </separator>
  <separator name="vdW DFT" >
   <i type="logical" name="LUSE_VDW"> F  </i>
   <i name="Zab_VDW">     -0.84910000</i>
   <i name="PARAM1">      0.12340000</i>
   <i name="PARAM2">      1.00000000</i>
   <i name="PARAM3">      0.00000000</i>
  </separator>
  <separator name="model GW" >
   <i type="int" name="MODEL_GW">     0</i>
   <i name="MODEL_EPS0">     16.39035094</i>
   <i name="MODEL_ALPHA">      1.00000000</i>
  </separator>
  <separator name="linear response parameters" >
   <i type="logical" name="LEPSILON"> F  </i>
   <i type="logical" name="LRPA"> F  </i>
   <i type="logical" name="LNABLA"> F  </i>
   <i type="logical" name="LVEL"> F  </i>
   <i type="int" name="KINTER">     0</i>
   <i name="CSHIFT">      0.10000000</i>
   <i name="OMEGAMAX">     -1.00000000</i>
   <i name="DEG_THRESHOLD">      0.00200000</i>
   <i name="RTIME">     -0.10000000</i>
   <i name="WPLASMAI">      0.00000000</i>
   <v name="DFIELD">      0.00000000      0.00000000      0.00000000</v>
   <v name="WPLASMA">      0.00000000      0.00000000      0.00000000      0.00000000      0.00000000      0.00000000      0.00000000      0.00000000      0.00000000</v>
  </separator>
  <separator name="orbital magnetization" >
   <i type="logical" name="NUCIND"> F  </i>
   <v name="MAGPOS">      0.00000000      0.00000000      0.00000000</v>
   <i type="logical" name="LNICSALL"> T  </i>
   <i type="logical" name="ORBITALMAG"> F  </i>
   <i type="logical" name="LMAGBLOCH"> F  </i>
   <i type="logical" name="LCHIMAG"> F  </i>
   <i type="logical" name="LGAUGE"> T  </i>
   <i type="int" name="MAGATOM">     0</i>
   <v name="MAGDIPOL">      0.00000000      0.00000000      0.00000000</v>
   <v name="AVECCONST">      0.00000000      0.00000000      0.00000000</v>
  </separator>
  <separator name="response functions" >
   <i type="logical" name="LFINITE_TEMPERATURE"> F  </i>
   <i type="logical" name="LADDER"> F  </i>
   <i type="logical" name="LRPAFORCE"> F  </i>
   <i type="logical" name="LFXC"> F  </i>
   <i type="logical" name="LHARTREE"> T  </i>
   <i type="int" name="IBSE">     0</i>
   <v type="int" name="KPOINT">    -1     0     0     0</v>
   <i type="logical" name="LTCTC"> F  </i>
   <i type="logical" name="LTCTE"> F  </i>
   <i type="logical" name="LTETE"> F  </i>
   <i type="logical" name="LTRIPLET"> F  </i>
   <i type="logical" name="LFXCEPS"> F  </i>
   <i type="logical" name="LFXHEG"> F  </i>
   <i type="int" name="NATURALO">     2</i>
   <i type="logical" name="L2ORDER"> F  </i>
   <i type="logical" name="LDMP1"> F  </i>
   <i type="logical" name="LMP2LT"> F  </i>
   <i type="logical" name="LSMP2LT"> F  </i>
   <i type="logical" name="LUSEW"> F  </i>
   <i name="ENCUTGW">     -2.00000000</i>
   <i name="ENCUTGWSOFT">     -2.00000000</i>
   <i name="ENCUTLF">     -1.00000000</i>
   <i type="int" name="LMAXMP2">    -1</i>
   <i name="SCISSOR">      0.00000000</i>
   <i type="int" name="NOMEGA">     0</i>
   <i type="int" name="NOMEGAR">     0</i>
   <i type="int" name="NBANDSGW">    -1</i>
   <i type="int" name="NBANDSO">    -1</i>
   <i type="int" name="NBANDSV">    -1</i>
   <i type="int" name="NELM">     1</i>
   <i type="int" name="NELMHF">     1</i>
   <i type="int" name="DIM">     3</i>
   <i type="int" name="IESPILON">     4</i>
   <i type="int" name="ANTIRES">     0</i>
   <i name="OMEGAMAX">    -30.00000000</i>
   <i name="OMEGAMIN">    -30.00000000</i>
   <i name="OMEGATL">   -200.00000000</i>
   <i type="int" name="OMEGAGRID">   145</i>
   <i name="CSHIFT">     -0.10000000</i>
   <i type="logical" name="LSELFENERGY"> F  </i>
   <i type="logical" name="LSPECTRAL"> F  </i>
   <i type="logical" name="LSPECTRALGW"> F  </i>
   <i type="logical" name="LSINGLES"> F  </i>
   <i type="logical" name="LFERMIGW"> F  </i>
   <i type="logical" name="ODDONLYGW"> F  </i>
   <i type="logical" name="EVENONLYGW"> F  </i>
   <i type="int" name="NKREDLFX">     1</i>
   <i type="int" name="NKREDLFY">     1</i>
   <i type="int" name="NKREDLFZ">     1</i>
   <i type="int" name="MAXMEM">  2800</i>
   <i type="int" name="TELESCOPE">     0</i>
   <i type="int" name="NTAUPAR">     1</i>
   <i type="int" name="NOMEGAPAR">    -1</i>
   <i name="LAMBDA">      1.00000000</i>
  </separator>
  <separator name="External order field" >
   <i name="OFIELD_KAPPA">      0.00000000</i>
   <v name="OFIELD_K">      0.00000000      0.00000000      0.00000000</v>
   <i name="OFIELD_Q6_NEAR">      0.00000000</i>
   <i name="OFIELD_Q6_FAR">      0.00000000</i>
   <i name="OFIELD_A">      0.00000000</i>
  </separator>
 </parameters>
 <atominfo>
  <atoms>       3 </atoms>
  <types>       3 </types>
  <array name="atoms" >
   <dimension dim="1">ion</dimension>
   <field type="string">element</field>
   <field type="int">atomtype</field>
   <set>
    <rc><c>Th</c><c>   1</c></rc>
    <rc><c>Bi</c><c>   2</c></rc>
    <rc><c>Pt</c><c>   3</c></rc>
   </set>
  </array>
  <array name="atomtypes" >
   <dimension dim="1">type</dimension>
   <field type="int">atomspertype</field>
   <field type="string">element</field>
   <field>mass</field>
   <field>valence</field>
   <field type="string">pseudopotential</field>
   <set>
    <rc><c>   1</c><c>Th</c><c>    232.03900000</c><c>     12.00000000</c><c>  PAW_PBE Th 07Sep2000                  </c></rc>
    <rc><c>   1</c><c>Bi</c><c>    208.98000000</c><c>     15.00000000</c><c>  PAW_PBE Bi_d 06Sep2000                </c></rc>
    <rc><c>   1</c><c>Pt</c><c>    195.08000000</c><c>     10.00000000</c><c>  PAW_PBE Pt 04Feb2005                  </c></rc>
   </set>
  </array>
 </atominfo>
 <structure name="initialpos" >
  <crystal>
   <varray name="basis" >
    <v>       0.00000000       3.44754085       3.44754085 </v>
    <v>       3.44754085       0.00000000       3.44754085 </v>
    <v>       3.44754085       3.44754085       0.00000000 </v>
   </varray>
   <i name="volume">     81.95175470 </i>
   <varray name="rec_basis" >
    <v>      -0.14503091       0.14503091       0.14503091 </v>
    <v>       0.14503091      -0.14503091       0.14503091 </v>
    <v>       0.14503091       0.14503091      -0.14503091 </v>
   </varray>
  </crystal>
  <varray name="positions" >
   <v>       0.25000000       0.25000000       0.25000000 </v>
   <v>       0.75000000       0.75000000       0.75000000 </v>
   <v>       0.00000000       0.00000000       0.00000000 </v>
  </varray>
 </structure>
 <calculation>
  <scstep>
   <time name="dav">    1.53    1.55</time>
   <time name="total">    1.69    1.79</time>
   <energy>
    <i name="alphaZ">    209.65460766 </i>
    <i name="ewald">  -3107.19460786 </i>
    <i name="hartreedc">   -765.40173852 </i>
    <i name="XCdc">     68.09026540 </i>
    <i name="pawpsdc">   3147.30828992 </i>
    <i name="pawaedc">  -3070.62761383 </i>
    <i name="eentropy">     -0.00017167 </i>
    <i name="bandstr">    288.46818517 </i>
    <i name="atom">   3674.67342263 </i>
    <i name="e_fr_energy">    444.97063892 </i>
    <i name="e_wo_entrp">    444.97081058 </i>
    <i name="e_0_energy">    444.97072475 </i>
   </energy>
  </scstep>
  <scstep>
   <time name="dav">    1.54    1.57</time>
   <time name="total">    1.54    1.58</time>
   <energy>
    <i name="e_fr_energy">     46.50140839 </i>
    <i name="e_wo_entrp">     46.50163636 </i>
    <i name="e_0_energy">     46.50152238 </i>
   </energy>
  </scstep>
  <scstep>
   <time name="dav">    1.93    1.95</time>
   <time name="total">    1.93    1.95</time>
   <energy>
    <i name="e_fr_energy">    -18.48353432 </i>
    <i name="e_wo_entrp">    -18.48339839 </i>
    <i name="e_0_energy">    -18.48346635 </i>
   </energy>
  </scstep>
  <scstep>
   <time name="dav">    2.39    2.41</time>
   <time name="total">    2.39    2.42</time>
   <energy>
    <i name="e_fr_energy">    -22.81360271 </i>
    <i name="e_wo_entrp">    -22.81354370 </i>
    <i name="e_0_energy">    -22.81357321 </i>
   </energy>
  </scstep>
  <scstep>
   <time name="dav">    1.96    1.98</time>
   <time name="total">    2.30    2.33</time>
   <energy>
    <i name="e_fr_energy">    -22.95244935 </i>
    <i name="e_wo_entrp">    -22.95238547 </i>
    <i name="e_0_energy">    -22.95241741 </i>
   </energy>
  </scstep>
  <scstep>
   <time name="dav">    1.79    1.79</time>
   <time name="total">    2.23    2.26</time>
   <energy>
    <i name="e_fr_energy">    -22.02098970 </i>
    <i name="e_wo_entrp">    -22.02081727 </i>
    <i name="e_0_energy">    -22.02090348 </i>
   </energy>
  </scstep>
  <scstep>
   <time name="dav">    2.07    2.07</time>
   <time name="total">    2.50    2.53</time>
   <energy>
    <i name="e_fr_energy">    -21.90460460 </i>
    <i name="e_wo_entrp">    -21.90423435 </i>
    <i name="e_0_energy">    -21.90441948 </i>
   </energy>
  </scstep>
  <scstep>
   <time name="dav">    1.79    1.79</time>
   <time name="total">    2.20    2.23</time>
   <energy>
    <i name="e_fr_energy">    -21.85593971 </i>
    <i name="e_wo_entrp">    -21.85584610 </i>
    <i name="e_0_energy">    -21.85589290 </i>
   </energy>
  </scstep>
  <scstep>
   <time name="dav">    2.04    2.04</time>
   <time name="total">    2.45    2.48</time>
   <energy>
    <i name="e_fr_energy">    -21.84573436 </i>
    <i name="e_wo_entrp">    -21.84551968 </i>
    <i name="e_0_energy">    -21.84562702 </i>
   </energy>
  </scstep>
  <scstep>
   <time name="dav">    1.74    1.74</time>
   <time name="total">    2.17    2.20</time>
   <energy>
    <i name="e_fr_energy">    -21.84011601 </i>
    <i name="e_wo_entrp">    -21.83996192 </i>
    <i name="e_0_energy">    -21.84003897 </i>
   </energy>
  </scstep>
  <scstep>
   <time name="dav">    1.99    1.99</time>
   <time name="total">    2.42    2.43</time>
   <energy>
    <i name="e_fr_energy">    -21.84029539 </i>
    <i name="e_wo_entrp">    -21.84013936 </i>
    <i name="e_0_energy">    -21.84021737 </i>
   </energy>
  </scstep>
  <scstep>
   <time name="dav">    1.94    1.94</time>
   <time name="total">    2.35    2.39</time>
   <energy>
    <i name="e_fr_energy">    -21.84017448 </i>
    <i name="e_wo_entrp">    -21.84001279 </i>
    <i name="e_0_energy">    -21.84009363 </i>
   </energy>
  </scstep>
  <scstep>
   <time name="dav">    2.13    2.13</time>
   <time name="total">    2.55    2.57</time>
   <energy>
    <i name="e_fr_energy">    -21.84017271 </i>
    <i name="e_wo_entrp">    -21.84000865 </i>
    <i name="e_0_energy">    -21.84009068 </i>
   </energy>
  </scstep>
  <scstep>
   <time name="dav">    1.83    1.83</time>
   <time name="total">    2.25    2.27</time>
   <energy>
    <i name="e_fr_energy">    -21.84017123 </i>
    <i name="e_wo_entrp">    -21.84000805 </i>
    <i name="e_0_energy">    -21.84008964 </i>
   </energy>
  </scstep>
  <scstep>
   <time name="dav">    2.13    2.13</time>
   <time name="total">    2.56    2.58</time>
   <energy>
    <i name="e_fr_energy">    -21.84017098 </i>
    <i name="e_wo_entrp">    -21.84000800 </i>
    <i name="e_0_energy">    -21.84008949 </i>
   </energy>
  </scstep>
  <scstep>
   <time name="dav">    1.44    1.44</time>
   <time name="total">    1.57    1.60</time>
   <energy>
    <i name="alphaZ">    209.65460766 </i>
    <i name="ewald">  -3107.19460786 </i>
    <i name="hartreedc">   -739.70193874 </i>
    <i name="XCdc">     67.42084910 </i>
    <i name="pawpsdc">   3863.77409405 </i>
    <i name="pawaedc">  -3795.78013965 </i>
    <i name="eentropy">     -0.00016281 </i>
    <i name="bandstr">   -194.68629536 </i>
    <i name="atom">   3674.67342263 </i>
    <i name="e_fr_energy">    -21.84017097 </i>
    <i name="e_wo_entrp">    -21.84000816 </i>
    <i name="e_0_energy">    -21.84008957 </i>
   </energy>
  </scstep>
  <structure>
   <crystal>
    <varray name="basis" >
     <v>       0.00000000       3.44754085       3.44754085 </v>
     <v>       3.44754085       0.00000000       3.44754085 </v>
     <v>       3.44754085       3.44754085       0.00000000 </v>
    </varray>
    <i name="volume">     81.95175470 </i>
    <varray name="rec_basis" >
     <v>      -0.14503091       0.14503091       0.14503091 </v>
     <v>       0.14503091      -0.14503091       0.14503091 </v>
     <v>       0.14503091       0.14503091      -0.14503091 </v>
    </varray>
   </crystal>
   <varray name="positions" >
    <v>       0.25000000       0.25000000       0.25000000 </v>
    <v>       0.75000000       0.75000000       0.75000000 </v>
    <v>       0.00000000       0.00000000       0.00000000 </v>
   </varray>
  </structure>
  <varray name="forces" >
   <v>       0.00000000       0.00000000       0.00000000 </v>
   <v>       0.00000000       0.00000000       0.00000000 </v>
   <v>      -0.00000000      -0.00000000      -0.00000000 </v>
  </varray>
  <varray name="stress" >
   <v>     -19.61936329       0.00000000       0.00000000 </v>
   <v>       0.00000000     -19.61936329       0.00000000 </v>
   <v>       0.00000000       0.00000000     -19.61936329 </v>
  </varray>
  <energy>
   <i name="e_fr_energy">    -21.84017097 </i>
   <i name="e_wo_entrp">    -21.84008957 </i>
   <i name="e_0_energy">     -0.00016281 </i>
  </energy>
  <time name="totalsc">   39.02   39.92</time>
  <eigenvalues>
   <array>
    <dimension dim="1">band</dimension>
    <dimension dim="2">kpoint</dimension>
    <dimension dim="3">spin</dimension>
    <field>eigene</field>
    <field>occ</field>
    <set>
     <set comment="spin 1">
      <set comment="kpoint 1">
       <r>  -31.8752    1.0000 </r>
       <r>  -14.6877    1.0000 </r>
       <r>  -14.6877    1.0000 </r>
       <r>  -14.6557    1.0000 </r>
       <r>  -14.6557    1.0000 </r>
       <r>  -14.6557    1.0000 </r>
       <r>   -9.8355    1.0000 </r>
       <r>   -9.8355    1.0000 </r>
       <r>   -9.8355    1.0000 </r>
       <r>   -3.8876    1.0000 </r>
       <r>    4.0233    1.0000 </r>
       <r>    4.0233    1.0000 </r>
       <r>    4.0233    1.0000 </r>
       <r>    4.2538    1.0000 </r>
       <r>    4.2538    1.0000 </r>
       <r>    6.2939    1.0000 </r>
       <r>    7.1944    1.0000 </r>
       <r>    7.1944    1.0000 </r>
       <r>    7.1944    1.0000 </r>
       <r>    8.5006    0.0000 </r>
       <r>    8.5006    0.0000 </r>
       <r>    8.5006    0.0000 </r>
       <r>    9.2977    0.0000 </r>
       <r>   10.1996    0.0000 </r>
      </set>
      <set comment="kpoint 2">
       <r>  -31.8749    1.0000 </r>
       <r>  -14.6883    1.0000 </r>
       <r>  -14.6883    1.0000 </r>
       <r>  -14.6558    1.0000 </r>
       <r>  -14.6556    1.0000 </r>
       <r>  -14.6556    1.0000 </r>
       <r>   -9.8502    1.0000 </r>
       <r>   -9.8336    1.0000 </r>
       <r>   -9.8336    1.0000 </r>
       <r>   -3.8305    1.0000 </r>
       <r>    3.8884    1.0000 </r>
       <r>    3.9093    1.0000 </r>
       <r>    3.9093    1.0000 </r>
       <r>    4.3612    1.0000 </r>
       <r>    4.3612    1.0000 </r>
       <r>    6.0266    1.0000 </r>
       <r>    7.1132    1.0000 </r>
       <r>    7.1132    1.0000 </r>
       <r>    7.3549    1.0000 </r>
       <r>    8.5944    0.0000 </r>
       <r>    8.5944    0.0000 </r>
       <r>    8.5996    0.0000 </r>
       <r>    9.5090    0.0000 </r>
       <r>   10.2077    0.0000 </r>
      </set>
      <set comment="kpoint 3">
       <r>  -31.8742    1.0000 </r>
       <r>  -14.6901    1.0000 </r>
       <r>  -14.6901    1.0000 </r>
       <r>  -14.6562    1.0000 </r>
       <r>  -14.6552    1.0000 </r>
       <r>  -14.6552    1.0000 </r>
       <r>   -9.8898    1.0000 </r>
       <r>   -9.8286    1.0000 </r>
       <r>   -9.8286    1.0000 </r>
       <r>   -3.6720    1.0000 </r>
       <r>    3.5508    1.0000 </r>
       <r>    3.7503    1.0000 </r>
       <r>    3.7503    1.0000 </r>
       <r>    4.4905    1.0000 </r>
       <r>    4.4905    1.0000 </r>
       <r>    5.5659    1.0000 </r>
       <r>    6.9444    1.0000 </r>
       <r>    6.9444    1.0000 </r>
       <r>    7.4980    1.0000 </r>
       <r>    8.8159    0.0000 </r>
       <r>    8.8159    0.0000 </r>
       <r>    9.0296    0.0000 </r>
       <r>    9.8855    0.0000 </r>
       <r>   10.2249    0.0000 </r>
      </set>
      <set comment="kpoint 4">
       <r>  -31.8731    1.0000 </r>
       <r>  -14.6926    1.0000 </r>
       <r>  -14.6926    1.0000 </r>
       <r>  -14.6568    1.0000 </r>
       <r>  -14.6546    1.0000 </r>
       <r>  -14.6546    1.0000 </r>
       <r>   -9.9425    1.0000 </r>
       <r>   -9.8214    1.0000 </r>
       <r>   -9.8214    1.0000 </r>
       <r>   -3.4478    1.0000 </r>
       <r>    3.1387    1.0000 </r>
       <r>    3.6274    1.0000 </r>
       <r>    3.6274    1.0000 </r>
       <r>    4.5422    1.0000 </r>
       <r>    4.5422    1.0000 </r>
       <r>    5.1444    1.0000 </r>
       <r>    6.7966    1.0000 </r>
       <r>    6.7966    1.0000 </r>
       <r>    7.5828    1.0000 </r>
       <r>    9.0834    0.0000 </r>
       <r>    9.0834    0.0000 </r>
       <r>    9.6256    0.0000 </r>
       <r>   10.1844    0.0000 </r>
       <r>   10.2192    0.0000 </r>
      </set>
      <set comment="kpoint 5">
       <r>  -31.8720    1.0000 </r>
       <r>  -14.6953    1.0000 </r>
       <r>  -14.6953    1.0000 </r>
       <r>  -14.6575    1.0000 </r>
       <r>  -14.6540    1.0000 </r>
       <r>  -14.6540    1.0000 </r>
       <r>   -9.9949    1.0000 </r>
       <r>   -9.8139    1.0000 </r>
       <r>   -9.8139    1.0000 </r>
       <r>   -3.2083    1.0000 </r>
       <r>    2.7566    1.0000 </r>
       <r>    3.5550    1.0000 </r>
       <r>    3.5550    1.0000 </r>
       <r>    4.5032    1.0000 </r>
       <r>    4.5032    1.0000 </r>
       <r>    4.8269    1.0000 </r>
       <r>    6.7166    1.0000 </r>
       <r>    6.7166    1.0000 </r>
       <r>    7.6992    1.0000 </r>
       <r>    9.3430    0.0000 </r>
       <r>    9.3430    0.0000 </r>
       <r>   10.0801    0.0000 </r>
       <r>   10.1855    0.0000 </r>
       <r>   10.1859    0.0000 </r>
      </set>
      <set comment="kpoint 6">
       <r>  -31.8710    1.0000 </r>
       <r>  -14.6976    1.0000 </r>
       <r>  -14.6976    1.0000 </r>
       <r>  -14.6582    1.0000 </r>
       <r>  -14.6535    1.0000 </r>
       <r>  -14.6535    1.0000 </r>
       <r>  -10.0357    1.0000 </r>
       <r>   -9.8077    1.0000 </r>
       <r>   -9.8077    1.0000 </r>
       <r>   -3.0085    1.0000 </r>
       <r>    2.4712    1.0000 </r>
       <r>    3.5285    1.0000 </r>
       <r>    3.5285    1.0000 </r>
       <r>    4.4141    1.0000 </r>
       <r>    4.4141    1.0000 </r>
       <r>    4.6265    1.0000 </r>
       <r>    6.6925    1.0000 </r>
       <r>    6.6925    1.0000 </r>
       <r>    7.8594    1.0000 </r>
       <r>    9.5460    0.0000 </r>
       <r>    9.5460    0.0000 </r>
       <r>   10.1513    0.0000 </r>
       <r>   10.1513    0.0000 </r>
       <r>   10.2128    0.0000 </r>
      </set>
      <set comment="kpoint 7">
       <r>  -31.8705    1.0000 </r>
       <r>  -14.6989    1.0000 </r>
       <r>  -14.6989    1.0000 </r>
       <r>  -14.6586    1.0000 </r>
       <r>  -14.6532    1.0000 </r>
       <r>  -14.6532    1.0000 </r>
       <r>  -10.0578    1.0000 </r>
       <r>   -9.8042    1.0000 </r>
       <r>   -9.8042    1.0000 </r>
       <r>   -2.8952    1.0000 </r>
       <r>    2.3202    1.0000 </r>
       <r>    3.5276    1.0000 </r>
       <r>    3.5276    1.0000 </r>
       <r>    4.3428    1.0000 </r>
       <r>    4.3428    1.0000 </r>
       <r>    4.5329    1.0000 </r>
       <r>    6.6911    1.0000 </r>
       <r>    6.6911    1.0000 </r>
       <r>    8.0027    1.0000 </r>
       <r>    9.6554    0.0000 </r>
       <r>    9.6554    0.0000 </r>
       <r>   10.1052    0.0000 </r>
       <r>   10.1288    0.0000 </r>
       <r>   10.1289    0.0000 </r>
      </set>
      <set comment="kpoint 8">
       <r>  -31.8749    1.0000 </r>
       <r>  -14.6895    1.0000 </r>
       <r>  -14.6874    1.0000 </r>
       <r>  -14.6560    1.0000 </r>
       <r>  -14.6555    1.0000 </r>
       <r>  -14.6555    1.0000 </r>
       <r>   -9.8467    1.0000 </r>
       <r>   -9.8373    1.0000 </r>
       <r>   -9.8373    1.0000 </r>
       <r>   -3.8130    1.0000 </r>
       <r>    3.6460    1.0000 </r>
       <r>    4.0371    1.0000 </r>
       <r>    4.0371    1.0000 </r>
       <r>    4.2703    1.0000 </r>
       <r>    4.3965    1.0000 </r>
       <r>    6.0105    1.0000 </r>
       <r>    6.9964    1.0000 </r>
       <r>    6.9964    1.0000 </r>
       <r>    7.5875    1.0000 </r>
       <r>    8.3251    0.0000 </r>
       <r>    8.7534    0.0000 </r>
       <r>    8.7534    0.0000 </r>
       <r>    9.5470    0.0000 </r>
       <r>   10.1864    0.0000 </r>
      </set>
      <set comment="kpoint 9">
       <r>  -31.8743    1.0000 </r>
       <r>  -14.6915    1.0000 </r>
       <r>  -14.6879    1.0000 </r>
       <r>  -14.6563    1.0000 </r>
       <r>  -14.6552    1.0000 </r>
       <r>  -14.6551    1.0000 </r>
       <r>   -9.8760    1.0000 </r>
       <r>   -9.8371    1.0000 </r>
       <r>   -9.8316    1.0000 </r>
       <r>   -3.6930    1.0000 </r>
       <r>    3.3650    1.0000 </r>
       <r>    3.9189    1.0000 </r>
       <r>    3.9522    1.0000 </r>
       <r>    4.3667    1.0000 </r>
       <r>    4.4918    1.0000 </r>
       <r>    5.7085    1.0000 </r>
       <r>    6.8171    1.0000 </r>
       <r>    6.8307    1.0000 </r>
       <r>    7.8297    1.0000 </r>
       <r>    8.3494    0.0000 </r>
       <r>    8.9848    0.0000 </r>
       <r>    9.0624    0.0000 </r>
       <r>    9.8257    0.0000 </r>
       <r>   10.1748    0.0000 </r>
      </set>
      <set comment="kpoint 10">
       <r>  -31.8733    1.0000 </r>
       <r>  -14.6939    1.0000 </r>
       <r>  -14.6896    1.0000 </r>
       <r>  -14.6568    1.0000 </r>
       <r>  -14.6548    1.0000 </r>
       <r>  -14.6546    1.0000 </r>
       <r>   -9.9239    1.0000 </r>
       <r>   -9.8331    1.0000 </r>
       <r>   -9.8233    1.0000 </r>
       <r>   -3.4985    1.0000 </r>
       <r>    3.0742    1.0000 </r>
       <r>    3.7011    1.0000 </r>
       <r>    3.8310    1.0000 </r>
       <r>    4.4456    1.0000 </r>
       <r>    4.5794    1.0000 </r>
       <r>    5.3176    1.0000 </r>
       <r>    6.6472    1.0000 </r>
       <r>    6.7039    1.0000 </r>
       <r>    7.8804    1.0000 </r>
       <r>    8.6886    0.0000 </r>
       <r>    9.2214    0.0000 </r>
       <r>    9.5120    0.0000 </r>
       <r>   10.1132    0.0000 </r>
       <r>   10.1657    0.0000 </r>
      </set>
      <set comment="kpoint 11">
       <r>  -31.8722    1.0000 </r>
       <r>  -14.6962    1.0000 </r>
       <r>  -14.6921    1.0000 </r>
       <r>  -14.6573    1.0000 </r>
       <r>  -14.6543    1.0000 </r>
       <r>  -14.6539    1.0000 </r>
       <r>   -9.9755    1.0000 </r>
       <r>   -9.8263    1.0000 </r>
       <r>   -9.8163    1.0000 </r>
       <r>   -3.2746    1.0000 </r>
       <r>    2.7889    1.0000 </r>
       <r>    3.5386    1.0000 </r>
       <r>    3.7361    1.0000 </r>
       <r>    4.4363    1.0000 </r>
       <r>    4.5892    1.0000 </r>
       <r>    4.9686    1.0000 </r>
       <r>    6.5534    1.0000 </r>
       <r>    6.6488    1.0000 </r>
       <r>    7.8806    1.0000 </r>
       <r>    9.0983    0.0000 </r>
       <r>    9.4347    0.0000 </r>
       <r>    9.9434    0.0000 </r>
       <r>   10.1535    0.0000 </r>
       <r>   10.2096    0.0000 </r>
      </set>
      <set comment="kpoint 12">
       <r>  -31.8712    1.0000 </r>
       <r>  -14.6978    1.0000 </r>
       <r>  -14.6949    1.0000 </r>
       <r>  -14.6579    1.0000 </r>
       <r>  -14.6538    1.0000 </r>
       <r>  -14.6534    1.0000 </r>
       <r>  -10.0191    1.0000 </r>
       <r>   -9.8182    1.0000 </r>
       <r>   -9.8120    1.0000 </r>
       <r>   -3.0729    1.0000 </r>
       <r>    2.5509    1.0000 </r>
       <r>    3.4697    1.0000 </r>
       <r>    3.6640    1.0000 </r>
       <r>    4.3770    1.0000 </r>
       <r>    4.5258    1.0000 </r>
       <r>    4.7164    1.0000 </r>
       <r>    6.5274    1.0000 </r>
       <r>    6.6444    1.0000 </r>
       <r>    7.9465    1.0000 </r>
       <r>    9.4121    0.0000 </r>
       <r>    9.5992    0.0000 </r>
       <r>   10.0968    0.0000 </r>
       <r>   10.1355    0.0000 </r>
       <r>   10.2468    0.0000 </r>
      </set>
      <set comment="kpoint 13">
       <r>  -31.8705    1.0000 </r>
       <r>  -14.6983    1.0000 </r>
       <r>  -14.6973    1.0000 </r>
       <r>  -14.6583    1.0000 </r>
       <r>  -14.6535    1.0000 </r>
       <r>  -14.6530    1.0000 </r>
       <r>  -10.0466    1.0000 </r>
       <r>   -9.8115    1.0000 </r>
       <r>   -9.8106    1.0000 </r>
       <r>   -2.9390    1.0000 </r>
       <r>    2.4011    1.0000 </r>
       <r>    3.4815    1.0000 </r>
       <r>    3.5930    1.0000 </r>
       <r>    4.3428    1.0000 </r>
       <r>    4.4330    1.0000 </r>
       <r>    4.5732    1.0000 </r>
       <r>    6.5321    1.0000 </r>
       <r>    6.6533    1.0000 </r>
       <r>    8.0622    1.0000 </r>
       <r>    9.5678    0.0000 </r>
       <r>    9.6899    0.0000 </r>
       <r>   10.0789    0.0000 </r>
       <r>   10.1159    0.0000 </r>
       <r>   10.2215    0.0000 </r>
      </set>
      <set comment="kpoint 14">
       <r>  -31.8703    1.0000 </r>
       <r>  -14.6987    1.0000 </r>
       <r>  -14.6977    1.0000 </r>
       <r>  -14.6584    1.0000 </r>
       <r>  -14.6533    1.0000 </r>
       <r>  -14.6530    1.0000 </r>
       <r>  -10.0536    1.0000 </r>
       <r>   -9.8146    1.0000 </r>
       <r>   -9.8053    1.0000 </r>
       <r>   -2.9024    1.0000 </r>
       <r>    2.3613    1.0000 </r>
       <r>    3.5133    1.0000 </r>
       <r>    3.5449    1.0000 </r>
       <r>    4.3577    1.0000 </r>
       <r>    4.3803    1.0000 </r>
       <r>    4.5402    1.0000 </r>
       <r>    6.5304    1.0000 </r>
       <r>    6.6573    1.0000 </r>
       <r>    8.1183    1.0000 </r>
       <r>    9.5994    0.0000 </r>
       <r>    9.6854    0.0000 </r>
       <r>   10.0819    0.0000 </r>
       <r>   10.1083    0.0000 </r>
       <r>   10.1824    0.0000 </r>
      </set>
      <set comment="kpoint 15">
       <r>  -31.8707    1.0000 </r>
       <r>  -14.6989    1.0000 </r>
       <r>  -14.6961    1.0000 </r>
       <r>  -14.6581    1.0000 </r>
       <r>  -14.6534    1.0000 </r>
       <r>  -14.6533    1.0000 </r>
       <r>  -10.0392    1.0000 </r>
       <r>   -9.8207    1.0000 </r>
       <r>   -9.8035    1.0000 </r>
       <r>   -2.9711    1.0000 </r>
       <r>    2.4391    1.0000 </r>
       <r>    3.4465    1.0000 </r>
       <r>    3.6287    1.0000 </r>
       <r>    4.3403    1.0000 </r>
       <r>    4.4763    1.0000 </r>
       <r>    4.6109    1.0000 </r>
       <r>    6.5014    1.0000 </r>
       <r>    6.6637    1.0000 </r>
       <r>    8.0448    1.0000 </r>
       <r>    9.5687    0.0000 </r>
       <r>    9.6179    0.0000 </r>
       <r>   10.0956    0.0000 </r>
       <r>   10.1209    0.0000 </r>
       <r>   10.2435    0.0000 </r>
      </set>
      <set comment="kpoint 16">
       <r>  -31.8715    1.0000 </r>
       <r>  -14.6978    1.0000 </r>
       <r>  -14.6938    1.0000 </r>
       <r>  -14.6576    1.0000 </r>
       <r>  -14.6538    1.0000 </r>
       <r>  -14.6538    1.0000 </r>
       <r>  -10.0058    1.0000 </r>
       <r>   -9.8282    1.0000 </r>
       <r>   -9.8056    1.0000 </r>
       <r>   -3.1305    1.0000 </r>
       <r>    2.6315    1.0000 </r>
       <r>    3.4223    1.0000 </r>
       <r>    3.7202    1.0000 </r>
       <r>    4.3798    1.0000 </r>
       <r>    4.5809    1.0000 </r>
       <r>    4.7866    1.0000 </r>
       <r>    6.4510    1.0000 </r>
       <r>    6.6985    1.0000 </r>
       <r>    7.9447    1.0000 </r>
       <r>    9.3484    0.0000 </r>
       <r>    9.5180    0.0000 </r>
       <r>   10.0820    0.0000 </r>
       <r>   10.1443    0.0000 </r>
       <r>   10.2435    0.0000 </r>
      </set>
      <set comment="kpoint 17">
       <r>  -31.8726    1.0000 </r>
       <r>  -14.6956    1.0000 </r>
       <r>  -14.6914    1.0000 </r>
       <r>  -14.6570    1.0000 </r>
       <r>  -14.6545    1.0000 </r>
       <r>  -14.6543    1.0000 </r>
       <r>   -9.9589    1.0000 </r>
       <r>   -9.8353    1.0000 </r>
       <r>   -9.8111    1.0000 </r>
       <r>   -3.3452    1.0000 </r>
       <r>    2.9206    1.0000 </r>
       <r>    3.4589    1.0000 </r>
       <r>    3.8304    1.0000 </r>
       <r>    4.4179    1.0000 </r>
       <r>    4.6375    1.0000 </r>
       <r>    5.0709    1.0000 </r>
       <r>    6.4230    1.0000 </r>
       <r>    6.7915    1.0000 </r>
       <r>    7.8929    1.0000 </r>
       <r>    9.0677    0.0000 </r>
       <r>    9.2578    0.0000 </r>
       <r>    9.8371    0.0000 </r>
       <r>   10.1676    0.0000 </r>
       <r>   10.2243    0.0000 </r>
      </set>
      <set comment="kpoint 18">
       <r>  -31.8736    1.0000 </r>
       <r>  -14.6929    1.0000 </r>
       <r>  -14.6894    1.0000 </r>
       <r>  -14.6565    1.0000 </r>
       <r>  -14.6550    1.0000 </r>
       <r>  -14.6548    1.0000 </r>
       <r>   -9.9086    1.0000 </r>
       <r>   -9.8398    1.0000 </r>
       <r>   -9.8188    1.0000 </r>
       <r>   -3.5658    1.0000 </r>
       <r>    3.2666    1.0000 </r>
       <r>    3.5608    1.0000 </r>
       <r>    3.9649    1.0000 </r>
       <r>    4.3885    1.0000 </r>
       <r>    4.6109    1.0000 </r>
       <r>    5.4355    1.0000 </r>
       <r>    6.4986    1.0000 </r>
       <r>    6.9430    1.0000 </r>
       <r>    7.8586    1.0000 </r>
       <r>    8.7932    0.0000 </r>
       <r>    8.8486    0.0000 </r>
       <r>    9.4438    0.0000 </r>
       <r>   10.0311    0.0000 </r>
       <r>   10.1905    0.0000 </r>
      </set>
      <set comment="kpoint 19">
       <r>  -31.8745    1.0000 </r>
       <r>  -14.6903    1.0000 </r>
       <r>  -14.6882    1.0000 </r>
       <r>  -14.6561    1.0000 </r>
       <r>  -14.6554    1.0000 </r>
       <r>  -14.6553    1.0000 </r>
       <r>   -9.8684    1.0000 </r>
       <r>   -9.8394    1.0000 </r>
       <r>   -9.8270    1.0000 </r>
       <r>   -3.7412    1.0000 </r>
       <r>    3.6107    1.0000 </r>
       <r>    3.7195    1.0000 </r>
       <r>    4.0489    1.0000 </r>
       <r>    4.3228    1.0000 </r>
       <r>    4.5064    1.0000 </r>
       <r>    5.7885    1.0000 </r>
       <r>    6.7609    1.0000 </r>
       <r>    7.0874    1.0000 </r>
       <r>    7.6650    1.0000 </r>
       <r>    8.5629    0.0000 </r>
       <r>    8.6063    0.0000 </r>
       <r>    9.0343    0.0000 </r>
       <r>    9.7343    0.0000 </r>
       <r>   10.1956    0.0000 </r>
      </set>
      <set comment="kpoint 20">
       <r>  -31.8739    1.0000 </r>
       <r>  -14.6932    1.0000 </r>
       <r>  -14.6868    1.0000 </r>
       <r>  -14.6568    1.0000 </r>
       <r>  -14.6548    1.0000 </r>
       <r>  -14.6548    1.0000 </r>
       <r>   -9.8766    1.0000 </r>
       <r>   -9.8424    1.0000 </r>
       <r>   -9.8424    1.0000 </r>
       <r>   -3.6244    1.0000 </r>
       <r>    3.0819    1.0000 </r>
       <r>    4.0645    1.0000 </r>
       <r>    4.0645    1.0000 </r>
       <r>    4.3167    1.0000 </r>
       <r>    4.4196    1.0000 </r>
       <r>    5.6944    1.0000 </r>
       <r>    6.6832    1.0000 </r>
       <r>    6.6832    1.0000 </r>
       <r>    7.9110    1.0000 </r>
       <r>    8.3266    0.0000 </r>
       <r>    9.2008    0.0000 </r>
       <r>    9.2008    0.0000 </r>
       <r>    9.9255    0.0000 </r>
       <r>   10.1387    0.0000 </r>
      </set>
      <set comment="kpoint 21">
       <r>  -31.8731    1.0000 </r>
       <r>  -14.6949    1.0000 </r>
       <r>  -14.6871    1.0000 </r>
       <r>  -14.6573    1.0000 </r>
       <r>  -14.6544    1.0000 </r>
       <r>  -14.6542    1.0000 </r>
       <r>   -9.9100    1.0000 </r>
       <r>   -9.8433    1.0000 </r>
       <r>   -9.8382    1.0000 </r>
       <r>   -3.4852    1.0000 </r>
       <r>    2.8484    1.0000 </r>
       <r>    3.9331    1.0000 </r>
       <r>    4.0100    1.0000 </r>
       <r>    4.3785    1.0000 </r>
       <r>    4.4723    1.0000 </r>
       <r>    5.4906    1.0000 </r>
       <r>    6.4881    1.0000 </r>
       <r>    6.5787    1.0000 </r>
       <r>    8.0672    1.0000 </r>
       <r>    8.4581    0.0000 </r>
       <r>    9.3979    0.0000 </r>
       <r>    9.4901    0.0000 </r>
       <r>   10.1090    0.0000 </r>
       <r>   10.1149    0.0000 </r>
      </set>
      <set comment="kpoint 22">
       <r>  -31.8721    1.0000 </r>
       <r>  -14.6961    1.0000 </r>
       <r>  -14.6888    1.0000 </r>
       <r>  -14.6577    1.0000 </r>
       <r>  -14.6540    1.0000 </r>
       <r>  -14.6536    1.0000 </r>
       <r>   -9.9550    1.0000 </r>
       <r>   -9.8397    1.0000 </r>
       <r>   -9.8320    1.0000 </r>
       <r>   -3.3110    1.0000 </r>
       <r>    2.6872    1.0000 </r>
       <r>    3.7100    1.0000 </r>
       <r>    3.9180    1.0000 </r>
       <r>    4.4000    1.0000 </r>
       <r>    4.5469    1.0000 </r>
       <r>    5.1970    1.0000 </r>
       <r>    6.3047    1.0000 </r>
       <r>    6.5466    1.0000 </r>
       <r>    8.1329    1.0000 </r>
       <r>    8.8400    0.0000 </r>
       <r>    9.5601    0.0000 </r>
       <r>    9.8229    0.0000 </r>
       <r>   10.0931    0.0000 </r>
       <r>   10.2267    0.0000 </r>
      </set>
      <set comment="kpoint 23">
       <r>  -31.8711    1.0000 </r>
       <r>  -14.6966    1.0000 </r>
       <r>  -14.6914    1.0000 </r>
       <r>  -14.6579    1.0000 </r>
       <r>  -14.6538    1.0000 </r>
       <r>  -14.6530    1.0000 </r>
       <r>   -9.9959    1.0000 </r>
       <r>   -9.8324    1.0000 </r>
       <r>   -9.8300    1.0000 </r>
       <r>   -3.1437    1.0000 </r>
       <r>    2.5972    1.0000 </r>
       <r>    3.5434    1.0000 </r>
       <r>    3.8166    1.0000 </r>
       <r>    4.3787    1.0000 </r>
       <r>    4.5590    1.0000 </r>
       <r>    4.9103    1.0000 </r>
       <r>    6.2209    1.0000 </r>
       <r>    6.5595    1.0000 </r>
       <r>    8.1224    1.0000 </r>
       <r>    9.2797    0.0000 </r>
       <r>    9.6841    0.0000 </r>
       <r>   10.0228    0.0000 </r>
       <r>   10.0898    0.0000 </r>
       <r>   10.2625    0.0000 </r>
      </set>
      <set comment="kpoint 24">
       <r>  -31.8704    1.0000 </r>
       <r>  -14.6962    1.0000 </r>
       <r>  -14.6943    1.0000 </r>
       <r>  -14.6580    1.0000 </r>
       <r>  -14.6538    1.0000 </r>
       <r>  -14.6527    1.0000 </r>
       <r>  -10.0240    1.0000 </r>
       <r>   -9.8331    1.0000 </r>
       <r>   -9.8230    1.0000 </r>
       <r>   -3.0190    1.0000 </r>
       <r>    2.5550    1.0000 </r>
       <r>    3.4797    1.0000 </r>
       <r>    3.6915    1.0000 </r>
       <r>    4.3826    1.0000 </r>
       <r>    4.5125    1.0000 </r>
       <r>    4.7042    1.0000 </r>
       <r>    6.2008    1.0000 </r>
       <r>    6.5739    1.0000 </r>
       <r>    8.1797    1.0000 </r>
       <r>    9.4789    0.0000 </r>
       <r>    9.7603    0.0000 </r>
       <r>   10.0505    0.0000 </r>
       <r>   10.0854    0.0000 </r>
       <r>   10.2753    0.0000 </r>
      </set>
      <set comment="kpoint 25">
       <r>  -31.8701    1.0000 </r>
       <r>  -14.6969    1.0000 </r>
       <r>  -14.6952    1.0000 </r>
       <r>  -14.6579    1.0000 </r>
       <r>  -14.6538    1.0000 </r>
       <r>  -14.6527    1.0000 </r>
       <r>  -10.0350    1.0000 </r>
       <r>   -9.8401    1.0000 </r>
       <r>   -9.8136    1.0000 </r>
       <r>   -2.9596    1.0000 </r>
       <r>    2.5343    1.0000 </r>
       <r>    3.5202    1.0000 </r>
       <r>    3.5521    1.0000 </r>
       <r>    4.4340    1.0000 </r>
       <r>    4.4451    1.0000 </r>
       <r>    4.6234    1.0000 </r>
       <r>    6.1879    1.0000 </r>
       <r>    6.5734    1.0000 </r>
       <r>    8.2763    0.0004 </r>
       <r>    9.4540    0.0000 </r>
       <r>    9.7667    0.0000 </r>
       <r>   10.0784    0.0000 </r>
       <r>   10.0954    0.0000 </r>
       <r>   10.2412    0.0000 </r>
      </set>
      <set comment="kpoint 26">
       <r>  -31.8702    1.0000 </r>
       <r>  -14.6985    1.0000 </r>
       <r>  -14.6936    1.0000 </r>
       <r>  -14.6576    1.0000 </r>
       <r>  -14.6539    1.0000 </r>
       <r>  -14.6529    1.0000 </r>
       <r>  -10.0278    1.0000 </r>
       <r>   -9.8488    1.0000 </r>
       <r>   -9.8065    1.0000 </r>
       <r>   -2.9760    1.0000 </r>
       <r>    2.5355    1.0000 </r>
       <r>    3.4315    1.0000 </r>
       <r>    3.6353    1.0000 </r>
       <r>    4.3648    1.0000 </r>
       <r>    4.5486    1.0000 </r>
       <r>    4.6744    1.0000 </r>
       <r>    6.1392    1.0000 </r>
       <r>    6.5726    1.0000 </r>
       <r>    8.3089    0.0000 </r>
       <r>    9.4913    0.0000 </r>
       <r>    9.6688    0.0000 </r>
       <r>   10.0846    0.0000 </r>
       <r>   10.1087    0.0000 </r>
       <r>   10.2533    0.0000 </r>
      </set>
      <set comment="kpoint 27">
       <r>  -31.8708    1.0000 </r>
       <r>  -14.6988    1.0000 </r>
       <r>  -14.6919    1.0000 </r>
       <r>  -14.6573    1.0000 </r>
       <r>  -14.6540    1.0000 </r>
       <r>  -14.6535    1.0000 </r>
       <r>  -10.0046    1.0000 </r>
       <r>   -9.8562    1.0000 </r>
       <r>   -9.8032    1.0000 </r>
       <r>   -3.0679    1.0000 </r>
       <r>    2.5878    1.0000 </r>
       <r>    3.3596    1.0000 </r>
       <r>    3.7899    1.0000 </r>
       <r>    4.3333    1.0000 </r>
       <r>    4.6514    1.0000 </r>
       <r>    4.8374    1.0000 </r>
       <r>    6.0482    1.0000 </r>
       <r>    6.6029    1.0000 </r>
       <r>    8.2923    0.0000 </r>
       <r>    9.4638    0.0000 </r>
       <r>    9.5266    0.0000 </r>
       <r>   10.0850    0.0000 </r>
       <r>   10.1043    0.0000 </r>
       <r>   10.2843    0.0000 </r>
      </set>
      <set comment="kpoint 28">
       <r>  -31.8718    1.0000 </r>
       <r>  -14.6978    1.0000 </r>
       <r>  -14.6904    1.0000 </r>
       <r>  -14.6570    1.0000 </r>
       <r>  -14.6542    1.0000 </r>
       <r>  -14.6541    1.0000 </r>
       <r>   -9.9708    1.0000 </r>
       <r>   -9.8589    1.0000 </r>
       <r>   -9.8045    1.0000 </r>
       <r>   -3.2206    1.0000 </r>
       <r>    2.7257    1.0000 </r>
       <r>    3.3545    1.0000 </r>
       <r>    3.9510    1.0000 </r>
       <r>    4.3232    1.0000 </r>
       <r>    4.7079    1.0000 </r>
       <r>    5.0821    1.0000 </r>
       <r>    5.9733    1.0000 </r>
       <r>    6.6918    1.0000 </r>
       <r>    8.2890    0.0000 </r>
       <r>    9.1972    0.0000 </r>
       <r>    9.3495    0.0000 </r>
       <r>    9.9953    0.0000 </r>
       <r>   10.1287    0.0000 </r>
       <r>   10.2883    0.0000 </r>
      </set>
      <set comment="kpoint 29">
       <r>  -31.8728    1.0000 </r>
       <r>  -14.6957    1.0000 </r>
       <r>  -14.6895    1.0000 </r>
       <r>  -14.6568    1.0000 </r>
       <r>  -14.6546    1.0000 </r>
       <r>  -14.6544    1.0000 </r>
       <r>   -9.9357    1.0000 </r>
       <r>   -9.8534    1.0000 </r>
       <r>   -9.8101    1.0000 </r>
       <r>   -3.4014    1.0000 </r>
       <r>    2.9606    1.0000 </r>
       <r>    3.4230    1.0000 </r>
       <r>    4.0608    1.0000 </r>
       <r>    4.3107    1.0000 </r>
       <r>    4.6922    1.0000 </r>
       <r>    5.3094    1.0000 </r>
       <r>    6.0835    1.0000 </r>
       <r>    6.8289    1.0000 </r>
       <r>    8.2189    1.0000 </r>
       <r>    8.9440    0.0000 </r>
       <r>    9.0010    0.0000 </r>
       <r>    9.7823    0.0000 </r>
       <r>   10.1557    0.0000 </r>
       <r>   10.1988    0.0000 </r>
      </set>
      <set comment="kpoint 30">
       <r>  -31.8725    1.0000 </r>
       <r>  -14.6953    1.0000 </r>
       <r>  -14.6859    1.0000 </r>
       <r>  -14.6580    1.0000 </r>
       <r>  -14.6537    1.0000 </r>
       <r>  -14.6537    1.0000 </r>
       <r>   -9.9161    1.0000 </r>
       <r>   -9.8499    1.0000 </r>
       <r>   -9.8499    1.0000 </r>
       <r>   -3.4159    1.0000 </r>
       <r>    2.6780    1.0000 </r>
       <r>    4.0730    1.0000 </r>
       <r>    4.0730    1.0000 </r>
       <r>    4.3051    1.0000 </r>
       <r>    4.3846    1.0000 </r>
       <r>    5.4823    1.0000 </r>
       <r>    6.4930    1.0000 </r>
       <r>    6.4930    1.0000 </r>
       <r>    7.8393    1.0000 </r>
       <r>    8.7085    0.0000 </r>
       <r>    9.5512    0.0000 </r>
       <r>    9.5512    0.0000 </r>
       <r>   10.0502    0.0000 </r>
       <r>   10.1925    0.0000 </r>
      </set>
      <set comment="kpoint 31">
       <r>  -31.8717    1.0000 </r>
       <r>  -14.6951    1.0000 </r>
       <r>  -14.6862    1.0000 </r>
       <r>  -14.6585    1.0000 </r>
       <r>  -14.6532    1.0000 </r>
       <r>  -14.6531    1.0000 </r>
       <r>   -9.9452    1.0000 </r>
       <r>   -9.8512    1.0000 </r>
       <r>   -9.8500    1.0000 </r>
       <r>   -3.3136    1.0000 </r>
       <r>    2.6096    1.0000 </r>
       <r>    3.9041    1.0000 </r>
       <r>    4.0285    1.0000 </r>
       <r>    4.3629    1.0000 </r>
       <r>    4.4164    1.0000 </r>
       <r>    5.3323    1.0000 </r>
       <r>    6.3280    1.0000 </r>
       <r>    6.4778    1.0000 </r>
       <r>    7.9897    1.0000 </r>
       <r>    8.8825    0.0000 </r>
       <r>    9.6685    0.0000 </r>
       <r>    9.7412    0.0000 </r>
       <r>   10.0134    0.0000 </r>
       <r>   10.2341    0.0000 </r>
      </set>
      <set comment="kpoint 32">
       <r>  -31.8708    1.0000 </r>
       <r>  -14.6942    1.0000 </r>
       <r>  -14.6879    1.0000 </r>
       <r>  -14.6587    1.0000 </r>
       <r>  -14.6531    1.0000 </r>
       <r>  -14.6525    1.0000 </r>
       <r>   -9.9772    1.0000 </r>
       <r>   -9.8514    1.0000 </r>
       <r>   -9.8470    1.0000 </r>
       <r>   -3.2053    1.0000 </r>
       <r>    2.6434    1.0000 </r>
       <r>    3.6863    1.0000 </r>
       <r>    3.9334    1.0000 </r>
       <r>    4.4252    1.0000 </r>
       <r>    4.4585    1.0000 </r>
       <r>    5.1116    1.0000 </r>
       <r>    6.1020    1.0000 </r>
       <r>    6.5025    1.0000 </r>
       <r>    8.1416    1.0000 </r>
       <r>    9.2072    0.0000 </r>
       <r>    9.7586    0.0000 </r>
       <r>    9.9423    0.0000 </r>
       <r>   10.0202    0.0000 </r>
       <r>   10.2536    0.0000 </r>
      </set>
      <set comment="kpoint 33">
       <r>  -31.8701    1.0000 </r>
       <r>  -14.6930    1.0000 </r>
       <r>  -14.6907    1.0000 </r>
       <r>  -14.6585    1.0000 </r>
       <r>  -14.6533    1.0000 </r>
       <r>  -14.6522    1.0000 </r>
       <r>   -9.9998    1.0000 </r>
       <r>   -9.8592    1.0000 </r>
       <r>   -9.8384    1.0000 </r>
       <r>   -3.1130    1.0000 </r>
       <r>    2.7368    1.0000 </r>
       <r>    3.5432    1.0000 </r>
       <r>    3.7947    1.0000 </r>
       <r>    4.4509    1.0000 </r>
       <r>    4.4965    1.0000 </r>
       <r>    4.8944    1.0000 </r>
       <r>    5.9472    1.0000 </r>
       <r>    6.5146    1.0000 </r>
       <r>    8.2146    1.0000 </r>
       <r>    9.4467    0.0000 </r>
       <r>    9.8244    0.0000 </r>
       <r>   10.0140    0.0000 </r>
       <r>   10.0466    0.0000 </r>
       <r>   10.2864    0.0000 </r>
      </set>
      <set comment="kpoint 34">
       <r>  -31.8697    1.0000 </r>
       <r>  -14.6938    1.0000 </r>
       <r>  -14.6917    1.0000 </r>
       <r>  -14.6579    1.0000 </r>
       <r>  -14.6538    1.0000 </r>
       <r>  -14.6521    1.0000 </r>
       <r>  -10.0085    1.0000 </r>
       <r>   -9.8721    1.0000 </r>
       <r>   -9.8272    1.0000 </r>
       <r>   -3.0495    1.0000 </r>
       <r>    2.8020    1.0000 </r>
       <r>    3.5052    1.0000 </r>
       <r>    3.6320    1.0000 </r>
       <r>    4.4597    1.0000 </r>
       <r>    4.5177    1.0000 </r>
       <r>    4.7841    1.0000 </r>
       <r>    5.8534    1.0000 </r>
       <r>    6.4981    1.0000 </r>
       <r>    8.3307    0.0000 </r>
       <r>    9.3994    0.0000 </r>
       <r>    9.8530    0.0000 </r>
       <r>   10.0569    0.0000 </r>
       <r>   10.0645    0.0000 </r>
       <r>   10.2647    0.0000 </r>
      </set>
      <set comment="kpoint 35">
       <r>  -31.8698    1.0000 </r>
       <r>  -14.6965    1.0000 </r>
       <r>  -14.6907    1.0000 </r>
       <r>  -14.6571    1.0000 </r>
       <r>  -14.6544    1.0000 </r>
       <r>  -14.6524    1.0000 </r>
       <r>  -10.0041    1.0000 </r>
       <r>   -9.8851    1.0000 </r>
       <r>   -9.8160    1.0000 </r>
       <r>   -3.0228    1.0000 </r>
       <r>    2.7697    1.0000 </r>
       <r>    3.4806    1.0000 </r>
       <r>    3.5723    1.0000 </r>
       <r>    4.3987    1.0000 </r>
       <r>    4.6102    1.0000 </r>
       <r>    4.8176    1.0000 </r>
       <r>    5.7761    1.0000 </r>
       <r>    6.4773    1.0000 </r>
       <r>    8.4691    0.0000 </r>
       <r>    9.3388    0.0000 </r>
       <r>    9.8021    0.0000 </r>
       <r>   10.0575    0.0000 </r>
       <r>   10.1014    0.0000 </r>
       <r>   10.2505    0.0000 </r>
      </set>
      <set comment="kpoint 36">
       <r>  -31.8702    1.0000 </r>
       <r>  -14.6983    1.0000 </r>
       <r>  -14.6900    1.0000 </r>
       <r>  -14.6566    1.0000 </r>
       <r>  -14.6547    1.0000 </r>
       <r>  -14.6529    1.0000 </r>
       <r>   -9.9920    1.0000 </r>
       <r>   -9.8907    1.0000 </r>
       <r>   -9.8073    1.0000 </r>
       <r>   -3.0414    1.0000 </r>
       <r>    2.6847    1.0000 </r>
       <r>    3.3715    1.0000 </r>
       <r>    3.7070    1.0000 </r>
       <r>    4.3583    1.0000 </r>
       <r>    4.6932    1.0000 </r>
       <r>    4.9558    1.0000 </r>
       <r>    5.6949    1.0000 </r>
       <r>    6.4922    1.0000 </r>
       <r>    8.5362    0.0000 </r>
       <r>    9.3858    0.0000 </r>
       <r>    9.6424    0.0000 </r>
       <r>   10.0727    0.0000 </r>
       <r>   10.1214    0.0000 </r>
       <r>   10.2601    0.0000 </r>
      </set>
      <set comment="kpoint 37">
       <r>  -31.8709    1.0000 </r>
       <r>  -14.6988    1.0000 </r>
       <r>  -14.6899    1.0000 </r>
       <r>  -14.6568    1.0000 </r>
       <r>  -14.6544    1.0000 </r>
       <r>  -14.6535    1.0000 </r>
       <r>   -9.9803    1.0000 </r>
       <r>   -9.8813    1.0000 </r>
       <r>   -9.8031    1.0000 </r>
       <r>   -3.1102    1.0000 </r>
       <r>    2.6478    1.0000 </r>
       <r>    3.3257    1.0000 </r>
       <r>    3.8637    1.0000 </r>
       <r>    4.3293    1.0000 </r>
       <r>    4.7306    1.0000 </r>
       <r>    5.0860    1.0000 </r>
       <r>    5.7034    1.0000 </r>
       <r>    6.5694    1.0000 </r>
       <r>    8.4991    0.0000 </r>
       <r>    9.3957    0.0000 </r>
       <r>    9.4159    0.0000 </r>
       <r>   10.0932    0.0000 </r>
       <r>   10.0977    0.0000 </r>
       <r>   10.2983    0.0000 </r>
      </set>
      <set comment="kpoint 38">
       <r>  -31.8710    1.0000 </r>
       <r>  -14.6933    1.0000 </r>
       <r>  -14.6849    1.0000 </r>
       <r>  -14.6593    1.0000 </r>
       <r>  -14.6525    1.0000 </r>
       <r>  -14.6525    1.0000 </r>
       <r>   -9.9557    1.0000 </r>
       <r>   -9.8581    1.0000 </r>
       <r>   -9.8581    1.0000 </r>
       <r>   -3.2892    1.0000 </r>
       <r>    2.6295    1.0000 </r>
       <r>    4.0412    1.0000 </r>
       <r>    4.0412    1.0000 </r>
       <r>    4.1328    1.0000 </r>
       <r>    4.4599    1.0000 </r>
       <r>    5.2700    1.0000 </r>
       <r>    6.4787    1.0000 </r>
       <r>    6.4787    1.0000 </r>
       <r>    7.8381    1.0000 </r>
       <r>    9.0355    0.0000 </r>
       <r>    9.7496    0.0000 </r>
       <r>    9.7496    0.0000 </r>
       <r>    9.9346    0.0000 </r>
       <r>   10.2066    0.0000 </r>
      </set>
      <set comment="kpoint 39">
       <r>  -31.8704    1.0000 </r>
       <r>  -14.6913    1.0000 </r>
       <r>  -14.6853    1.0000 </r>
       <r>  -14.6597    1.0000 </r>
       <r>  -14.6521    1.0000 </r>
       <r>  -14.6519    1.0000 </r>
       <r>   -9.9755    1.0000 </r>
       <r>   -9.8626    1.0000 </r>
       <r>   -9.8588    1.0000 </r>
       <r>   -3.2486    1.0000 </r>
       <r>    2.7538    1.0000 </r>
       <r>    3.8333    1.0000 </r>
       <r>    3.9876    1.0000 </r>
       <r>    4.2388    1.0000 </r>
       <r>    4.4867    1.0000 </r>
       <r>    5.1113    1.0000 </r>
       <r>    6.3435    1.0000 </r>
       <r>    6.5182    1.0000 </r>
       <r>    7.9875    1.0000 </r>
       <r>    9.2366    0.0000 </r>
       <r>    9.8117    0.0000 </r>
       <r>    9.8611    0.0000 </r>
       <r>    9.9165    0.0000 </r>
       <r>   10.1842    0.0000 </r>
      </set>
      <set comment="kpoint 40">
       <r>  -31.8698    1.0000 </r>
       <r>  -14.6894    1.0000 </r>
       <r>  -14.6872    1.0000 </r>
       <r>  -14.6595    1.0000 </r>
       <r>  -14.6522    1.0000 </r>
       <r>  -14.6516    1.0000 </r>
       <r>   -9.9888    1.0000 </r>
       <r>   -9.8741    1.0000 </r>
       <r>   -9.8534    1.0000 </r>
       <r>   -3.1997    1.0000 </r>
       <r>    2.9424    1.0000 </r>
       <r>    3.6427    1.0000 </r>
       <r>    3.8797    1.0000 </r>
       <r>    4.3650    1.0000 </r>
       <r>    4.5162    1.0000 </r>
       <r>    4.9278    1.0000 </r>
       <r>    6.0496    1.0000 </r>
       <r>    6.5294    1.0000 </r>
       <r>    8.1376    1.0000 </r>
       <r>    9.4869    0.0000 </r>
       <r>    9.8620    0.0000 </r>
       <r>    9.9633    0.0000 </r>
       <r>    9.9759    0.0000 </r>
       <r>   10.2950    0.0000 </r>
      </set>
      <set comment="kpoint 41">
       <r>  -31.8694    1.0000 </r>
       <r>  -14.6901    1.0000 </r>
       <r>  -14.6882    1.0000 </r>
       <r>  -14.6588    1.0000 </r>
       <r>  -14.6529    1.0000 </r>
       <r>  -14.6515    1.0000 </r>
       <r>   -9.9890    1.0000 </r>
       <r>   -9.8942    1.0000 </r>
       <r>   -9.8429    1.0000 </r>
       <r>   -3.1468    1.0000 </r>
       <r>    3.0984    1.0000 </r>
       <r>    3.5313    1.0000 </r>
       <r>    3.7332    1.0000 </r>
       <r>    4.4207    1.0000 </r>
       <r>    4.5706    1.0000 </r>
       <r>    4.8280    1.0000 </r>
       <r>    5.7687    1.0000 </r>
       <r>    6.4903    1.0000 </r>
       <r>    8.2573    0.2591 </r>
       <r>    9.4772    0.0000 </r>
       <r>    9.8985    0.0000 </r>
       <r>   10.0026    0.0000 </r>
       <r>   10.0393    0.0000 </r>
       <r>   10.2601    0.0000 </r>
      </set>
      <set comment="kpoint 42">
       <r>  -31.8694    1.0000 </r>
       <r>  -14.6934    1.0000 </r>
       <r>  -14.6879    1.0000 </r>
       <r>  -14.6577    1.0000 </r>
       <r>  -14.6539    1.0000 </r>
       <r>  -14.6518    1.0000 </r>
       <r>   -9.9780    1.0000 </r>
       <r>   -9.9167    1.0000 </r>
       <r>   -9.8297    1.0000 </r>
       <r>   -3.0949    1.0000 </r>
       <r>    3.0801    1.0000 </r>
       <r>    3.5180    1.0000 </r>
       <r>    3.5795    1.0000 </r>
       <r>    4.3977    1.0000 </r>
       <r>    4.6383    1.0000 </r>
       <r>    4.8973    1.0000 </r>
       <r>    5.5680    1.0000 </r>
       <r>    6.4392    1.0000 </r>
       <r>    8.4235    0.0000 </r>
       <r>    9.3596    0.0000 </r>
       <r>    9.9004    0.0000 </r>
       <r>   10.0278    0.0000 </r>
       <r>   10.0515    0.0000 </r>
       <r>   10.2723    0.0000 </r>
      </set>
      <set comment="kpoint 43">
       <r>  -31.8696    1.0000 </r>
       <r>  -14.6964    1.0000 </r>
       <r>  -14.6886    1.0000 </r>
       <r>  -14.6566    1.0000 </r>
       <r>  -14.6549    1.0000 </r>
       <r>  -14.6523    1.0000 </r>
       <r>   -9.9757    1.0000 </r>
       <r>   -9.9190    1.0000 </r>
       <r>   -9.8169    1.0000 </r>
       <r>   -3.0545    1.0000 </r>
       <r>    2.8880    1.0000 </r>
       <r>    3.4505    1.0000 </r>
       <r>    3.5929    1.0000 </r>
       <r>    4.3791    1.0000 </r>
       <r>    4.6880    1.0000 </r>
       <r>    5.0044    1.0000 </r>
       <r>    5.5063    1.0000 </r>
       <r>    6.4303    1.0000 </r>
       <r>    8.5725    0.0000 </r>
       <r>    9.3071    0.0000 </r>
       <r>    9.8125    0.0000 </r>
       <r>   10.0520    0.0000 </r>
       <r>   10.0729    0.0000 </r>
       <r>   10.2495    0.0000 </r>
      </set>
      <set comment="kpoint 44">
       <r>  -31.8699    1.0000 </r>
       <r>  -14.6884    1.0000 </r>
       <r>  -14.6841    1.0000 </r>
       <r>  -14.6603    1.0000 </r>
       <r>  -14.6514    1.0000 </r>
       <r>  -14.6514    1.0000 </r>
       <r>   -9.9872    1.0000 </r>
       <r>   -9.8651    1.0000 </r>
       <r>   -9.8651    1.0000 </r>
       <r>   -3.2687    1.0000 </r>
       <r>    2.9434    1.0000 </r>
       <r>    3.9801    1.0000 </r>
       <r>    3.9868    1.0000 </r>
       <r>    3.9868    1.0000 </r>
       <r>    4.5252    1.0000 </r>
       <r>    4.9611    1.0000 </r>
       <r>    6.5840    1.0000 </r>
       <r>    6.5840    1.0000 </r>
       <r>    7.9125    1.0000 </r>
       <r>    9.3082    0.0000 </r>
       <r>    9.8273    0.0000 </r>
       <r>    9.8516    0.0000 </r>
       <r>    9.8516    0.0000 </r>
       <r>   10.0824    0.0000 </r>
      </set>
      <set comment="kpoint 45">
       <r>  -31.8695    1.0000 </r>
       <r>  -14.6863    1.0000 </r>
       <r>  -14.6847    1.0000 </r>
       <r>  -14.6605    1.0000 </r>
       <r>  -14.6512    1.0000 </r>
       <r>  -14.6511    1.0000 </r>
       <r>   -9.9959    1.0000 </r>
       <r>   -9.8722    1.0000 </r>
       <r>   -9.8645    1.0000 </r>
       <r>   -3.2625    1.0000 </r>
       <r>    3.1757    1.0000 </r>
       <r>    3.7640    1.0000 </r>
       <r>    3.9341    1.0000 </r>
       <r>    4.1493    1.0000 </r>
       <r>    4.5510    1.0000 </r>
       <r>    4.7693    1.0000 </r>
       <r>    6.4437    1.0000 </r>
       <r>    6.6151    1.0000 </r>
       <r>    8.0254    1.0000 </r>
       <r>    9.5273    0.0000 </r>
       <r>    9.8439    0.0000 </r>
       <r>    9.8906    0.0000 </r>
       <r>    9.9123    0.0000 </r>
       <r>   10.0141    0.0000 </r>
      </set>
      <set comment="kpoint 46">
       <r>  -31.8692    1.0000 </r>
       <r>  -14.6867    1.0000 </r>
       <r>  -14.6854    1.0000 </r>
       <r>  -14.6600    1.0000 </r>
       <r>  -14.6517    1.0000 </r>
       <r>  -14.6510    1.0000 </r>
       <r>   -9.9923    1.0000 </r>
       <r>   -9.8901    1.0000 </r>
       <r>   -9.8570    1.0000 </r>
       <r>   -3.2286    1.0000 </r>
       <r>    3.3540    1.0000 </r>
       <r>    3.6074    1.0000 </r>
       <r>    3.8337    1.0000 </r>
       <r>    4.3077    1.0000 </r>
       <r>    4.5864    1.0000 </r>
       <r>    4.6453    1.0000 </r>
       <r>    6.0769    1.0000 </r>
       <r>    6.5652    1.0000 </r>
       <r>    8.1381    1.0000 </r>
       <r>    9.6137    0.0000 </r>
       <r>    9.8987    0.0000 </r>
       <r>    9.9511    0.0000 </r>
       <r>    9.9785    0.0000 </r>
       <r>   10.2065    0.0000 </r>
      </set>
      <set comment="kpoint 47">
       <r>  -31.8692    1.0000 </r>
       <r>  -14.6899    1.0000 </r>
       <r>  -14.6860    1.0000 </r>
       <r>  -14.6590    1.0000 </r>
       <r>  -14.6527    1.0000 </r>
       <r>  -14.6513    1.0000 </r>
       <r>   -9.9779    1.0000 </r>
       <r>   -9.9142    1.0000 </r>
       <r>   -9.8445    1.0000 </r>
       <r>   -3.1695    1.0000 </r>
       <r>    3.3362    1.0000 </r>
       <r>    3.5137    1.0000 </r>
       <r>    3.7061    1.0000 </r>
       <r>    4.3719    1.0000 </r>
       <r>    4.6244    1.0000 </r>
       <r>    4.7521    1.0000 </r>
       <r>    5.7169    1.0000 </r>
       <r>    6.4810    1.0000 </r>
       <r>    8.2703    0.0067 </r>
       <r>    9.4916    0.0000 </r>
       <r>    9.9197    0.0000 </r>
       <r>    9.9755    0.0000 </r>
       <r>   10.0498    0.0000 </r>
       <r>   10.2441    0.0000 </r>
      </set>
      <set comment="kpoint 48">
       <r>  -31.8693    1.0000 </r>
       <r>  -14.6843    1.0000 </r>
       <r>  -14.6837    1.0000 </r>
       <r>  -14.6609    1.0000 </r>
       <r>  -14.6507    1.0000 </r>
       <r>  -14.6507    1.0000 </r>
       <r>  -10.0046    1.0000 </r>
       <r>   -9.8692    1.0000 </r>
       <r>   -9.8692    1.0000 </r>
       <r>   -3.2907    1.0000 </r>
       <r>    3.3954    1.0000 </r>
       <r>    3.8975    1.0000 </r>
       <r>    3.9473    1.0000 </r>
       <r>    3.9473    1.0000 </r>
       <r>    4.5634    1.0000 </r>
       <r>    4.5830    1.0000 </r>
       <r>    6.6887    1.0000 </r>
       <r>    6.6887    1.0000 </r>
       <r>    7.9935    1.0000 </r>
       <r>    9.5192    0.0000 </r>
       <r>    9.7633    0.0000 </r>
       <r>    9.8407    0.0000 </r>
       <r>    9.8991    0.0000 </r>
       <r>    9.8991    0.0000 </r>
      </set>
      <set comment="kpoint 49">
       <r>  -31.8692    1.0000 </r>
       <r>  -14.6844    1.0000 </r>
       <r>  -14.6840    1.0000 </r>
       <r>  -14.6608    1.0000 </r>
       <r>  -14.6509    1.0000 </r>
       <r>  -14.6507    1.0000 </r>
       <r>  -10.0031    1.0000 </r>
       <r>   -9.8758    1.0000 </r>
       <r>   -9.8665    1.0000 </r>
       <r>   -3.2791    1.0000 </r>
       <r>    3.4814    1.0000 </r>
       <r>    3.7358    1.0000 </r>
       <r>    3.9115    1.0000 </r>
       <r>    4.1250    1.0000 </r>
       <r>    4.5089    1.0000 </r>
       <r>    4.5760    1.0000 </r>
       <r>    6.4984    1.0000 </r>
       <r>    6.6639    1.0000 </r>
       <r>    8.0472    1.0000 </r>
       <r>    9.7336    0.0000 </r>
       <r>    9.8086    0.0000 </r>
       <r>    9.8221    0.0000 </r>
       <r>    9.9149    0.0000 </r>
       <r>    9.9254    0.0000 </r>
      </set>
      <set comment="kpoint 50">
       <r>  -31.8736    1.0000 </r>
       <r>  -14.6937    1.0000 </r>
       <r>  -14.6880    1.0000 </r>
       <r>  -14.6567    1.0000 </r>
       <r>  -14.6548    1.0000 </r>
       <r>  -14.6547    1.0000 </r>
       <r>   -9.9012    1.0000 </r>
       <r>   -9.8453    1.0000 </r>
       <r>   -9.8250    1.0000 </r>
       <r>   -3.5604    1.0000 </r>
       <r>    3.0848    1.0000 </r>
       <r>    3.7403    1.0000 </r>
       <r>    4.0693    1.0000 </r>
       <r>    4.3306    1.0000 </r>
       <r>    4.5709    1.0000 </r>
       <r>    5.5288    1.0000 </r>
       <r>    6.4228    1.0000 </r>
       <r>    6.8234    1.0000 </r>
       <r>    8.1602    1.0000 </r>
       <r>    8.3350    0.0000 </r>
       <r>    9.1042    0.0000 </r>
       <r>    9.4497    0.0000 </r>
       <r>   10.0259    0.0000 </r>
       <r>   10.1531    0.0000 </r>
      </set>
      <set comment="kpoint 51">
       <r>  -31.8726    1.0000 </r>
       <r>  -14.6958    1.0000 </r>
       <r>  -14.6892    1.0000 </r>
       <r>  -14.6571    1.0000 </r>
       <r>  -14.6544    1.0000 </r>
       <r>  -14.6542    1.0000 </r>
       <r>   -9.9420    1.0000 </r>
       <r>   -9.8479    1.0000 </r>
       <r>   -9.8168    1.0000 </r>
       <r>   -3.3766    1.0000 </r>
       <r>    2.8414    1.0000 </r>
       <r>    3.5654    1.0000 </r>
       <r>    3.9900    1.0000 </r>
       <r>    4.3588    1.0000 </r>
       <r>    4.6334    1.0000 </r>
       <r>    5.2575    1.0000 </r>
       <r>    6.2105    1.0000 </r>
       <r>    6.7252    1.0000 </r>
       <r>    8.1774    1.0000 </r>
       <r>    8.7554    0.0000 </r>
       <r>    9.3327    0.0000 </r>
       <r>    9.7744    0.0000 </r>
       <r>   10.1356    0.0000 </r>
       <r>   10.2148    0.0000 </r>
      </set>
      <set comment="kpoint 52">
       <r>  -31.8715    1.0000 </r>
       <r>  -14.6974    1.0000 </r>
       <r>  -14.6912    1.0000 </r>
       <r>  -14.6575    1.0000 </r>
       <r>  -14.6541    1.0000 </r>
       <r>  -14.6536    1.0000 </r>
       <r>   -9.9853    1.0000 </r>
       <r>   -9.8445    1.0000 </r>
       <r>   -9.8115    1.0000 </r>
       <r>   -3.1864    1.0000 </r>
       <r>    2.6556    1.0000 </r>
       <r>    3.4548    1.0000 </r>
       <r>    3.8601    1.0000 </r>
       <r>    4.3584    1.0000 </r>
       <r>    4.6273    1.0000 </r>
       <r>    4.9592    1.0000 </r>
       <r>    6.1896    1.0000 </r>
       <r>    6.6432    1.0000 </r>
       <r>    8.1431    1.0000 </r>
       <r>    9.1866    0.0000 </r>
       <r>    9.5544    0.0000 </r>
       <r>   10.0086    0.0000 </r>
       <r>   10.1202    0.0000 </r>
       <r>   10.2534    0.0000 </r>
      </set>
      <set comment="kpoint 53">
       <r>  -31.8707    1.0000 </r>
       <r>  -14.6981    1.0000 </r>
[...]
       <r>    8.6697    0.0000 </r>
       <r>    9.1317    0.0000 </r>
       <r>    9.8738    0.0000 </r>
       <r>    9.9690    0.0000 </r>
       <r>   10.0826    0.0000 </r>
       <r>   10.2324    0.0000 </r>
      </set>
      <set comment="kpoint 81">
       <r>  -31.8695    1.0000 </r>
       <r>  -14.6946    1.0000 </r>
       <r>  -14.6869    1.0000 </r>
       <r>  -14.6570    1.0000 </r>
       <r>  -14.6551    1.0000 </r>
       <r>  -14.6515    1.0000 </r>
       <r>   -9.9729    1.0000 </r>
       <r>   -9.9117    1.0000 </r>
       <r>   -9.8367    1.0000 </r>
       <r>   -3.0987    1.0000 </r>
       <r>    3.0358    1.0000 </r>
       <r>    3.3907    1.0000 </r>
       <r>    3.7962    1.0000 </r>
       <r>    4.4298    1.0000 </r>
       <r>    4.6144    1.0000 </r>
       <r>    4.9536    1.0000 </r>
       <r>    5.3249    1.0000 </r>
       <r>    6.6078    1.0000 </r>
       <r>    8.6847    0.0000 </r>
       <r>    9.1254    0.0000 </r>
       <r>    9.8541    0.0000 </r>
       <r>    9.9736    0.0000 </r>
       <r>   10.0939    0.0000 </r>
       <r>   10.2272    0.0000 </r>
      </set>
      <set comment="kpoint 82">
       <r>  -31.8692    1.0000 </r>
       <r>  -14.6902    1.0000 </r>
       <r>  -14.6842    1.0000 </r>
       <r>  -14.6591    1.0000 </r>
       <r>  -14.6532    1.0000 </r>
       <r>  -14.6507    1.0000 </r>
       <r>   -9.9803    1.0000 </r>
       <r>   -9.8943    1.0000 </r>
       <r>   -9.8642    1.0000 </r>
       <r>   -3.1917    1.0000 </r>
       <r>    3.3521    1.0000 </r>
       <r>    3.4707    1.0000 </r>
       <r>    3.9228    1.0000 </r>
       <r>    4.3719    1.0000 </r>
       <r>    4.6105    1.0000 </r>
       <r>    4.6785    1.0000 </r>
       <r>    5.5271    1.0000 </r>
       <r>    6.7461    1.0000 </r>
       <r>    8.3848    0.0000 </r>
       <r>    9.4359    0.0000 </r>
       <r>    9.7891    0.0000 </r>
       <r>    9.8937    0.0000 </r>
       <r>   10.0176    0.0000 </r>
       <r>   10.2391    0.0000 </r>
      </set>
      <set comment="kpoint 83">
       <r>  -31.8691    1.0000 </r>
       <r>  -14.6920    1.0000 </r>
       <r>  -14.6842    1.0000 </r>
       <r>  -14.6581    1.0000 </r>
       <r>  -14.6543    1.0000 </r>
       <r>  -14.6507    1.0000 </r>
       <r>   -9.9672    1.0000 </r>
       <r>   -9.9115    1.0000 </r>
       <r>   -9.8600    1.0000 </r>
       <r>   -3.1605    1.0000 </r>
       <r>    3.3747    1.0000 </r>
       <r>    3.4123    1.0000 </r>
       <r>    3.8831    1.0000 </r>
       <r>    4.4091    1.0000 </r>
       <r>    4.6353    1.0000 </r>
       <r>    4.7569    1.0000 </r>
       <r>    5.2393    1.0000 </r>
       <r>    6.7360    1.0000 </r>
       <r>    8.5553    0.0000 </r>
       <r>    9.2897    0.0000 </r>
       <r>    9.8382    0.0000 </r>
       <r>    9.8954    0.0000 </r>
       <r>   10.0555    0.0000 </r>
       <r>   10.2441    0.0000 </r>
      </set>
      <set comment="kpoint 84">
       <r>  -31.8691    1.0000 </r>
       <r>  -14.6931    1.0000 </r>
       <r>  -14.6842    1.0000 </r>
       <r>  -14.6572    1.0000 </r>
       <r>  -14.6553    1.0000 </r>
       <r>  -14.6507    1.0000 </r>
       <r>   -9.9607    1.0000 </r>
       <r>   -9.9156    1.0000 </r>
       <r>   -9.8610    1.0000 </r>
       <r>   -3.1445    1.0000 </r>
       <r>    3.3382    1.0000 </r>
       <r>    3.3879    1.0000 </r>
       <r>    3.8979    1.0000 </r>
       <r>    4.4341    1.0000 </r>
       <r>    4.6620    1.0000 </r>
       <r>    4.8332    1.0000 </r>
       <r>    5.0405    1.0000 </r>
       <r>    6.7579    1.0000 </r>
       <r>    8.7695    0.0000 </r>
       <r>    9.0914    0.0000 </r>
       <r>    9.8197    0.0000 </r>
       <r>    9.8930    0.0000 </r>
       <r>   10.0861    0.0000 </r>
       <r>   10.2231    0.0000 </r>
      </set>
     </set>
    </set>
   </array>
  </eigenvalues>
  <separator name="orbital magnetization" >
   <v name="MAGDIPOLOUT">      0.00000000      0.00000000      0.00000000</v>
  </separator>
  <dos>
   <i name="efermi">      8.25276788 </i>
   <total>
    <array>
     <dimension dim="1">gridpoints</dimension>
     <dimension dim="2">spin</dimension>
     <field>energy</field>
     <field>total</field>
     <field>integrated</field>
     <set>
      <set comment="spin 1">
       <r>   -33.9844     0.0000     0.0000 </r>
       <r>   -33.8297     0.0000     0.0000 </r>
       <r>   -33.6750     0.0000     0.0000 </r>
       <r>   -33.5204     0.0000     0.0000 </r>
       <r>   -33.3657     0.0000     0.0000 </r>
       <r>   -33.2110     0.0000     0.0000 </r>
       <r>   -33.0564     0.0000     0.0000 </r>
       <r>   -32.9017     0.0000     0.0000 </r>
       <r>   -32.7470     0.0000     0.0000 </r>
       <r>   -32.5923     0.0000     0.0000 </r>
       <r>   -32.4377     0.0000     0.0000 </r>
       <r>   -32.2830     0.0000     0.0000 </r>
       <r>   -32.1283     0.0000     0.0000 </r>
       <r>   -31.9737     0.0000     0.0000 </r>
       <r>   -31.8190    12.9306     2.0000 </r>
       <r>   -31.6643     0.0000     2.0000 </r>
       <r>   -31.5096     0.0000     2.0000 </r>
       <r>   -31.3550     0.0000     2.0000 </r>
       <r>   -31.2003     0.0000     2.0000 </r>
       <r>   -31.0456     0.0000     2.0000 </r>
       <r>   -30.8910     0.0000     2.0000 </r>
       <r>   -30.7363     0.0000     2.0000 </r>
       <r>   -30.5816     0.0000     2.0000 </r>
       <r>   -30.4269     0.0000     2.0000 </r>
       <r>   -30.2723     0.0000     2.0000 </r>
       <r>   -30.1176     0.0000     2.0000 </r>
       <r>   -29.9629     0.0000     2.0000 </r>
       <r>   -29.8083     0.0000     2.0000 </r>
       <r>   -29.6536     0.0000     2.0000 </r>
       <r>   -29.4989     0.0000     2.0000 </r>
       <r>   -29.3442     0.0000     2.0000 </r>
       <r>   -29.1896     0.0000     2.0000 </r>
       <r>   -29.0349     0.0000     2.0000 </r>
       <r>   -28.8802     0.0000     2.0000 </r>
       <r>   -28.7256     0.0000     2.0000 </r>
       <r>   -28.5709     0.0000     2.0000 </r>
       <r>   -28.4162     0.0000     2.0000 </r>
       <r>   -28.2615     0.0000     2.0000 </r>
       <r>   -28.1069     0.0000     2.0000 </r>
       <r>   -27.9522     0.0000     2.0000 </r>
       <r>   -27.7975     0.0000     2.0000 </r>
       <r>   -27.6429     0.0000     2.0000 </r>
       <r>   -27.4882     0.0000     2.0000 </r>
       <r>   -27.3335     0.0000     2.0000 </r>
       <r>   -27.1788     0.0000     2.0000 </r>
       <r>   -27.0242     0.0000     2.0000 </r>
       <r>   -26.8695     0.0000     2.0000 </r>
       <r>   -26.7148     0.0000     2.0000 </r>
       <r>   -26.5602     0.0000     2.0000 </r>
       <r>   -26.4055     0.0000     2.0000 </r>
       <r>   -26.2508     0.0000     2.0000 </r>
       <r>   -26.0961     0.0000     2.0000 </r>
       <r>   -25.9415     0.0000     2.0000 </r>
       <r>   -25.7868     0.0000     2.0000 </r>
       <r>   -25.6321     0.0000     2.0000 </r>
       <r>   -25.4774     0.0000     2.0000 </r>
       <r>   -25.3228     0.0000     2.0000 </r>
       <r>   -25.1681     0.0000     2.0000 </r>
       <r>   -25.0134     0.0000     2.0000 </r>
       <r>   -24.8588     0.0000     2.0000 </r>
       <r>   -24.7041     0.0000     2.0000 </r>
       <r>   -24.5494     0.0000     2.0000 </r>
       <r>   -24.3947     0.0000     2.0000 </r>
       <r>   -24.2401     0.0000     2.0000 </r>
       <r>   -24.0854     0.0000     2.0000 </r>
       <r>   -23.9307     0.0000     2.0000 </r>
       <r>   -23.7761     0.0000     2.0000 </r>
       <r>   -23.6214     0.0000     2.0000 </r>
       <r>   -23.4667     0.0000     2.0000 </r>
       <r>   -23.3120     0.0000     2.0000 </r>
       <r>   -23.1574     0.0000     2.0000 </r>
       <r>   -23.0027     0.0000     2.0000 </r>
       <r>   -22.8480     0.0000     2.0000 </r>
       <r>   -22.6934     0.0000     2.0000 </r>
       <r>   -22.5387     0.0000     2.0000 </r>
       <r>   -22.3840     0.0000     2.0000 </r>
       <r>   -22.2293     0.0000     2.0000 </r>
       <r>   -22.0747     0.0000     2.0000 </r>
       <r>   -21.9200     0.0000     2.0000 </r>
       <r>   -21.7653     0.0000     2.0000 </r>
       <r>   -21.6107     0.0000     2.0000 </r>
       <r>   -21.4560     0.0000     2.0000 </r>
       <r>   -21.3013     0.0000     2.0000 </r>
       <r>   -21.1466     0.0000     2.0000 </r>
       <r>   -20.9920     0.0000     2.0000 </r>
       <r>   -20.8373     0.0000     2.0000 </r>
       <r>   -20.6826     0.0000     2.0000 </r>
       <r>   -20.5280     0.0000     2.0000 </r>
       <r>   -20.3733     0.0000     2.0000 </r>
       <r>   -20.2186     0.0000     2.0000 </r>
       <r>   -20.0639     0.0000     2.0000 </r>
       <r>   -19.9093     0.0000     2.0000 </r>
       <r>   -19.7546     0.0000     2.0000 </r>
       <r>   -19.5999     0.0000     2.0000 </r>
       <r>   -19.4453     0.0000     2.0000 </r>
       <r>   -19.2906     0.0000     2.0000 </r>
       <r>   -19.1359     0.0000     2.0000 </r>
       <r>   -18.9812     0.0000     2.0000 </r>
       <r>   -18.8266     0.0000     2.0000 </r>
       <r>   -18.6719     0.0000     2.0000 </r>
       <r>   -18.5172     0.0000     2.0000 </r>
       <r>   -18.3626     0.0000     2.0000 </r>
       <r>   -18.2079     0.0000     2.0000 </r>
       <r>   -18.0532     0.0000     2.0000 </r>
       <r>   -17.8985     0.0000     2.0000 </r>
       <r>   -17.7439     0.0000     2.0000 </r>
       <r>   -17.5892     0.0000     2.0000 </r>
       <r>   -17.4345     0.0000     2.0000 </r>
       <r>   -17.2799     0.0000     2.0000 </r>
       <r>   -17.1252     0.0000     2.0000 </r>
       <r>   -16.9705     0.0000     2.0000 </r>
       <r>   -16.8158     0.0000     2.0000 </r>
       <r>   -16.6612     0.0000     2.0000 </r>
       <r>   -16.5065     0.0000     2.0000 </r>
       <r>   -16.3518     0.0000     2.0000 </r>
       <r>   -16.1972     0.0000     2.0000 </r>
       <r>   -16.0425     0.0000     2.0000 </r>
       <r>   -15.8878     0.0000     2.0000 </r>
       <r>   -15.7331     0.0000     2.0000 </r>
       <r>   -15.5785     0.0000     2.0000 </r>
       <r>   -15.4238     0.0000     2.0000 </r>
       <r>   -15.2691     0.0000     2.0000 </r>
       <r>   -15.1145     0.0000     2.0000 </r>
       <r>   -14.9598     0.0000     2.0000 </r>
       <r>   -14.8051     0.0000     2.0000 </r>
       <r>   -14.6504    53.6579    10.2993 </r>
       <r>   -14.4958     0.0000    12.0000 </r>
       <r>   -14.3411     0.0000    12.0000 </r>
       <r>   -14.1864     0.0000    12.0000 </r>
       <r>   -14.0318     0.0000    12.0000 </r>
       <r>   -13.8771     0.0000    12.0000 </r>
       <r>   -13.7224     0.0000    12.0000 </r>
       <r>   -13.5677     0.0000    12.0000 </r>
       <r>   -13.4131     0.0000    12.0000 </r>
       <r>   -13.2584     0.0000    12.0000 </r>
       <r>   -13.1037     0.0000    12.0000 </r>
       <r>   -12.9491     0.0000    12.0000 </r>
       <r>   -12.7944     0.0000    12.0000 </r>
       <r>   -12.6397     0.0000    12.0000 </r>
       <r>   -12.4850     0.0000    12.0000 </r>
       <r>   -12.3304     0.0000    12.0000 </r>
       <r>   -12.1757     0.0000    12.0000 </r>
       <r>   -12.0210     0.0000    12.0000 </r>
       <r>   -11.8664     0.0000    12.0000 </r>
       <r>   -11.7117     0.0000    12.0000 </r>
       <r>   -11.5570     0.0000    12.0000 </r>
       <r>   -11.4023     0.0000    12.0000 </r>
       <r>   -11.2477     0.0000    12.0000 </r>
       <r>   -11.0930     0.0000    12.0000 </r>
       <r>   -10.9383     0.0000    12.0000 </r>
       <r>   -10.7837     0.0000    12.0000 </r>
       <r>   -10.6290     0.0000    12.0000 </r>
       <r>   -10.4743     0.0000    12.0000 </r>
       <r>   -10.3196     0.0000    12.0000 </r>
       <r>   -10.1650     0.0000    12.0000 </r>
       <r>   -10.0103     2.3385    12.3617 </r>
       <r>    -9.8556    10.8305    15.5013 </r>
       <r>    -9.7010     0.0000    18.0000 </r>
       <r>    -9.5463     0.0000    18.0000 </r>
       <r>    -9.3916     0.0000    18.0000 </r>
       <r>    -9.2369     0.0000    18.0000 </r>
       <r>    -9.0823     0.0000    18.0000 </r>
       <r>    -8.9276     0.0000    18.0000 </r>
       <r>    -8.7729     0.0000    18.0000 </r>
       <r>    -8.6183     0.0000    18.0000 </r>
       <r>    -8.4636     0.0000    18.0000 </r>
       <r>    -8.3089     0.0000    18.0000 </r>
       <r>    -8.1542     0.0000    18.0000 </r>
       <r>    -7.9996     0.0000    18.0000 </r>
       <r>    -7.8449     0.0000    18.0000 </r>
       <r>    -7.6902     0.0000    18.0000 </r>
       <r>    -7.5356     0.0000    18.0000 </r>
       <r>    -7.3809     0.0000    18.0000 </r>
       <r>    -7.2262     0.0000    18.0000 </r>
       <r>    -7.0715     0.0000    18.0000 </r>
       <r>    -6.9169     0.0000    18.0000 </r>
       <r>    -6.7622     0.0000    18.0000 </r>
       <r>    -6.6075     0.0000    18.0000 </r>
       <r>    -6.4529     0.0000    18.0000 </r>
       <r>    -6.2982     0.0000    18.0000 </r>
       <r>    -6.1435     0.0000    18.0000 </r>
       <r>    -5.9888     0.0000    18.0000 </r>
       <r>    -5.8342     0.0000    18.0000 </r>
       <r>    -5.6795     0.0000    18.0000 </r>
       <r>    -5.5248     0.0000    18.0000 </r>
       <r>    -5.3702     0.0000    18.0000 </r>
       <r>    -5.2155     0.0000    18.0000 </r>
       <r>    -5.0608     0.0000    18.0000 </r>
       <r>    -4.9061     0.0000    18.0000 </r>
       <r>    -4.7515     0.0000    18.0000 </r>
       <r>    -4.5968     0.0000    18.0000 </r>
       <r>    -4.4421     0.0000    18.0000 </r>
       <r>    -4.2875     0.0000    18.0000 </r>
       <r>    -4.1328     0.0000    18.0000 </r>
       <r>    -3.9781     0.0000    18.0000 </r>
       <r>    -3.8234     0.0479    18.0074 </r>
       <r>    -3.6688     0.2437    18.0513 </r>
       <r>    -3.5141     0.2844    18.1032 </r>
       <r>    -3.3594     0.4860    18.2290 </r>
       <r>    -3.2048     2.0841    18.6346 </r>
       <r>    -3.0501     3.4130    19.5739 </r>
       <r>    -2.8954     0.8479    19.9928 </r>
       <r>    -2.7407     0.0000    20.0000 </r>
       <r>    -2.5861     0.0000    20.0000 </r>
       <r>    -2.4314     0.0000    20.0000 </r>
       <r>    -2.2767     0.0000    20.0000 </r>
       <r>    -2.1221     0.0000    20.0000 </r>
       <r>    -1.9674     0.0000    20.0000 </r>
       <r>    -1.8127     0.0000    20.0000 </r>
       <r>    -1.6580     0.0000    20.0000 </r>
       <r>    -1.5034     0.0000    20.0000 </r>
       <r>    -1.3487     0.0000    20.0000 </r>
       <r>    -1.1940     0.0000    20.0000 </r>
       <r>    -1.0394     0.0000    20.0000 </r>
       <r>    -0.8847     0.0000    20.0000 </r>
       <r>    -0.7300     0.0000    20.0000 </r>
       <r>    -0.5753     0.0000    20.0000 </r>
       <r>    -0.4207     0.0000    20.0000 </r>
       <r>    -0.2660     0.0000    20.0000 </r>
       <r>    -0.1113     0.0000    20.0000 </r>
       <r>     0.0433     0.0000    20.0000 </r>
       <r>     0.1980     0.0000    20.0000 </r>
       <r>     0.3527     0.0000    20.0000 </r>
       <r>     0.5074     0.0000    20.0000 </r>
       <r>     0.6620     0.0000    20.0000 </r>
       <r>     0.8167     0.0000    20.0000 </r>
       <r>     0.9714     0.0000    20.0000 </r>
       <r>     1.1260     0.0000    20.0000 </r>
       <r>     1.2807     0.0000    20.0000 </r>
       <r>     1.4354     0.0000    20.0000 </r>
       <r>     1.5901     0.0000    20.0000 </r>
       <r>     1.7447     0.0000    20.0000 </r>
       <r>     1.8994     0.0000    20.0000 </r>
       <r>     2.0541     0.0000    20.0000 </r>
       <r>     2.2088     0.0000    20.0000 </r>
       <r>     2.3634     0.1344    20.0208 </r>
       <r>     2.5181     0.4743    20.1243 </r>
       <r>     2.6728     2.3023    20.6328 </r>
       <r>     2.8274     1.1837    21.0716 </r>
       <r>     2.9821     1.2415    21.3827 </r>
       <r>     3.1368     0.6188    21.5431 </r>
       <r>     3.2915     0.3760    21.7805 </r>
       <r>     3.4461     4.2827    22.6032 </r>
       <r>     3.6008     2.8206    23.6716 </r>
       <r>     3.7555     3.3478    24.5451 </r>
       <r>     3.9101     2.9761    25.3433 </r>
       <r>     4.0648     1.5044    25.9678 </r>
       <r>     4.2195     0.2830    26.0711 </r>
       <r>     4.3742     4.9027    26.8803 </r>
       <r>     4.5288     4.3991    28.6759 </r>
       <r>     4.6835     4.8004    30.1763 </r>
       <r>     4.8382     2.2294    30.7800 </r>
       <r>     4.9928     2.1579    31.3879 </r>
       <r>     5.1475     0.8091    31.6545 </r>
       <r>     5.3022     0.7547    31.8828 </r>
       <r>     5.4569     0.2823    32.0664 </r>
       <r>     5.6115     1.3491    32.4007 </r>
       <r>     5.7662     0.9422    32.5854 </r>
       <r>     5.9209     1.5341    32.9118 </r>
       <r>     6.0755     0.7164    33.1568 </r>
       <r>     6.2302     1.4825    33.4519 </r>
       <r>     6.3849     0.2825    33.6168 </r>
       <r>     6.5396     3.5835    34.2912 </r>
       <r>     6.6942     2.9795    35.5960 </r>
       <r>     6.8489     0.7289    35.9252 </r>
       <r>     7.0036     0.2951    35.9710 </r>
       <r>     7.1582     0.1648    35.9982 </r>
       <r>     7.3129     0.0000    36.0009 </r>
       <r>     7.4676     0.0000    36.0082 </r>
       <r>     7.6223     0.0824    36.0282 </r>
       <r>     7.7769     0.0471    36.0464 </r>
       <r>     7.9316     0.6896    36.1859 </r>
       <r>     8.0863     0.7500    36.4009 </r>
       <r>     8.2409     2.0331    36.9599 </r>
       <r>     8.3956     1.6797    37.4296 </r>
       <r>     8.5503     1.0187    37.8626 </r>
       <r>     8.7050     0.7155    38.1462 </r>
       <r>     8.8596     0.5093    38.3054 </r>
       <r>     9.0143     0.4781    38.4026 </r>
       <r>     9.1690     0.9226    38.6844 </r>
       <r>     9.3236     2.4380    39.3011 </r>
       <r>     9.4783     2.2150    40.0740 </r>
       <r>     9.6330     1.8841    40.7002 </r>
       <r>     9.7877     2.7274    41.3549 </r>
       <r>     9.9423     4.9785    42.8119 </r>
       <r>    10.0970    10.7615    45.3086 </r>
       <r>    10.2517     5.6864    47.0088 </r>
       <r>    10.4063     0.0000    48.0000 </r>
       <r>    10.5610     0.0000    48.0000 </r>
       <r>    10.7157     0.0000    48.0000 </r>
       <r>    10.8704     0.0000    48.0000 </r>
       <r>    11.0250     0.0000    48.0000 </r>
       <r>    11.1797     0.0000    48.0000 </r>
       <r>    11.3344     0.0000    48.0000 </r>
       <r>    11.4890     0.0000    48.0000 </r>
       <r>    11.6437     0.0000    48.0000 </r>
       <r>    11.7984     0.0000    48.0000 </r>
       <r>    11.9531     0.0000    48.0000 </r>
       <r>    12.1077     0.0000    48.0000 </r>
       <r>    12.2624     0.0000    48.0000 </r>
       <r>    12.4171     0.0000    48.0000 </r>
      </set>
     </set>
    </array>
   </total>
  </dos>
 </calculation>
 <structure name="finalpos" >
  <crystal>
   <varray name="basis" >
    <v>       0.00000000       3.44754085       3.44754085 </v>
    <v>       3.44754085       0.00000000       3.44754085 </v>
    <v>       3.44754085       3.44754085       0.00000000 </v>
   </varray>
   <i name="volume">     81.95175470 </i>
   <varray name="rec_basis" >
    <v>      -0.14503091       0.14503091       0.14503091 </v>
    <v>       0.14503091      -0.14503091       0.14503091 </v>
    <v>       0.14503091       0.14503091      -0.14503091 </v>
   </varray>
  </crystal>
  <varray name="positions" >
   <v>       0.25000000       0.25000000       0.25000000 </v>
   <v>       0.75000000       0.75000000       0.75000000 </v>
   <v>       0.00000000       0.00000000       0.00000000 </v>
  </varray>
 </structure>
</modeling>
