       N       E                     dE             d eps       ncg     rms          rms(c)
DAV:   1     0.107833412548E+03    0.10783E+03   -0.62026E+03 28648   0.648E+02
DAV:   2     0.345056084457E+00   -0.10749E+03   -0.94988E+02 25856   0.188E+02
DAV:   3    -0.698107991131E+01   -0.73261E+01   -0.71070E+01 30872   0.434E+01
DAV:   4    -0.703799152534E+01   -0.56912E-01   -0.56870E-01 28632   0.384E+00
DAV:   5    -0.703808933436E+01   -0.97809E-04   -0.97821E-04 30216   0.155E-01    0.241E+01
DAV:   6    -0.110106185052E+02   -0.39725E+01   -0.25375E+01 28568   0.515E+01    0.213E+01
DAV:   7    -0.905015163490E+01    0.19605E+01   -0.41940E+00 28440   0.324E+01    0.922E+00
DAV:   8    -0.992638080337E+01   -0.87623E+00   -0.65608E-01 27808   0.886E+00    0.697E+00
DAV:   9    -0.101108480592E+02   -0.18447E+00   -0.11070E-01 28280   0.732E+00    0.276E+00
DAV:  10    -0.101365207090E+02   -0.25673E-01   -0.54386E-02 29736   0.393E+00    0.746E-01
DAV:  11    -0.101359593252E+02    0.56138E-03   -0.13656E-02 28080   0.112E+00    0.285E-01
DAV:  12    -0.101365018821E+02   -0.54256E-03   -0.12835E-03 29640   0.323E-01    0.144E-01
DAV:  13    -0.101367148276E+02   -0.21295E-03   -0.30049E-04 29352   0.243E-01    0.822E-02
DAV:  14    -0.101367175020E+02   -0.26744E-05   -0.51789E-05 30544   0.716E-02    0.255E-02
DAV:  15    -0.101367254557E+02   -0.79537E-05   -0.72676E-06 29760   0.460E-02    0.165E-02
DAV:  16    -0.101367262801E+02   -0.82438E-06   -0.12193E-06 31904   0.366E-02    0.626E-03
DAV:  17    -0.101367264106E+02   -0.13054E-06   -0.57548E-07 30744   0.112E-02    0.264E-03
DAV:  18    -0.101367266523E+02   -0.24170E-06   -0.21853E-07 28456   0.401E-03    0.246E-03
DAV:  19    -0.101367265970E+02    0.55347E-07   -0.44093E-08 23096   0.463E-03
   1 F= -.10136727E+02 E0= -.10136727E+02  d E =0.000000E+00  mag=     2.0000
