   2   2   0   0
  0.2312162E+02  0.4028912E-09  0.4028912E-09  0.4028912E-09  0.1000000E-15
   1.0000000000000000E-004
  CAR 
 unknown system                          
     21.31822660    -23.86180606  301     -0.65056428      1.00000000
    -23.862  0.0000E+00  0.0000E+00
    -23.711  0.0000E+00  0.0000E+00
    -23.561  0.0000E+00  0.0000E+00
    -23.410  0.0000E+00  0.0000E+00
    -23.259  0.0000E+00  0.0000E+00
    -23.109  0.0000E+00  0.0000E+00
    -22.958  0.0000E+00  0.0000E+00
    -22.808  0.0000E+00  0.0000E+00
    -22.657  0.0000E+00  0.0000E+00
    -22.506  0.0000E+00  0.0000E+00
    -22.356  0.0000E+00  0.0000E+00
    -22.205  0.0000E+00  0.0000E+00
    -22.055  0.9787E-13  0.1474E-13
    -21.904  0.6239E-03  0.9396E-04
    -21.753  0.5704E+00  0.8600E-01
    -21.603  0.9297E-01  0.1000E+00
    -21.452  0.4058E-07  0.1000E+00
    -21.302  0.0000E+00  0.1000E+00
    -21.151  0.0000E+00  0.1000E+00
    -21.000  0.0000E+00  0.1000E+00
    -20.850  0.0000E+00  0.1000E+00
    -20.699  0.0000E+00  0.1000E+00
    -20.549  0.0000E+00  0.1000E+00
    -20.398  0.0000E+00  0.1000E+00
    -20.247  0.0000E+00  0.1000E+00
    -20.097  0.0000E+00  0.1000E+00
    -19.946  0.0000E+00  0.1000E+00
    -19.796  0.0000E+00  0.1000E+00
    -19.645  0.0000E+00  0.1000E+00
    -19.494  0.0000E+00  0.1000E+00
    -19.344  0.0000E+00  0.1000E+00
    -19.193  0.0000E+00  0.1000E+00
    -19.043  0.0000E+00  0.1000E+00
    -18.892  0.0000E+00  0.1000E+00
    -18.741  0.0000E+00  0.1000E+00
    -18.591  0.0000E+00  0.1000E+00
    -18.440  0.0000E+00  0.1000E+00
    -18.290  0.0000E+00  0.1000E+00
    -18.139  0.0000E+00  0.1000E+00
    -17.988  0.0000E+00  0.1000E+00
    -17.838  0.0000E+00  0.1000E+00
    -17.687  0.0000E+00  0.1000E+00
    -17.537  0.0000E+00  0.1000E+00
    -17.386  0.0000E+00  0.1000E+00
    -17.235  0.0000E+00  0.1000E+00
    -17.085  0.0000E+00  0.1000E+00
    -16.934  0.0000E+00  0.1000E+00
    -16.784  0.0000E+00  0.1000E+00
    -16.633  0.0000E+00  0.1000E+00
    -16.482  0.0000E+00  0.1000E+00
    -16.332  0.0000E+00  0.1000E+00
    -16.181  0.0000E+00  0.1000E+00
    -16.031  0.0000E+00  0.1000E+00
    -15.880  0.0000E+00  0.1000E+00
    -15.729  0.0000E+00  0.1000E+00
    -15.579  0.0000E+00  0.1000E+00
    -15.428  0.0000E+00  0.1000E+00
    -15.278  0.0000E+00  0.1000E+00
    -15.127  0.0000E+00  0.1000E+00
    -14.976  0.0000E+00  0.1000E+00
    -14.826  0.0000E+00  0.1000E+00
    -14.675  0.0000E+00  0.1000E+00
    -14.525  0.0000E+00  0.1000E+00
    -14.374  0.0000E+00  0.1000E+00
    -14.223  0.0000E+00  0.1000E+00
    -14.073  0.0000E+00  0.1000E+00
    -13.922  0.0000E+00  0.1000E+00
    -13.772  0.3971E-18  0.1000E+00
    -13.621  0.5870E-07  0.1000E+00
    -13.470  0.1965E-02  0.1003E+00
    -13.320  0.2547E-01  0.1041E+00
    -13.169  0.1146E+00  0.1214E+00
    -13.019  0.7926E-01  0.1333E+00
    -12.868  0.1646E-04  0.1333E+00
    -12.717  0.0000E+00  0.1333E+00
    -12.567  0.0000E+00  0.1333E+00
    -12.416  0.0000E+00  0.1333E+00
    -12.266  0.0000E+00  0.1333E+00
    -12.115  0.0000E+00  0.1333E+00
    -11.964  0.0000E+00  0.1333E+00
    -11.814  0.0000E+00  0.1333E+00
    -11.663  0.0000E+00  0.1333E+00
    -11.513  0.0000E+00  0.1333E+00
    -11.362  0.0000E+00  0.1333E+00
    -11.211  0.0000E+00  0.1333E+00
    -11.061  0.0000E+00  0.1333E+00
    -10.910  0.0000E+00  0.1333E+00
    -10.760  0.0000E+00  0.1333E+00
    -10.609  0.0000E+00  0.1333E+00
    -10.458  0.0000E+00  0.1333E+00
    -10.308  0.0000E+00  0.1333E+00
    -10.157  0.0000E+00  0.1333E+00
    -10.007  0.0000E+00  0.1333E+00
     -9.856  0.0000E+00  0.1333E+00
     -9.705  0.0000E+00  0.1333E+00
     -9.555  0.0000E+00  0.1333E+00
     -9.404  0.0000E+00  0.1333E+00
     -9.254  0.0000E+00  0.1333E+00
     -9.103  0.0000E+00  0.1333E+00
     -8.952  0.0000E+00  0.1333E+00
     -8.802  0.0000E+00  0.1333E+00
     -8.651  0.0000E+00  0.1333E+00
     -8.501  0.0000E+00  0.1333E+00
     -8.350  0.0000E+00  0.1333E+00
     -8.199  0.0000E+00  0.1333E+00
     -8.049  0.0000E+00  0.1333E+00
     -7.898  0.0000E+00  0.1333E+00
     -7.748  0.0000E+00  0.1333E+00
     -7.597  0.0000E+00  0.1333E+00
     -7.446  0.0000E+00  0.1333E+00
     -7.296  0.0000E+00  0.1333E+00
     -7.145  0.0000E+00  0.1333E+00
     -6.995  0.0000E+00  0.1333E+00
     -6.844  0.0000E+00  0.1333E+00
     -6.693  0.0000E+00  0.1333E+00
     -6.543  0.0000E+00  0.1333E+00
     -6.392  0.0000E+00  0.1333E+00
     -6.242  0.0000E+00  0.1333E+00
     -6.091  0.0000E+00  0.1333E+00
     -5.940  0.0000E+00  0.1333E+00
     -5.790  0.0000E+00  0.1333E+00
     -5.639  0.0000E+00  0.1333E+00
     -5.489  0.0000E+00  0.1333E+00
     -5.338  0.0000E+00  0.1333E+00
     -5.187  0.0000E+00  0.1333E+00
     -5.037  0.0000E+00  0.1333E+00
     -4.886  0.0000E+00  0.1333E+00
     -4.736  0.0000E+00  0.1333E+00
     -4.585  0.0000E+00  0.1333E+00
     -4.434  0.0000E+00  0.1333E+00
     -4.284  0.0000E+00  0.1333E+00
     -4.133  0.0000E+00  0.1333E+00
     -3.983  0.0000E+00  0.1333E+00
     -3.832  0.0000E+00  0.1333E+00
     -3.681  0.0000E+00  0.1333E+00
     -3.531  0.0000E+00  0.1333E+00
     -3.380  0.0000E+00  0.1333E+00
     -3.230  0.0000E+00  0.1333E+00
     -3.079  0.0000E+00  0.1333E+00
     -2.928  0.9698E-12  0.1333E+00
     -2.778  0.6724E-04  0.1333E+00
     -2.627  0.7651E-02  0.1345E+00
     -2.477  0.2394E-01  0.1381E+00
     -2.326  0.6867E-01  0.1484E+00
     -2.175  0.6761E-01  0.1586E+00
     -2.025  0.2590E-01  0.1625E+00
     -1.874  0.2965E-01  0.1670E+00
     -1.724  0.3472E-01  0.1722E+00
     -1.573  0.4732E-01  0.1793E+00
     -1.422  0.7732E-01  0.1910E+00
     -1.272  0.1066E+00  0.2070E+00
     -1.121  0.1085E+00  0.2234E+00
     -0.971  0.5606E-01  0.2318E+00
     -0.820  0.9995E-02  0.2333E+00
     -0.669  0.8350E-05  0.2333E+00
     -0.519  0.4496E-14  0.2333E+00
     -0.368  0.0000E+00  0.2333E+00
     -0.218  0.0000E+00  0.2333E+00
     -0.067  0.0000E+00  0.2333E+00
      0.084  0.0000E+00  0.2333E+00
      0.234  0.0000E+00  0.2333E+00
      0.385  0.0000E+00  0.2333E+00
      0.535  0.0000E+00  0.2333E+00
      0.686  0.0000E+00  0.2333E+00
      0.837  0.0000E+00  0.2333E+00
      0.987  0.0000E+00  0.2333E+00
      1.138  0.0000E+00  0.2333E+00
      1.288  0.0000E+00  0.2333E+00
      1.439  0.0000E+00  0.2333E+00
      1.590  0.0000E+00  0.2333E+00
      1.740  0.0000E+00  0.2333E+00
      1.891  0.0000E+00  0.2333E+00
      2.041  0.0000E+00  0.2333E+00
      2.192  0.0000E+00  0.2333E+00
      2.343  0.0000E+00  0.2333E+00
      2.493  0.0000E+00  0.2333E+00
      2.644  0.0000E+00  0.2333E+00
      2.794  0.0000E+00  0.2333E+00
      2.945  0.0000E+00  0.2333E+00
      3.096  0.0000E+00  0.2333E+00
      3.246  0.0000E+00  0.2333E+00
      3.397  0.0000E+00  0.2333E+00
      3.547  0.0000E+00  0.2333E+00
      3.698  0.0000E+00  0.2333E+00
      3.849  0.7003E-15  0.2333E+00
      3.999  0.6268E-06  0.2333E+00
      4.150  0.9624E-04  0.2333E+00
      4.300  0.6124E-03  0.2334E+00
      4.451  0.8010E-03  0.2336E+00
      4.602  0.8886E-03  0.2337E+00
      4.752  0.1899E-02  0.2340E+00
      4.903  0.1646E-02  0.2342E+00
      5.053  0.6086E-03  0.2343E+00
      5.204  0.4087E-02  0.2349E+00
      5.355  0.2741E-02  0.2353E+00
      5.505  0.2865E-02  0.2358E+00
      5.656  0.1240E-02  0.2360E+00
      5.806  0.7502E-02  0.2371E+00
      5.957  0.5089E-02  0.2379E+00
      6.108  0.3953E-02  0.2385E+00
      6.258  0.6385E-02  0.2394E+00
      6.409  0.1398E-01  0.2415E+00
      6.559  0.1323E-01  0.2435E+00
      6.710  0.1608E-01  0.2459E+00
      6.861  0.1839E-01  0.2487E+00
      7.011  0.2278E-01  0.2521E+00
      7.162  0.1669E-01  0.2547E+00
      7.312  0.2517E-01  0.2584E+00
      7.463  0.1921E-01  0.2613E+00
      7.614  0.2055E-01  0.2644E+00
      7.764  0.2698E-01  0.2685E+00
      7.915  0.1189E-01  0.2703E+00
      8.065  0.2080E-01  0.2734E+00
      8.216  0.1734E-01  0.2760E+00
      8.367  0.3688E-01  0.2816E+00
      8.517  0.1849E-01  0.2844E+00
      8.668  0.3029E-01  0.2889E+00
      8.818  0.3193E-01  0.2937E+00
      8.969  0.3926E-01  0.2997E+00
      9.120  0.4114E-01  0.3058E+00
      9.270  0.4155E-01  0.3121E+00
      9.421  0.3011E-01  0.3166E+00
      9.571  0.3431E-01  0.3218E+00
      9.722  0.1152E-01  0.3235E+00
      9.873  0.2201E-01  0.3269E+00
     10.023  0.1096E-01  0.3285E+00
     10.174  0.1842E-01  0.3313E+00
     10.324  0.1540E-01  0.3336E+00
     10.475  0.3198E-01  0.3384E+00
     10.626  0.2078E-01  0.3415E+00
     10.776  0.3225E-01  0.3464E+00
     10.927  0.3001E-01  0.3509E+00
     11.077  0.3023E-01  0.3555E+00
     11.228  0.1996E-01  0.3585E+00
     11.379  0.2186E-01  0.3618E+00
     11.529  0.1874E-01  0.3646E+00
     11.680  0.1222E-01  0.3664E+00
     11.830  0.1265E-01  0.3683E+00
     11.981  0.1645E-01  0.3708E+00
     12.132  0.1379E-01  0.3729E+00
     12.282  0.1367E-01  0.3750E+00
     12.433  0.1202E-01  0.3768E+00
     12.583  0.2012E-01  0.3798E+00
     12.734  0.1695E-01  0.3823E+00
     12.885  0.2252E-01  0.3857E+00
     13.035  0.3745E-01  0.3914E+00
     13.186  0.2961E-01  0.3958E+00
     13.336  0.1404E-01  0.3979E+00
     13.487  0.2159E-01  0.4012E+00
     13.638  0.1503E-01  0.4035E+00
     13.788  0.1697E-01  0.4060E+00
     13.939  0.2638E-01  0.4100E+00
     14.089  0.9912E-02  0.4115E+00
     14.240  0.1055E-01  0.4131E+00
     14.391  0.1857E-01  0.4159E+00
     14.541  0.2717E-01  0.4200E+00
     14.692  0.2832E-01  0.4242E+00
     14.842  0.3884E-01  0.4301E+00
     14.993  0.1787E-01  0.4328E+00
     15.144  0.1976E-01  0.4357E+00
     15.294  0.2232E-01  0.4391E+00
     15.445  0.2024E-01  0.4422E+00
     15.595  0.3011E-01  0.4467E+00
     15.746  0.3431E-01  0.4519E+00
     15.897  0.3762E-01  0.4575E+00
     16.047  0.3447E-01  0.4627E+00
     16.198  0.3356E-01  0.4678E+00
     16.348  0.2102E-01  0.4709E+00
     16.499  0.3646E-01  0.4764E+00
     16.650  0.2568E-01  0.4803E+00
     16.800  0.2507E-01  0.4841E+00
     16.951  0.2275E-01  0.4875E+00
     17.101  0.4891E-01  0.4949E+00
     17.252  0.2328E-01  0.4984E+00
     17.403  0.2938E-01  0.5028E+00
     17.553  0.2113E-01  0.5060E+00
     17.704  0.3083E-01  0.5106E+00
     17.854  0.2951E-01  0.5151E+00
     18.005  0.2995E-01  0.5196E+00
     18.156  0.2772E-01  0.5237E+00
     18.306  0.2990E-01  0.5282E+00
     18.457  0.1515E-01  0.5305E+00
     18.607  0.1059E-01  0.5321E+00
     18.758  0.4750E-02  0.5328E+00
     18.909  0.7809E-04  0.5329E+00
     19.059  0.2333E-02  0.5332E+00
     19.210  0.1066E-03  0.5332E+00
     19.360  0.7543E-03  0.5333E+00
     19.511  0.2706E-05  0.5333E+00
     19.662  0.1275E-14  0.5333E+00
     19.812  0.0000E+00  0.5333E+00
     19.963  0.0000E+00  0.5333E+00
     20.113  0.0000E+00  0.5333E+00
     20.264  0.0000E+00  0.5333E+00
     20.415  0.0000E+00  0.5333E+00
     20.565  0.0000E+00  0.5333E+00
     20.716  0.0000E+00  0.5333E+00
     20.866  0.0000E+00  0.5333E+00
     21.017  0.0000E+00  0.5333E+00
     21.168  0.0000E+00  0.5333E+00
     21.318  0.0000E+00  0.5333E+00
