   2   2   0   0
  0.2355867E+02  0.4054139E-09  0.4054139E-09  0.4054139E-09  0.1000000E-16
  1.000000000000000E-004
  CAR 
 unknown system                          
     19.92177168     -9.39789691  301      3.71043825      1.00000000
     -9.398  0.0000E+00  0.0000E+00
     -9.300  0.0000E+00  0.0000E+00
     -9.202  0.0000E+00  0.0000E+00
     -9.105  0.0000E+00  0.0000E+00
     -9.007  0.0000E+00  0.0000E+00
     -8.909  0.0000E+00  0.0000E+00
     -8.812  0.0000E+00  0.0000E+00
     -8.714  0.0000E+00  0.0000E+00
     -8.616  0.0000E+00  0.0000E+00
     -8.518  0.0000E+00  0.0000E+00
     -8.421  0.0000E+00  0.0000E+00
     -8.323  0.0000E+00  0.0000E+00
     -8.225  0.0000E+00  0.0000E+00
     -8.127  0.0000E+00  0.0000E+00
     -8.030  0.5609E-03  0.5482E-04
     -7.932  0.2216E-02  0.2883E-03
     -7.834  0.4306E-02  0.7316E-03
     -7.736  0.4492E-02  0.1247E-02
     -7.639  0.3970E-02  0.1741E-02
     -7.541  0.5885E-02  0.2540E-02
     -7.443  0.8964E-02  0.3443E-02
     -7.346  0.8258E-02  0.4273E-02
     -7.248  0.8175E-02  0.5297E-02
     -7.150  0.1105E-01  0.6564E-02
     -7.052  0.9596E-02  0.7797E-02
     -6.955  0.1313E-01  0.9462E-02
     -6.857  0.1608E-01  0.1119E-01
     -6.759  0.1818E-01  0.1339E-01
     -6.661  0.2826E-01  0.1648E-01
     -6.564  0.2262E-01  0.1934E-01
     -6.466  0.2761E-01  0.2235E-01
     -6.368  0.2630E-01  0.2566E-01
     -6.270  0.2817E-01  0.2937E-01
     -6.173  0.2902E-01  0.3278E-01
     -6.075  0.0000E+00  0.3279E-01
     -5.977  0.0000E+00  0.3279E-01
     -5.880  0.0000E+00  0.3279E-01
     -5.782  0.0000E+00  0.3279E-01
     -5.684  0.0000E+00  0.3279E-01
     -5.586  0.0000E+00  0.3279E-01
     -5.489  0.0000E+00  0.3279E-01
     -5.391  0.0000E+00  0.3279E-01
     -5.293  0.0000E+00  0.3279E-01
     -5.195  0.0000E+00  0.3279E-01
     -5.098  0.0000E+00  0.3279E-01
     -5.000  0.0000E+00  0.3279E-01
     -4.902  0.0000E+00  0.3279E-01
     -4.804  0.0000E+00  0.3279E-01
     -4.707  0.0000E+00  0.3279E-01
     -4.609  0.0000E+00  0.3279E-01
     -4.511  0.0000E+00  0.3279E-01
     -4.414  0.0000E+00  0.3279E-01
     -4.316  0.0000E+00  0.3279E-01
     -4.218  0.0000E+00  0.3279E-01
     -4.120  0.0000E+00  0.3279E-01
     -4.023  0.0000E+00  0.3279E-01
     -3.925  0.0000E+00  0.3279E-01
     -3.827  0.0000E+00  0.3279E-01
     -3.729  0.0000E+00  0.3279E-01
     -3.632  0.0000E+00  0.3279E-01
     -3.534  0.0000E+00  0.3279E-01
     -3.436  0.0000E+00  0.3279E-01
     -3.338  0.0000E+00  0.3279E-01
     -3.241  0.0000E+00  0.3279E-01
     -3.143  0.0000E+00  0.3279E-01
     -3.045  0.0000E+00  0.3279E-01
     -2.948  0.0000E+00  0.3279E-01
     -2.850  0.0000E+00  0.3279E-01
     -2.752  0.0000E+00  0.3279E-01
     -2.654  0.0000E+00  0.3279E-01
     -2.557  0.0000E+00  0.3279E-01
     -2.459  0.0000E+00  0.3279E-01
     -2.361  0.0000E+00  0.3279E-01
     -2.263  0.0000E+00  0.3279E-01
     -2.166  0.0000E+00  0.3279E-01
     -2.068  0.0000E+00  0.3279E-01
     -1.970  0.0000E+00  0.3279E-01
     -1.873  0.0000E+00  0.3279E-01
     -1.775  0.1010E-02  0.3289E-01
     -1.677  0.5988E-02  0.3353E-01
     -1.579  0.1346E-01  0.3526E-01
     -1.482  0.2270E-01  0.3817E-01
     -1.384  0.5596E-01  0.4438E-01
     -1.286  0.2112E-01  0.4778E-01
     -1.188  0.2135E-01  0.5061E-01
     -1.091  0.1119E-01  0.5191E-01
     -0.993  0.1724E-01  0.5369E-01
     -0.895  0.1226E-01  0.5489E-01
     -0.797  0.4579E-02  0.5552E-01
     -0.700  0.1189E-01  0.5681E-01
     -0.602  0.9824E-03  0.5700E-01
     -0.504  0.1081E-01  0.5808E-01
     -0.407  0.6268E-02  0.5871E-01
     -0.309  0.4696E-02  0.5921E-01
     -0.211  0.4695E-02  0.5967E-01
     -0.113  0.5907E-02  0.6025E-01
     -0.016  0.3572E-02  0.6071E-01
      0.082  0.2517E-02  0.6106E-01
      0.180  0.1564E-02  0.6143E-01
      0.278  0.6242E-02  0.6204E-01
      0.375  0.1387E-01  0.6373E-01
      0.473  0.1899E-01  0.6572E-01
      0.571  0.1972E-01  0.6815E-01
      0.669  0.1244E-01  0.6973E-01
      0.766  0.7895E-02  0.7129E-01
      0.864  0.2280E-01  0.7372E-01
      0.962  0.1899E-01  0.7569E-01
      1.059  0.1234E-01  0.7713E-01
      1.157  0.1828E-01  0.7909E-01
      1.255  0.2162E-01  0.8148E-01
      1.353  0.1577E-01  0.8332E-01
      1.450  0.2484E-01  0.8587E-01
      1.548  0.2998E-01  0.8941E-01
      1.646  0.1401E-01  0.9140E-01
      1.744  0.2600E-01  0.9424E-01
      1.841  0.2906E-01  0.9799E-01
      1.939  0.1480E-01  0.1003E+00
      2.037  0.2285E-01  0.1029E+00
      2.135  0.2477E-01  0.1061E+00
      2.232  0.1228E-01  0.1081E+00
      2.330  0.3232E-01  0.1117E+00
      2.428  0.1799E-01  0.1136E+00
      2.525  0.2501E-01  0.1165E+00
      2.623  0.1650E-01  0.1189E+00
      2.721  0.2372E-01  0.1216E+00
      2.819  0.1826E-01  0.1236E+00
      2.916  0.1695E-01  0.1256E+00
      3.014  0.1096E-01  0.1268E+00
      3.112  0.8600E-02  0.1280E+00
      3.210  0.1031E-01  0.1290E+00
      3.307  0.8044E-02  0.1300E+00
      3.405  0.6306E-02  0.1306E+00
      3.503  0.2446E-02  0.1310E+00
      3.600  0.1027E-02  0.1311E+00
      3.698  0.4891E-04  0.1311E+00
      3.796  0.0000E+00  0.1311E+00
      3.894  0.0000E+00  0.1311E+00
      3.991  0.0000E+00  0.1311E+00
      4.089  0.0000E+00  0.1311E+00
      4.187  0.0000E+00  0.1311E+00
      4.285  0.0000E+00  0.1311E+00
      4.382  0.0000E+00  0.1311E+00
      4.480  0.0000E+00  0.1311E+00
      4.578  0.0000E+00  0.1311E+00
      4.676  0.0000E+00  0.1311E+00
      4.773  0.0000E+00  0.1311E+00
      4.871  0.0000E+00  0.1311E+00
      4.969  0.0000E+00  0.1311E+00
      5.066  0.2143E-06  0.1311E+00
      5.164  0.4848E-03  0.1312E+00
      5.262  0.1467E-02  0.1314E+00
      5.360  0.1628E-02  0.1315E+00
      5.457  0.2643E-02  0.1319E+00
      5.555  0.4381E-02  0.1323E+00
      5.653  0.4585E-02  0.1328E+00
      5.751  0.8248E-02  0.1337E+00
      5.848  0.8577E-02  0.1346E+00
      5.946  0.7090E-02  0.1355E+00
      6.044  0.1124E-01  0.1369E+00
      6.142  0.1432E-01  0.1385E+00
      6.239  0.1202E-01  0.1399E+00
      6.337  0.1750E-01  0.1423E+00
      6.435  0.1550E-01  0.1447E+00
      6.532  0.1756E-01  0.1471E+00
      6.630  0.2489E-01  0.1502E+00
      6.728  0.2658E-01  0.1534E+00
      6.826  0.1911E-01  0.1558E+00
      6.923  0.1719E-01  0.1577E+00
      7.021  0.2665E-01  0.1607E+00
      7.119  0.1356E-01  0.1623E+00
      7.217  0.2394E-01  0.1649E+00
      7.314  0.7205E-02  0.1657E+00
      7.412  0.1913E-01  0.1680E+00
      7.510  0.1101E-01  0.1695E+00
      7.608  0.1413E-01  0.1711E+00
      7.705  0.2942E-02  0.1714E+00
      7.803  0.1458E-01  0.1734E+00
      7.901  0.2242E-01  0.1760E+00
      7.998  0.3135E-01  0.1798E+00
      8.096  0.2106E-01  0.1827E+00
      8.194  0.4252E-01  0.1871E+00
      8.292  0.1894E-01  0.1896E+00
      8.389  0.1332E-01  0.1913E+00
      8.487  0.1975E-01  0.1936E+00
      8.585  0.1398E-01  0.1952E+00
      8.683  0.2014E-01  0.1978E+00
      8.780  0.2796E-01  0.2010E+00
      8.878  0.1770E-01  0.2032E+00
      8.976  0.2030E-01  0.2056E+00
      9.073  0.1551E-01  0.2081E+00
      9.171  0.1916E-01  0.2102E+00
      9.269  0.2137E-01  0.2128E+00
      9.367  0.2294E-01  0.2157E+00
      9.464  0.2172E-01  0.2179E+00
      9.562  0.2558E-01  0.2211E+00
      9.660  0.1915E-01  0.2234E+00
      9.758  0.6827E-02  0.2244E+00
      9.855  0.1334E-01  0.2258E+00
      9.953  0.1536E-01  0.2279E+00
     10.051  0.2219E-01  0.2307E+00
     10.149  0.1185E-01  0.2322E+00
     10.246  0.9457E-02  0.2338E+00
     10.344  0.1395E-01  0.2355E+00
     10.442  0.6792E-02  0.2361E+00
     10.539  0.1605E-01  0.2386E+00
     10.637  0.1147E-01  0.2404E+00
     10.735  0.1853E-01  0.2427E+00
     10.833  0.1559E-01  0.2445E+00
     10.930  0.1208E-01  0.2459E+00
     11.028  0.1746E-01  0.2477E+00
     11.126  0.1472E-01  0.2494E+00
     11.224  0.3166E-01  0.2527E+00
     11.321  0.2171E-01  0.2551E+00
     11.419  0.2981E-01  0.2586E+00
     11.517  0.1933E-01  0.2606E+00
     11.615  0.1433E-01  0.2621E+00
     11.712  0.1592E-01  0.2640E+00
     11.810  0.1286E-01  0.2654E+00
     11.908  0.1659E-01  0.2674E+00
     12.005  0.7986E-02  0.2683E+00
     12.103  0.1778E-01  0.2705E+00
     12.201  0.1887E-01  0.2727E+00
     12.299  0.1721E-01  0.2746E+00
     12.396  0.2512E-01  0.2775E+00
     12.494  0.2108E-01  0.2799E+00
     12.592  0.1259E-01  0.2813E+00
     12.690  0.1457E-01  0.2835E+00
     12.787  0.2011E-01  0.2856E+00
     12.885  0.2435E-01  0.2886E+00
     12.983  0.8967E-02  0.2903E+00
     13.081  0.1911E-01  0.2925E+00
     13.178  0.1849E-01  0.2948E+00
     13.276  0.2425E-01  0.2976E+00
     13.374  0.2394E-01  0.3002E+00
     13.471  0.1746E-01  0.3025E+00
     13.569  0.1553E-01  0.3044E+00
     13.667  0.1832E-01  0.3066E+00
     13.765  0.2661E-01  0.3095E+00
     13.862  0.9639E-02  0.3112E+00
     13.960  0.1522E-01  0.3130E+00
     14.058  0.1719E-01  0.3156E+00
     14.156  0.1028E-01  0.3166E+00
     14.253  0.1469E-01  0.3186E+00
     14.351  0.1843E-01  0.3209E+00
     14.449  0.2273E-01  0.3235E+00
     14.546  0.1530E-01  0.3252E+00
     14.644  0.1973E-01  0.3273E+00
     14.742  0.2018E-01  0.3294E+00
     14.840  0.1829E-01  0.3314E+00
     14.937  0.1899E-01  0.3334E+00
     15.035  0.2690E-01  0.3364E+00
     15.133  0.2004E-01  0.3386E+00
     15.231  0.2128E-01  0.3413E+00
     15.328  0.1780E-01  0.3431E+00
     15.426  0.1124E-01  0.3444E+00
     15.524  0.1110E-01  0.3459E+00
     15.622  0.1016E-01  0.3471E+00
     15.719  0.1865E-01  0.3492E+00
     15.817  0.1152E-01  0.3505E+00
     15.915  0.2035E-01  0.3527E+00
     16.012  0.1459E-01  0.3551E+00
     16.110  0.2058E-01  0.3572E+00
     16.208  0.3047E-01  0.3613E+00
     16.306  0.1973E-01  0.3636E+00
     16.403  0.3199E-01  0.3670E+00
     16.501  0.1248E-01  0.3685E+00
     16.599  0.2174E-01  0.3718E+00
     16.697  0.1774E-01  0.3740E+00
     16.794  0.1124E-01  0.3755E+00
     16.892  0.2064E-01  0.3779E+00
     16.990  0.4453E-02  0.3789E+00
     17.088  0.1009E-01  0.3801E+00
     17.185  0.1937E-01  0.3822E+00
     17.283  0.1628E-01  0.3842E+00
     17.381  0.1091E-01  0.3856E+00
     17.478  0.1332E-01  0.3870E+00
     17.576  0.9751E-02  0.3881E+00
     17.674  0.6375E-02  0.3889E+00
     17.772  0.8774E-02  0.3899E+00
     17.869  0.4554E-02  0.3906E+00
     17.967  0.1174E-01  0.3920E+00
     18.065  0.2289E-02  0.3923E+00
     18.163  0.6603E-03  0.3925E+00
     18.260  0.2802E-03  0.3928E+00
     18.358  0.3339E-02  0.3934E+00
     18.456  0.0000E+00  0.3934E+00
     18.554  0.1470E-09  0.3934E+00
     18.651  0.5869E-03  0.3934E+00
     18.749  0.0000E+00  0.3934E+00
     18.847  0.0000E+00  0.3934E+00
     18.944  0.0000E+00  0.3934E+00
     19.042  0.0000E+00  0.3934E+00
     19.140  0.0000E+00  0.3934E+00
     19.238  0.0000E+00  0.3934E+00
     19.335  0.0000E+00  0.3934E+00
     19.433  0.0000E+00  0.3934E+00
     19.531  0.0000E+00  0.3934E+00
     19.629  0.0000E+00  0.3934E+00
     19.726  0.0000E+00  0.3934E+00
     19.824  0.0000E+00  0.3934E+00
     19.922  0.0000E+00  0.3934E+00
