    2    2   61    1
  0.2355867E+02  0.4054139E-09  0.4054139E-09  0.4054139E-09  0.1000000E-16
  1.000000000000000E-004
  CAR 
 unknown system                          
      8    220     12
 
  0.0000000E+00  0.0000000E+00  0.0000000E+00  0.1457938E-03
    1       -8.065185   1.000000
    2        3.519116   1.000000
    3        3.574830   1.000000
    4        3.628274   1.000000
    5        5.357908   0.000000
    6        7.767609   0.000000
    7        7.792616   0.000000
    8        7.820212   0.000000
    9       12.240061   0.000000
   10       12.505522   0.000000
   11       12.507024   0.000000
   12       14.830677   0.000000
 
  0.5263158E-01  0.0000000E+00  0.0000000E+00  0.1166351E-02
    1       -8.039068   1.000000
    2        3.231664   1.000000
    3        3.489361   1.000000
    4        3.564491   1.000000
    5        5.647621   0.000000
    6        7.800364   0.000000
    7        7.842939   0.000000
    8        7.875043   0.000000
    9       12.349386   0.000000
   10       12.351467   0.000000
   11       12.397235   0.000000
   12       14.694395   0.000000
 
  0.1052632E+00  0.0000000E+00  0.0000000E+00  0.1166351E-02
    1       -7.961603   1.000000
    2        2.486728   1.000000
    3        3.407429   1.000000
    4        3.480725   1.000000
    5        6.057593   0.000000
    6        7.967312   0.000000
    7        8.009520   0.000000
    8        8.022182   0.000000
    9       12.043409   0.000000
   10       12.044642   0.000000
   11       12.795893   0.000000
   12       14.392221   0.000000
 
  0.1578947E+00  0.0000000E+00  0.0000000E+00  0.1166351E-02
    1       -7.835818   1.000000
    2        1.667070   1.000000
    3        3.291095   1.000000
    4        3.363505   1.000000
    5        6.201877   0.000000
    6        8.157497   0.000000
    7        8.212169   0.000000
    8        8.501462   0.000000
    9       11.788345   0.000000
   10       11.797348   0.000000
   11       13.141310   0.000000
   12       14.336538   0.000000
 
  0.2105263E+00  0.0000000E+00  0.0000000E+00  0.1166351E-02
    1       -7.667288   1.000000
    2        0.859125   1.000000
    3        3.160437   1.000000
    4        3.232306   1.000000
    5        6.130223   0.000000
    6        8.307127   0.000000
    7        8.374142   0.000000
    8        9.227086   0.000000
    9       11.713537   0.000000
   10       11.734325   0.000000
   11       13.030428   0.000000
   12       14.957574   0.000000
 
  0.2631579E+00  0.0000000E+00  0.0000000E+00  0.1166351E-02
    1       -7.465400   1.000000
    2        0.101990   1.000000
    3        3.032349   1.000000
    4        3.103986   1.000000
    5        5.983842   0.000000
    6        8.370177   0.000000
    7        8.448780   0.000000
    8       10.015674   0.000000
    9       11.890843   0.000000
   10       11.922424   0.000000
   11       12.794573   0.000000
   12       15.916350   0.000000
 
  0.3157895E+00  0.0000000E+00  0.0000000E+00  0.1166351E-02
    1       -7.245084   1.000000
    2       -0.574425   1.000000
    3        2.919036   1.000000
    4        2.990676   1.000000
    5        5.833096   0.000000
    6        8.346391   0.000000
    7        8.432005   0.000000
    8       10.717776   0.000000
    9       12.323807   0.000000
   10       12.361443   0.000000
   11       12.716394   0.000000
   12       16.890223   0.000000
 
  0.3684211E+00  0.0000000E+00  0.0000000E+00  0.1166351E-02
    1       -7.029302   1.000000
    2       -1.138324   1.000000
    3        2.828592   1.000000
    4        2.900364   1.000000
    5        5.707151   0.000000
    6        8.278145   0.000000
    7        8.366866   0.000000
    8       11.130938   0.000000
    9       12.964596   0.000000
   10       12.994610   0.000000
   11       13.022461   0.000000
   12       17.387441   0.000000
 
  0.4210526E+00  0.0000000E+00  0.0000000E+00  0.1166351E-02
    1       -6.850605   1.000000
    2       -1.551738   1.000000
    3        2.766002   1.000000
    4        2.837929   1.000000
    5        5.618695   0.000000
    6        8.209677   0.000000
    7        8.299553   0.000000
    8       11.239684   0.000000
    9       13.670485   0.000000
   10       13.758233   0.000000
   11       13.801197   0.000000
   12       16.839421   0.000000
 
  0.4736842E+00  0.0000000E+00  0.0000000E+00  0.1166351E-02
    1       -6.747068   1.000000
    2       -1.773382   1.000000
    3        2.734073   1.000000
    4        2.806100   1.000000
    5        5.573370   0.000000
    6        8.169128   0.000000
    7        8.259366   0.000000
    8       11.244094   0.000000
    9       14.351631   0.000000
   10       14.641137   0.000000
   11       14.685605   0.000000
   12       15.788215   0.000000
 
  0.5263158E-01  0.5263158E-01  0.0000000E+00  0.8747631E-03
    1       -8.030232   1.000000
    2        3.182851   1.000000
    3        3.475438   1.000000
    4        3.483603   1.000000
    5        5.757858   0.000000
    6        7.657667   0.000000
    7        7.945782   0.000000
    8        7.949768   0.000000
    9       12.056359   0.000000
   10       12.457644   0.000000
   11       12.554108   0.000000
   12       14.956082   0.000000
 
  0.1052632E+00  0.5263158E-01  0.0000000E+00  0.3499052E-02
    1       -7.969889   1.000000
    2        2.653649   1.000000
    3        3.351168   1.000000
    4        3.397834   1.000000
    5        6.154259   0.000000
    6        7.594397   0.000000
    7        8.129373   0.000000
    8        8.162137   0.000000
    9       11.670091   0.000000
   10       12.466653   0.000000
   11       12.787334   0.000000
   12       14.710197   0.000000
 
  0.1578947E+00  0.5263158E-01  0.0000000E+00  0.3499052E-02
    1       -7.860165   1.000000
    2        1.893709   1.000000
    3        3.216636   1.000000
    4        3.309879   1.000000
    5        6.393467   0.000000
    6        7.715592   0.000000
    7        8.349506   0.000000
    8        8.531306   0.000000
    9       11.360118   0.000000
   10       12.268948   0.000000
   11       13.232791   0.000000
   12       14.466020   0.000000
 
  0.2105263E+00  0.5263158E-01  0.0000000E+00  0.3499052E-02
    1       -7.705672   1.000000
    2        1.102658   1.000000
    3        3.075763   1.000000
    4        3.187312   1.000000
    5        6.373776   0.000000
    6        7.962326   0.000000
    7        8.538019   0.000000
    8        9.052057   0.000000
    9       11.252805   0.000000
   10       12.175885   0.000000
   11       13.331994   0.000000
   12       14.781432   0.000000
 
  0.2631579E+00  0.5263158E-01  0.0000000E+00  0.3499052E-02
    1       -7.514400   1.000000
    2        0.341132   1.000000
    3        2.945662   1.000000
    4        3.046430   1.000000
    5        6.241312   0.000000
    6        8.149859   0.000000
    7        8.632535   0.000000
    8        9.645578   0.000000
    9       11.441590   0.000000
   10       12.304915   0.000000
   11       13.113820   0.000000
   12       15.629656   0.000000
 
  0.3157895E+00  0.5263158E-01  0.0000000E+00  0.3499052E-02
    1       -7.299155   1.000000
    2       -0.354998   1.000000
    3        2.835015   1.000000
    4        2.908032   1.000000
    5        6.090311   0.000000
    6        8.209897   0.000000
    7        8.618471   0.000000
    8       10.254274   0.000000
    9       11.886914   0.000000
   10       12.685906   0.000000
   11       12.968545   0.000000
   12       16.594440   0.000000
 
  0.3684211E+00  0.5263158E-01  0.0000000E+00  0.3499052E-02
    1       -7.079914   1.000000
    2       -0.953131   1.000000
    3        2.738799   1.000000
    4        2.797728   1.000000
    5        5.957564   0.000000
    6        8.186353   0.000000
    7        8.533946   0.000000
    8       10.822380   0.000000
    9       12.334239   0.000000
   10       13.196032   0.000000
   11       13.285427   0.000000
   12       17.210353   0.000000
 
  0.4210526E+00  0.5263158E-01  0.0000000E+00  0.3499052E-02
    1       -6.885900   1.000000
    2       -1.416543   1.000000
    3        2.644494   1.000000
    4        2.741154   1.000000
    5        5.858370   0.000000
    6        8.144109   0.000000
    7        8.429485   0.000000
    8       11.203476   0.000000
    9       12.763840   0.000000
   10       13.875237   0.000000
   11       14.043546   0.000000
   12       16.705477   0.000000
 
  0.4736842E+00  0.5263158E-01  0.0000000E+00  0.3499052E-02
    1       -6.754128   1.000000
    2       -1.703754   1.000000
    3        2.568694   1.000000
    4        2.729417   1.000000
    5        5.799607   0.000000
    6        8.123792   0.000000
    7        8.341506   0.000000
    8       11.342852   0.000000
    9       13.435940   0.000000
   10       14.601508   0.000000
   11       14.875308   0.000000
   12       15.670616   0.000000
 
 -0.4736842E+00  0.5263158E-01  0.0000000E+00  0.3499052E-02
    1       -6.718173   1.000000
    2       -1.778906   1.000000
    3        2.523294   1.000000
    4        2.754465   1.000000
    5        5.784244   0.000000
    6        8.142536   0.000000
    7        8.290460   0.000000
    8       11.372262   0.000000
    9       14.086821   0.000000
   10       14.502638   0.000000
   11       14.699991   0.000000
   12       15.919994   0.000000
 
 -0.4210526E+00  0.5263158E-01  0.0000000E+00  0.3499052E-02
    1       -6.788660   1.000000
    2       -1.630854   1.000000
    3        2.512670   1.000000
    4        2.812741   1.000000
    5        5.812954   0.000000
    6        8.198065   0.000000
    7        8.287455   0.000000
    8       11.348150   0.000000
    9       13.578286   0.000000
   10       13.625408   0.000000
   11       14.857850   0.000000
   12       15.746024   0.000000
 
 -0.3684211E+00  0.5263158E-01  0.0000000E+00  0.3499052E-02
    1       -6.945380   1.000000
    2       -1.281037   1.000000
    3        2.538687   1.000000
    4        2.900475   1.000000
    5        5.884418   0.000000
    6        8.260898   0.000000
    7        8.345283   0.000000
    8       11.194792   0.000000
    9       12.756018   0.000000
   10       13.017294   0.000000
   11       14.130129   0.000000
   12       16.581624   0.000000
 
 -0.3157895E+00  0.5263158E-01  0.0000000E+00  0.3499052E-02
    1       -7.151617   1.000000
    2       -0.769315   1.000000
    3        2.601573   1.000000
    4        3.012504   1.000000
    5        5.994510   0.000000
    6        8.306361   0.000000
    7        8.440361   0.000000
    8       10.774650   0.000000
    9       12.073331   0.000000
   10       12.708543   0.000000
   11       13.416958   0.000000
   12       17.002282   0.000000
 
 -0.2631579E+00  0.5263158E-01  0.0000000E+00  0.3499052E-02
    1       -7.372284   1.000000
    2       -0.136515   1.000000
    3        2.699846   1.000000
    4        3.141442   1.000000
    5        6.133696   0.000000
    6        8.317394   0.000000
    7        8.498559   0.000000
    8       10.149121   0.000000
    9       11.584433   0.000000
   10       12.455977   0.000000
   11       13.110249   0.000000
   12       16.261297   0.000000
 
 -0.2105263E+00  0.5263158E-01  0.0000000E+00  0.3499052E-02
    1       -7.581383   1.000000
    2        0.581551   1.000000
    3        2.830011   1.000000
    4        3.276740   1.000000
    5        6.279863   0.000000
    6        8.257672   0.000000
    7        8.431124   0.000000
    8        9.493378   0.000000
    9       11.342519   0.000000
   10       12.132478   0.000000
   11       13.249189   0.000000
   12       15.314192   0.000000
 
 -0.1578947E+00  0.5263158E-01  0.0000000E+00  0.3499052E-02
    1       -7.761569   1.000000
    2        1.350006   1.000000
    3        2.986388   1.000000
    4        3.403762   1.000000
    5        6.378044   0.000000
    6        8.120004   0.000000
    7        8.183365   0.000000
    8        8.926870   0.000000
    9       11.362531   0.000000
   10       12.020973   0.000000
   11       13.387007   0.000000
   12       14.606369   0.000000
 
 -0.1052632E+00  0.5263158E-01  0.0000000E+00  0.3499052E-02
    1       -7.901886   1.000000
    2        2.121489   1.000000
    3        3.163105   1.000000
    4        3.504053   1.000000
    5        6.304041   0.000000
    6        7.879025   0.000000
    7        7.971674   0.000000
    8        8.478826   0.000000
    9       11.597498   0.000000
   10       12.132256   0.000000
   11       13.096954   0.000000
   12       14.546110   0.000000
 
 -0.5263158E-01  0.5263158E-01  0.0000000E+00  0.1749526E-02
    1       -7.995580   1.000000
    2        2.794121   1.000000
    3        3.365656   1.000000
    4        3.559911   1.000000
    5        5.971301   0.000000
    6        7.774659   0.000000
    7        7.861558   0.000000
    8        8.117082   0.000000
    9       11.964358   0.000000
   10       12.318637   0.000000
   11       12.653426   0.000000
   12       14.792930   0.000000
 
  0.1052632E+00  0.1052632E+00  0.0000000E+00  0.8747631E-03
    1       -7.926437   1.000000
    2        2.465094   1.000000
    3        3.218379   1.000000
    4        3.220822   1.000000
    5        6.507584   0.000000
    6        7.324204   0.000000
    7        8.362445   0.000000
    8        8.364830   0.000000
    9       11.221200   0.000000
   10       12.696437   0.000000
   11       13.028842   0.000000
   12       15.207710   0.000000
 
  0.1578947E+00  0.1052632E+00  0.0000000E+00  0.3499052E-02
    1       -7.833675   1.000000
    2        1.945574   1.000000
    3        3.053133   1.000000
    4        3.084682   1.000000
    5        6.817804   0.000000
    6        7.229068   0.000000
    7        8.627568   0.000000
    8        8.685724   0.000000
    9       10.889854   0.000000
   10       12.691851   0.000000
   11       13.464669   0.000000
   12       15.002125   0.000000
 
  0.2105263E+00  0.1052632E+00  0.0000000E+00  0.3499052E-02
    1       -7.694910   1.000000
    2        1.256808   1.000000
    3        2.898680   1.000000
    4        2.954979   1.000000
    5        6.819390   0.000000
    6        7.444805   0.000000
    7        8.865449   0.000000
    8        9.021326   0.000000
    9       10.844825   0.000000
   10       12.634849   0.000000
   11       13.833956   0.000000
   12       14.929226   0.000000
 
  0.2631579E+00  0.1052632E+00  0.0000000E+00  0.3499052E-02
    1       -7.516936   1.000000
    2        0.541130   1.000000
    3        2.754600   1.000000
    4        2.801919   1.000000
    5        6.686231   0.000000
    6        7.763267   0.000000
    7        9.008392   0.000000
    8        9.233576   0.000000
    9       11.215097   0.000000
   10       12.727192   0.000000
   11       13.749920   0.000000
   12       15.512094   0.000000
 
  0.3157895E+00  0.1052632E+00  0.0000000E+00  0.3499052E-02
    1       -7.310747   1.000000
    2       -0.140612   1.000000
    3        2.595892   1.000000
    4        2.675517   1.000000
    5        6.539908   0.000000
    6        7.980837   0.000000
    7        9.025650   0.000000
    8        9.492526   0.000000
    9       11.845820   0.000000
   10       13.054637   0.000000
   11       13.558414   0.000000
   12       16.380805   0.000000
 
  0.3684211E+00  0.1052632E+00  0.0000000E+00  0.3499052E-02
    1       -7.093625   1.000000
    2       -0.747571   1.000000
    3        2.423907   1.000000
    4        2.601165   1.000000
    5        6.409827   0.000000
    6        8.033839   0.000000
    7        8.943928   0.000000
    8        9.970524   0.000000
    9       12.422141   0.000000
   10       13.593380   0.000000
   11       13.618780   0.000000
   12       17.022499   0.000000
 
  0.4210526E+00  0.1052632E+00  0.0000000E+00  0.3499052E-02
    1       -6.891282   1.000000
    2       -1.240921   1.000000
    3        2.267563   1.000000
    4        2.568654   1.000000
    5        6.310138   0.000000
    6        8.009991   0.000000
    7        8.817636   0.000000
    8       10.593331   0.000000
    9       12.661452   0.000000
   10       14.143989   0.000000
   11       14.330105   0.000000
   12       16.612439   0.000000
 
  0.4736842E+00  0.1052632E+00  0.0000000E+00  0.3499052E-02
    1       -6.738045   1.000000
    2       -1.578761   1.000000
    3        2.139938   1.000000
    4        2.576317   1.000000
    5        6.248408   0.000000
    6        7.990101   0.000000
    7        8.690795   0.000000
    8       11.192777   0.000000
    9       12.835558   0.000000
   10       14.811385   0.000000
   11       15.070717   0.000000
   12       15.634693   0.000000
 
 -0.4736842E+00  0.1052632E+00  0.0000000E+00  0.3499052E-02
    1       -6.669454   1.000000
    2       -1.721514   1.000000
    3        2.048822   1.000000
    4        2.622512   1.000000
    5        6.228132   0.000000
    6        8.008537   0.000000
    7        8.589182   0.000000
    8       11.547851   0.000000
    9       13.242935   0.000000
   10       14.384802   0.000000
   11       14.639217   0.000000
   12       16.231147   0.000000
 
 -0.4210526E+00  0.1052632E+00  0.0000000E+00  0.3499052E-02
    1       -6.704851   1.000000
    2       -1.648494   1.000000
    3        1.999575   1.000000
    4        2.704137   1.000000
    5        6.249973   0.000000
    6        8.075289   0.000000
    7        8.523879   0.000000
    8       11.570864   0.000000
    9       13.434101   0.000000
   10       13.505561   0.000000
   11       14.480291   0.000000
   12       16.480962   0.000000
 
 -0.3684211E+00  0.1052632E+00  0.0000000E+00  0.3499052E-02
    1       -6.833945   1.000000
    2       -1.371271   1.000000
    3        1.996193   1.000000
    4        2.816295   1.000000
    5        6.312376   0.000000
    6        8.185457   0.000000
    7        8.493589   0.000000
    8       11.270984   0.000000
    9       12.578957   0.000000
   10       13.237693   0.000000
   11       15.038663   0.000000
   12       15.828332   0.000000
 
 -0.3157895E+00  0.1052632E+00  0.0000000E+00  0.3499052E-02
    1       -7.024272   1.000000
    2       -0.926553   1.000000
    3        2.041993   1.000000
    4        2.951867   1.000000
    5        6.411162   0.000000
    6        8.315593   0.000000
    7        8.483916   0.000000
    8       10.707471   0.000000
    9       11.861985   0.000000
   10       13.125781   0.000000
   11       14.570191   0.000000
   12       16.334938   0.000000
 
 -0.2631579E+00  0.1052632E+00  0.0000000E+00  0.3499052E-02
    1       -7.239803   1.000000
    2       -0.359081   1.000000
    3        2.140337   1.000000
    4        3.100815   1.000000
    5        6.537311   0.000000
    6        8.398713   0.000000
    7        8.471495   0.000000
    8       10.076059   0.000000
    9       11.332862   0.000000
   10       13.032626   0.000000
   11       14.009618   0.000000
   12       16.405749   0.000000
 
 -0.2105263E+00  0.1052632E+00  0.0000000E+00  0.3499052E-02
    1       -7.451791   1.000000
    2        0.286110   1.000000
    3        2.296128   1.000000
    4        3.249377   1.000000
    5        6.669310   0.000000
    6        8.335365   0.000000
    7        8.391084   0.000000
    8        9.571563   0.000000
    9       11.047174   0.000000
   10       12.653791   0.000000
   11       13.925577   0.000000
   12       15.654839   0.000000
 
 -0.1578947E+00  0.1052632E+00  0.0000000E+00  0.3499052E-02
    1       -7.640449   1.000000
    2        0.958095   1.000000
    3        2.518867   1.000000
    4        3.379451   1.000000
    5        6.747962   0.000000
    6        8.081922   0.000000
    7        8.220112   0.000000
    8        9.257288   0.000000
    9       11.026052   0.000000
   10       12.259173   0.000000
   11       13.961980   0.000000
   12       15.005500   0.000000
 
 -0.1052632E+00  0.1052632E+00  0.0000000E+00  0.1749526E-02
    1       -7.792964   1.000000
    2        1.586794   1.000000
    3        2.824204   1.000000
    4        3.469829   1.000000
    5        6.637635   0.000000
    6        7.854998   0.000000
    7        8.067162   0.000000
    8        8.925192   0.000000
    9       11.229053   0.000000
   10       12.100904   0.000000
   11       13.592672   0.000000
   12       14.859777   0.000000
 
  0.1578947E+00  0.1578947E+00  0.0000000E+00  0.8747631E-03
    1       -7.757317   1.000000
    2        1.692250   1.000000
    3        2.883101   1.000000
    4        2.884457   1.000000
    5        6.889016   0.000000
    6        7.201398   0.000000
    7        8.959210   0.000000
    8        8.962053   0.000000
    9       10.529362   0.000000
   10       12.933520   0.000000
   11       13.838837   0.000000
   12       15.621253   0.000000
 
  0.2105263E+00  0.1578947E+00  0.0000000E+00  0.3499052E-02
    1       -7.635368   1.000000
    2        1.219841   1.000000
    3        2.695871   1.000000
    4        2.721186   1.000000
    5        6.756702   0.000000
    6        7.392879   0.000000
    7        9.208825   0.000000
    8        9.267312   0.000000
    9       10.539541   0.000000
   10       13.023961   0.000000
   11       14.311333   0.000000
   12       15.493223   0.000000
 
  0.2631579E+00  0.1578947E+00  0.0000000E+00  0.3499052E-02
    1       -7.472746   1.000000
    2        0.626060   1.000000
    3        2.503381   1.000000
    4        2.575693   1.000000
    5        6.714324   0.000000
    6        7.573886   0.000000
    7        9.169418   0.000000
    8        9.480214   0.000000
    9       11.090684   0.000000
   10       13.133480   0.000000
   11       14.518610   0.000000
   12       15.650556   0.000000
 
  0.3157895E+00  0.1578947E+00  0.0000000E+00  0.3499052E-02
    1       -7.278967   1.000000
    2        0.011726   1.000000
    3        2.282518   1.000000
    4        2.463125   1.000000
    5        6.655669   0.000000
    6        7.869503   0.000000
    7        9.057118   0.000000
    8        9.553605   0.000000
    9       11.884254   0.000000
   10       13.425450   0.000000
   11       14.357950   0.000000
   12       16.331910   0.000000
 
  0.3684211E+00  0.1578947E+00  0.0000000E+00  0.3499052E-02
    1       -7.069001   1.000000
    2       -0.564435   1.000000
    3        2.053522   1.000000
    4        2.390880   1.000000
    5        6.574568   0.000000
    6        8.151785   0.000000
    7        9.147313   0.000000
    8        9.498574   0.000000
    9       12.653577   0.000000
   10       13.937561   0.000000
   11       14.258291   0.000000
   12       16.937407   0.000000
 
  0.4210526E+00  0.1578947E+00  0.0000000E+00  0.3499052E-02
    1       -6.865257   1.000000
    2       -1.056567   1.000000
    3        1.839853   1.000000
    4        2.361579   1.000000
    5        6.505809   0.000000
    6        8.220331   0.000000
    7        9.368856   0.000000
    8        9.625948   0.000000
    9       13.089453   0.000000
   10       14.543978   0.000000
   11       14.629450   0.000000
   12       16.574166   0.000000
 
  0.4736842E+00  0.1578947E+00  0.0000000E+00  0.3499052E-02
    1       -6.698569   1.000000
    2       -1.420400   1.000000
    3        1.657889   1.000000
    4        2.375847   1.000000
    5        6.471935   0.000000
    6        8.188739   0.000000
    7        9.219414   0.000000
    8       10.335126   0.000000
    9       13.116989   0.000000
   10       15.135148   0.000000
   11       15.202516   0.000000
   12       15.740798   0.000000
 
 -0.4736842E+00  0.1578947E+00  0.0000000E+00  0.3499052E-02
    1       -6.603664   1.000000
    2       -1.613771   1.000000
    3        1.518586   1.000000
    4        2.432413   1.000000
    5        6.482317   0.000000
    6        8.165803   0.000000
    7        9.081405   0.000000
    8       11.090959   0.000000
    9       12.984816   0.000000
   10       14.320954   0.000000
   11       14.925557   0.000000
   12       16.487375   0.000000
 
 -0.4210526E+00  0.1578947E+00  0.0000000E+00  0.3499052E-02
    1       -6.605415   1.000000
    2       -1.609012   1.000000
    3        1.429989   1.000000
    4        2.528040   1.000000
    5        6.538037   0.000000
    6        8.183427   0.000000
    7        8.970902   0.000000
    8       11.579874   0.000000
    9       12.896829   0.000000
   10       13.347226   0.000000
   11       14.588034   0.000000
   12       17.290428   0.000000
 
 -0.3684211E+00  0.1578947E+00  0.0000000E+00  0.3499052E-02
    1       -6.703249   1.000000
    2       -1.408287   1.000000
    3        1.399252   1.000000
    4        2.657273   1.000000
    5        6.634533   0.000000
    6        8.248726   0.000000
    7        8.889498   0.000000
    8       11.294902   0.000000
    9       12.469007   0.000000
   10       13.225034   0.000000
   11       14.708782   0.000000
   12       16.902208   0.000000
 
 -0.3157895E+00  0.1578947E+00  0.0000000E+00  0.3499052E-02
    1       -6.871586   1.000000
    2       -1.044234   1.000000
    3        1.434566   1.000000
    4        2.811854   1.000000
    5        6.762328   0.000000
    6        8.352340   0.000000
    7        8.823399   0.000000
    8       10.620147   0.000000
    9       11.729133   0.000000
   10       13.575596   0.000000
   11       15.182825   0.000000
   12       16.123884   0.000000
 
 -0.2631579E+00  0.1578947E+00  0.0000000E+00  0.3499052E-02
    1       -7.075742   1.000000
    2       -0.567008   1.000000
    3        1.547853   1.000000
    4        2.979877   1.000000
    5        6.904754   0.000000
    6        8.449556   0.000000
    7        8.740180   0.000000
    8        9.935638   0.000000
    9       11.178905   0.000000
   10       13.704357   0.000000
   11       14.997504   0.000000
   12       16.127888   0.000000
 
 -0.2105263E+00  0.1578947E+00  0.0000000E+00  0.3499052E-02
    1       -7.285256   1.000000
    2       -0.035845   1.000000
    3        1.758244   1.000000
    4        3.144797   1.000000
    5        7.025400   0.000000
    6        8.403452   0.000000
    7        8.599487   0.000000
    8        9.475167   0.000000
    9       10.876027   0.000000
   10       13.381218   0.000000
   11       14.741361   0.000000
   12       15.739066   0.000000
 
 -0.1578947E+00  0.1578947E+00  0.0000000E+00  0.1749526E-02
    1       -7.478084   1.000000
    2        0.483140   1.000000
    3        2.089862   1.000000
    4        3.285086   1.000000
    5        7.024566   0.000000
    6        8.162534   0.000000
    7        8.407534   0.000000
    8        9.352496   0.000000
    9       10.835941   0.000000
   10       12.757198   0.000000
   11       14.577874   0.000000
   12       15.214148   0.000000
 
  0.2105263E+00  0.2105263E+00  0.0000000E+00  0.8747631E-03
    1       -7.529475   1.000000
    2        0.934562   1.000000
    3        2.533527   1.000000
    4        2.534466   1.000000
    5        6.455628   0.000000
    6        7.445566   0.000000
    7        9.666899   0.000000
    8        9.671375   0.000000
    9       10.417788   0.000000
   10       13.265109   0.000000
   11       14.786344   0.000000
   12       16.192301   0.000000
 
  0.2631579E+00  0.2105263E+00  0.0000000E+00  0.3499052E-02
    1       -7.383663   1.000000
    2        0.513521   1.000000
    3        2.328221   1.000000
    4        2.379597   1.000000
    5        6.342182   0.000000
    6        7.400385   0.000000
    7        9.722744   0.000000
    8        9.983991   0.000000
    9       10.981154   0.000000
   10       13.458647   0.000000
   11       15.229052   0.000000
   12       16.164462   0.000000
 
  0.3157895E+00  0.2105263E+00  0.0000000E+00  0.3499052E-02
    1       -7.205089   1.000000
    2        0.020384   1.000000
    3        2.074906   1.000000
    4        2.259012   1.000000
    5        6.351276   0.000000
    6        7.464903   0.000000
    7        9.552918   0.000000
    8       10.148980   0.000000
    9       11.882055   0.000000
   10       13.748663   0.000000
   11       15.262628   0.000000
   12       16.508845   0.000000
 
  0.3684211E+00  0.2105263E+00  0.0000000E+00  0.3499052E-02
    1       -7.006817   1.000000
    2       -0.474782   1.000000
    3        1.787840   1.000000
    4        2.180151   1.000000
    5        6.351412   0.000000
    6        7.774288   0.000000
    7        9.385252   0.000000
    8       10.151673   0.000000
    9       12.793545   0.000000
   10       14.235583   0.000000
   11       15.096179   0.000000
   12       17.022910   0.000000
 
  0.4210526E+00  0.2105263E+00  0.0000000E+00  0.3499052E-02
    1       -6.808409   1.000000
    2       -0.921043   1.000000
    3        1.504204   1.000000
    4        2.146570   1.000000
    5        6.326419   0.000000
    6        8.272457   0.000000
    7        9.294159   0.000000
    8       10.042845   0.000000
    9       13.479724   0.000000
   10       14.896861   0.000000
   11       15.127803   0.000000
   12       16.595122   0.000000
 
  0.4736842E+00  0.2105263E+00  0.0000000E+00  0.3499052E-02
    1       -6.636999   1.000000
    2       -1.272549   1.000000
    3        1.252935   1.000000
    4        2.159384   1.000000
    5        6.320543   0.000000
    6        8.675856   0.000000
    7        9.494265   0.000000
    8        9.885715   0.000000
    9       13.587621   0.000000
   10       15.265013   0.000000
   11       15.609194   0.000000
   12       15.956847   0.000000
 
 -0.4736842E+00  0.2105263E+00  0.0000000E+00  0.3499052E-02
    1       -6.524637   1.000000
    2       -1.486290   1.000000
    3        1.052447   1.000000
    4        2.217684   1.000000
    5        6.359597   0.000000
    6        8.750284   0.000000
    7        9.721068   0.000000
    8       10.163504   0.000000
    9       13.197188   0.000000
   10       14.313545   0.000000
   11       15.527897   0.000000