 running on   48 total cores
 distrk:  each k-point on   12 cores,    4 groups
 distr:  one band on    1 cores,   12 groups
 using from now: INCAR     
 vasp.5.4.4.18Apr17-6-g9f103f2a35 (build Nov 04 2020 14:40:39) complex          
  
 POSCAR found type information on POSCAR  Al As
 POSCAR found :  2 types and       2 ions
 scaLAPACK will be used

 ----------------------------------------------------------------------------- 
|                                                                             |
|           W    W    AA    RRRRR   N    N  II  N    N   GGGG   !!!           |
|           W    W   A  A   R    R  NN   N  II  NN   N  G    G  !!!           |
|           W    W  A    A  R    R  N N  N  II  N N  N  G       !!!           |
|           W WW W  AAAAAA  RRRRR   N  N N  II  N  N N  G  GGG   !            |
|           WW  WW  A    A  R   R   N   NN  II  N   NN  G    G                |
|           W    W  A    A  R    R  N    N  II  N    N   GGGG   !!!           |
|                                                                             |
|      For optimal performance we recommend to set                            |
|        NCORE= 4 - approx SQRT( number of cores)                             |
|      NCORE specifies how many cores store one orbital (NPAR=cpu/NCORE).     |
|      This setting can  greatly improve the performance of VASP for DFT.     |
|      The default,   NCORE=1            might be grossly inefficient         |
|      on modern multi-core architectures or massively parallel machines.     |
|      Do your own testing !!!!                                               |
|      Unfortunately you need to use the default for GW and RPA calculations. |
|      (for HF NCORE is supported but not extensively tested yet)             |
|                                                                             |
 ----------------------------------------------------------------------------- 


 ----------------------------------------------------------------------------- 
|                                                                             |
|           W    W    AA    RRRRR   N    N  II  N    N   GGGG   !!!           |
|           W    W   A  A   R    R  NN   N  II  NN   N  G    G  !!!           |
|           W    W  A    A  R    R  N N  N  II  N N  N  G       !!!           |
|           W WW W  AAAAAA  RRRRR   N  N N  II  N  N N  G  GGG   !            |
|           WW  WW  A    A  R   R   N   NN  II  N   NN  G    G                |
|           W    W  A    A  R    R  N    N  II  N    N   GGGG   !!!           |
|                                                                             |
|      You have enabled k-point parallelism (KPAR>1).                         |
|      This developmental code was originally  written by Paul Kent at ORNL,  |
|      and carefully double checked in Vienna.                                |
|      GW as well as linear response parallelism added by Martijn Marsman     |
|      and Georg Kresse.                                                      |
|      Carefully verify results versus KPAR=1.                                |
|      Report problems to Paul Kent and Vienna.                               |
|                                                                             |
 ----------------------------------------------------------------------------- 

 LDA part: xc-table for Pade appr. of Perdew
 POSCAR found type information on POSCAR  Al As
 POSCAR found :  2 types and       2 ions
 generate k-points for:   19   19   19
 POSCAR, INCAR and KPOINTS ok, starting setup
 FFT: planning ...
 WAVECAR not read
 entering main loop
       N       E                     dE             d eps       ncg     rms          rms(c)
DAV:   1     0.125776871369E+02    0.12578E+02   -0.36815E+03  5280   0.642E+02
DAV:   2    -0.915609370382E+01   -0.21734E+02   -0.21176E+02  6636   0.634E+01
DAV:   3    -0.958829137497E+01   -0.43220E+00   -0.43220E+00  6768   0.123E+01
DAV:   4    -0.958976844899E+01   -0.14771E-02   -0.14771E-02  8856   0.758E-01
DAV:   5    -0.958976959700E+01   -0.11480E-05   -0.11480E-05  6840   0.179E-02    0.266E+00
RMM:   6    -0.940378483311E+01    0.18598E+00   -0.13912E-01  5280   0.142E+00    0.146E+00
RMM:   7    -0.937279384253E+01    0.30991E-01   -0.75337E-02  5280   0.113E+00    0.463E-01
RMM:   8    -0.937320791231E+01   -0.41407E-03   -0.47322E-03  5280   0.397E-01    0.496E-02
RMM:   9    -0.937349166697E+01   -0.28375E-03   -0.27160E-04  5280   0.916E-02    0.187E-02
RMM:  10    -0.937352491314E+01   -0.33246E-04   -0.41734E-05  5280   0.352E-02    0.422E-03
RMM:  11    -0.937352703569E+01   -0.21226E-05   -0.43448E-06  5280   0.117E-02    0.131E-03
RMM:  12    -0.937352699933E+01    0.36368E-07   -0.46685E-07  5280   0.313E-03
   1 F= -.93735270E+01 E0= -.93735270E+01  d E =-.912316E-17
 Found     2 degrees of freedom:
 Adding 6 more for cell shape distortion
 Finite differences POTIM= 0.01000 DOF=   8
 generate k-points for:   19   19   19
 bond charge predicted
       N       E                     dE             d eps       ncg     rms          rms(c)
DAV:   1    -0.937331990219E+01    0.20713E-03   -0.28691E-01 18444   0.201E+00    0.314E-01
RMM:   2    -0.936898356937E+01    0.43363E-02   -0.56643E-03 13200   0.413E-01    0.159E-01
RMM:   3    -0.936769940574E+01    0.12842E-02   -0.19911E-03 13200   0.184E-01    0.411E-02
RMM:   4    -0.936761936949E+01    0.80036E-04   -0.11892E-04 13200   0.557E-02    0.708E-03
RMM:   5    -0.936761998615E+01   -0.61666E-06   -0.55683E-06 13200   0.130E-02    0.365E-03
RMM:   6    -0.936762086920E+01   -0.88305E-06   -0.11940E-06 13214   0.631E-03    0.469E-04
RMM:   7    -0.936762090474E+01   -0.35536E-07   -0.86537E-08  9180   0.175E-03
   2 F= -.93676209E+01 E0= -.93676209E+01  d E =-.168596E-19
 Finite differences progress:
  Degree of freedom:   1/  8
  Displacement:        1/  4
  Total:               1/ 32
 generate k-points for:   19   19   19
 bond charge predicted
       N       E                     dE             d eps       ncg     rms          rms(c)
DAV:   1    -0.937323855049E+01   -0.56177E-02   -0.17687E-01 18360   0.156E+00    0.156E-01
RMM:   2    -0.937239210827E+01    0.84644E-03   -0.33474E-03 13200   0.314E-01    0.792E-02
RMM:   3    -0.937209107248E+01    0.30104E-03   -0.53642E-04 13200   0.101E-01    0.205E-02
RMM:   4    -0.937207577829E+01    0.15294E-04   -0.32265E-05 13200   0.299E-02    0.344E-03
RMM:   5    -0.937207605655E+01   -0.27825E-06   -0.13817E-06 13235   0.687E-03    0.202E-03
RMM:   6    -0.937207610605E+01   -0.49497E-07   -0.35115E-07 12918   0.346E-03
   3 F= -.93720761E+01 E0= -.93720761E+01  d E =-.157023E-15
 Finite differences progress:
  Degree of freedom:   1/  8
  Displacement:        2/  4
  Total:               2/ 32
 generate k-points for:   19   19   19
 bond charge predicted
       N       E                     dE             d eps       ncg     rms          rms(c)
DAV:   1    -0.937769200591E+01   -0.56159E-02   -0.22671E-01 18756   0.182E+00    0.318E-01
RMM:   2    -0.937327266791E+01    0.44193E-02   -0.45614E-03 13200   0.361E-01    0.161E-01
RMM:   3    -0.937198926842E+01    0.12834E-02   -0.20183E-03 13200   0.186E-01    0.409E-02
RMM:   4    -0.937192152732E+01    0.67741E-04   -0.11789E-04 13200   0.552E-02    0.661E-03
RMM:   5    -0.937192280723E+01   -0.12799E-05   -0.41377E-06 13200   0.116E-02    0.336E-03
RMM:   6    -0.937192308554E+01   -0.27830E-06   -0.95955E-07 13204   0.565E-03    0.417E-04
RMM:   7    -0.937192304905E+01    0.36490E-07   -0.65886E-08  9018   0.157E-03
   4 F= -.93719230E+01 E0= -.93719230E+01  d E =-.107732E-18
 Finite differences progress:
  Degree of freedom:   1/  8
  Displacement:        3/  4
  Total:               3/ 32
 generate k-points for:   19   19   19
 bond charge predicted
       N       E                     dE             d eps       ncg     rms          rms(c)
DAV:   1    -0.936846242298E+01    0.34607E-02   -0.20609E-01 18600   0.164E+00    0.159E-01
RMM:   2    -0.936757469896E+01    0.88772E-03   -0.33607E-03 13200   0.319E-01    0.834E-02
RMM:   3    -0.936723142724E+01    0.34327E-03   -0.59349E-04 13200   0.106E-01    0.200E-02
RMM:   4    -0.936721610092E+01    0.15326E-04   -0.27957E-05 13200   0.281E-02    0.442E-03
RMM:   5    -0.936721654183E+01   -0.44091E-06   -0.21243E-06 13200   0.799E-03    0.188E-03
RMM:   6    -0.936721657056E+01   -0.28735E-07   -0.30894E-07 12700   0.333E-03
   5 F= -.93672166E+01 E0= -.93672166E+01  d E =-.607124E-29
 Finite differences progress:
  Degree of freedom:   1/  8
  Displacement:        4/  4
  Total:               4/ 32
 generate k-points for:   19   19   19
 bond charge predicted
       N       E                     dE             d eps       ncg     rms          rms(c)
DAV:   1    -0.938837119814E+01   -0.21155E-01   -0.74607E-01 17988   0.326E+00    0.558E-01
RMM:   2    -0.937250907539E+01    0.15862E-01   -0.16706E-02 13200   0.682E-01    0.269E-01
RMM:   3    -0.936810592891E+01    0.44031E-02   -0.62915E-03 13200   0.321E-01    0.770E-02
RMM:   4    -0.936761730627E+01    0.48862E-03   -0.45972E-04 13200   0.107E-01    0.114E-02
RMM:   5    -0.936761042268E+01    0.68836E-05   -0.22673E-05 13200   0.253E-02    0.560E-03
RMM:   6    -0.936761711527E+01   -0.66926E-05   -0.41232E-06 13213   0.113E-02    0.829E-04
RMM:   7    -0.936761943474E+01   -0.23195E-05   -0.38665E-07 12431   0.335E-03    0.366E-04
RMM:   8    -0.936762107173E+01   -0.16370E-05   -0.33070E-08  8932   0.121E-03    0.704E-05
RMM:   9    -0.936762103049E+01    0.41245E-07   -0.78638E-09  7856   0.604E-04
   6 F= -.93676210E+01 E0= -.93676210E+01  d E =-.163262E-19
 Finite differences progress:
  Degree of freedom:   2/  8
  Displacement:        1/  4
  Total:               5/ 32
 generate k-points for:   19   19   19
 bond charge predicted
       N       E                     dE             d eps       ncg     rms          rms(c)
DAV:   1    -0.937324831037E+01   -0.56272E-02   -0.19986E-01 19224   0.156E+00    0.156E-01
RMM:   2    -0.937239491239E+01    0.85340E-03   -0.31929E-03 13200   0.310E-01    0.795E-02
RMM:   3    -0.937209116580E+01    0.30375E-03   -0.53381E-04 13200   0.101E-01    0.204E-02
RMM:   4    -0.937207572274E+01    0.15443E-04   -0.30879E-05 13200   0.295E-02    0.358E-03
RMM:   5    -0.937207606889E+01   -0.34614E-06   -0.14535E-06 13218   0.700E-03    0.197E-03
RMM:   6    -0.937207610886E+01   -0.39967E-07   -0.33080E-07 12820   0.338E-03
   7 F= -.93720761E+01 E0= -.93720761E+01  d E =-.155942E-15
 Finite differences progress:
  Degree of freedom:   2/  8
  Displacement:        2/  4
  Total:               6/ 32
 generate k-points for:   19   19   19
 bond charge predicted
       N       E                     dE             d eps       ncg     rms          rms(c)
DAV:   1    -0.937769108574E+01   -0.56150E-02   -0.24309E-01 19272   0.183E+00    0.318E-01
RMM:   2    -0.937327388269E+01    0.44172E-02   -0.45606E-03 13200   0.362E-01    0.162E-01
RMM:   3    -0.937198938597E+01    0.12845E-02   -0.20181E-03 13200   0.186E-01    0.408E-02
RMM:   4    -0.937192149520E+01    0.67891E-04   -0.11712E-04 13200   0.552E-02    0.663E-03
RMM:   5    -0.937192282889E+01   -0.13337E-05   -0.41978E-06 13200   0.117E-02    0.333E-03
RMM:   6    -0.937192308569E+01   -0.25680E-06   -0.93499E-07 13203   0.559E-03    0.415E-04
RMM:   7    -0.937192304693E+01    0.38755E-07   -0.65151E-08  9024   0.156E-03
   8 F= -.93719230E+01 E0= -.93719230E+01  d E =-.107907E-18
 Finite differences progress:
  Degree of freedom:   2/  8
  Displacement:        3/  4
  Total:               7/ 32
 generate k-points for:   19   19   19
 bond charge predicted
       N       E                     dE             d eps       ncg     rms          rms(c)
DAV:   1    -0.936846414557E+01    0.34589E-02   -0.20048E-01 18252   0.164E+00    0.160E-01
RMM:   2    -0.936757198419E+01    0.89216E-03   -0.34019E-03 13200   0.320E-01    0.832E-02
RMM:   3    -0.936723135468E+01    0.34063E-03   -0.59155E-04 13200   0.106E-01    0.202E-02
RMM:   4    -0.936721604722E+01    0.15307E-04   -0.28520E-05 13200   0.283E-02    0.426E-03
RMM:   5    -0.936721652471E+01   -0.47749E-06   -0.19794E-06 13200   0.779E-03    0.189E-03
RMM:   6    -0.936721656643E+01   -0.41722E-07   -0.31636E-07 12730   0.336E-03
   9 F= -.93672166E+01 E0= -.93672166E+01  d E =-.608175E-29
 Finite differences progress:
  Degree of freedom:   2/  8
  Displacement:        4/  4
  Total:               8/ 32
 generate k-points for:   19   19   19
 bond charge predicted
       N       E                     dE             d eps       ncg     rms          rms(c)
DAV:   1    -0.938769374643E+01   -0.20477E-01   -0.81461E-01 18756   0.328E+00    0.558E-01
RMM:   2    -0.937209127307E+01    0.15602E-01   -0.16790E-02 13200   0.689E-01    0.269E-01
RMM:   3    -0.936796802950E+01    0.41232E-02   -0.63576E-03 13200   0.322E-01    0.769E-02
RMM:   4    -0.936761401467E+01    0.35401E-03   -0.45294E-04 13200   0.107E-01    0.115E-02
RMM:   5    -0.936761754044E+01   -0.35258E-05   -0.23619E-05 13200   0.257E-02    0.557E-03
RMM:   6    -0.936762073556E+01   -0.31951E-05   -0.40284E-06 13216   0.112E-02    0.854E-04
RMM:   7    -0.936762091165E+01   -0.17609E-06   -0.40049E-07 12547   0.337E-03    0.371E-04
RMM:   8    -0.936762102430E+01   -0.11265E-06   -0.31262E-08  8919   0.117E-03    0.715E-05
RMM:   9    -0.936762099006E+01    0.34238E-07   -0.71188E-09  8008   0.575E-04
  10 F= -.93676210E+01 E0= -.93676210E+01  d E =-.162115E-19
 Finite differences progress:
  Degree of freedom:   3/  8
  Displacement:        1/  4
  Total:               9/ 32
 generate k-points for:   19   19   19
 bond charge predicted
       N       E                     dE             d eps       ncg     rms          rms(c)
DAV:   1    -0.937318583756E+01   -0.55648E-02   -0.18759E-01 16092   0.162E+00    0.156E-01
RMM:   2    -0.937239262702E+01    0.79321E-03   -0.37701E-03 13200   0.334E-01    0.794E-02
RMM:   3    -0.937209033794E+01    0.30229E-03   -0.55887E-04 13200   0.106E-01    0.203E-02
RMM:   4    -0.937207575619E+01    0.14582E-04   -0.32706E-05 13200   0.304E-02    0.362E-03
RMM:   5    -0.937207603821E+01   -0.28202E-06   -0.14920E-06 13215   0.717E-03    0.212E-03
RMM:   6    -0.937207610087E+01   -0.62657E-07   -0.40130E-07 13039   0.366E-03
  11 F= -.93720761E+01 E0= -.93720761E+01  d E =-.150491E-15
 Finite differences progress:
  Degree of freedom:   3/  8
  Displacement:        2/  4
  Total:              10/ 32
 generate k-points for:   19   19   19
 bond charge predicted
       N       E                     dE             d eps       ncg     rms          rms(c)
DAV:   1    -0.937770737786E+01   -0.56313E-02   -0.20313E-01 17940   0.176E+00    0.318E-01
RMM:   2    -0.937327119764E+01    0.44362E-02   -0.44114E-03 13200   0.349E-01    0.161E-01
RMM:   3    -0.937198885051E+01    0.12823E-02   -0.20146E-03 13200   0.186E-01    0.408E-02
RMM:   4    -0.937192159252E+01    0.67258E-04   -0.11967E-04 13200   0.555E-02    0.653E-03
RMM:   5    -0.937192272230E+01   -0.11298E-05   -0.37388E-06 13204   0.111E-02    0.354E-03
RMM:   6    -0.937192307246E+01   -0.35016E-06   -0.10306E-06 13200   0.584E-03    0.429E-04
RMM:   7    -0.937192305106E+01    0.21404E-07   -0.62324E-08  8954   0.153E-03
  12 F= -.93719231E+01 E0= -.93719231E+01  d E =-.106432E-18
 Finite differences progress:
  Degree of freedom:   3/  8
  Displacement:        3/  4
  Total:              11/ 32
 generate k-points for:   19   19   19
 bond charge predicted
       N       E                     dE             d eps       ncg     rms          rms(c)
DAV:   1    -0.936842536351E+01    0.34977E-02   -0.23628E-01 17676   0.175E+00    0.159E-01
RMM:   2    -0.936757515269E+01    0.85021E-03   -0.37172E-03 13200   0.341E-01    0.835E-02
RMM:   3    -0.936723159065E+01    0.34356E-03   -0.59580E-04 13200   0.106E-01    0.202E-02
RMM:   4    -0.936721608330E+01    0.15507E-04   -0.27916E-05 13200   0.283E-02    0.456E-03
RMM:   5    -0.936721654011E+01   -0.45680E-06   -0.22778E-06 13200   0.828E-03    0.187E-03
RMM:   6    -0.936721657122E+01   -0.31108E-07   -0.32418E-07 12679   0.341E-03
  13 F= -.93672166E+01 E0= -.93672166E+01  d E =-.626201E-29
 Finite differences progress:
  Degree of freedom:   3/  8
  Displacement:        4/  4
  Total:              12/ 32
 generate k-points for:   19   19   19
 bond charge predicted
       N       E                     dE             d eps       ncg     rms          rms(c)
DAV:   1    -0.938070751170E+01   -0.13491E-01   -0.51940E-01 58224   0.278E+00    0.422E-01
RMM:   2    -0.937255712726E+01    0.81504E-02   -0.13558E-02 43440   0.638E-01    0.223E-01
RMM:   3    -0.936945523296E+01    0.31019E-02   -0.46021E-03 43440   0.278E-01    0.456E-02
RMM:   4    -0.936936444287E+01    0.90790E-04   -0.16982E-04 43440   0.661E-02    0.112E-02
RMM:   5    -0.936936577391E+01   -0.13310E-05   -0.97149E-06 43440   0.175E-02    0.566E-03
RMM:   6    -0.936936723638E+01   -0.14625E-05   -0.29315E-06 43440   0.935E-03    0.100E-03
RMM:   7    -0.936936737246E+01   -0.13609E-06   -0.36902E-07 43372   0.298E-03    0.807E-04
RMM:   8    -0.936936741056E+01   -0.38100E-07   -0.91673E-08 30389   0.154E-03
  14 F= -.93693674E+01 E0= -.93693674E+01  d E =-.682321E-12
 Finite differences progress:
  Degree of freedom:   4/  8
  Displacement:        1/  4
  Total:              13/ 32
 generate k-points for:   19   19   19
 bond charge predicted
       N       E                     dE             d eps       ncg     rms          rms(c)
DAV:   1    -0.937361004765E+01   -0.42427E-02   -0.19749E-01 64188   0.163E+00    0.139E-01
RMM:   2    -0.937289308901E+01    0.71696E-03   -0.39343E-03 43440   0.361E-01    0.747E-02
RMM:   3    -0.937248678645E+01    0.40630E-03   -0.66459E-04 43440   0.110E-01    0.990E-03
RMM:   4    -0.937248668629E+01    0.10016E-06   -0.14279E-05 43460   0.222E-02    0.289E-03
RMM:   5    -0.937248695008E+01   -0.26379E-06   -0.81915E-07 43665   0.545E-03    0.125E-03
RMM:   6    -0.937248703874E+01   -0.88666E-07   -0.19102E-07 39836   0.241E-03
  15 F= -.93724870E+01 E0= -.93724870E+01  d E =-.346867E-12
 Finite differences progress:
  Degree of freedom:   4/  8
  Displacement:        2/  4
  Total:              14/ 32
 generate k-points for:   19   19   19
 bond charge predicted
       N       E                     dE             d eps       ncg     rms          rms(c)
DAV:   1    -0.937802686756E+01   -0.55399E-02   -0.14958E-01 62052   0.142E+00    0.274E-01
RMM:   2    -0.937417781836E+01    0.38490E-02   -0.43440E-03 43440   0.348E-01    0.151E-01
RMM:   3    -0.937248914179E+01    0.16887E-02   -0.25546E-03 43440   0.200E-01    0.189E-02
RMM:   4    -0.937248540378E+01    0.37380E-05   -0.28882E-05 43443   0.322E-02    0.747E-03
RMM:   5    -0.937248668687E+01   -0.12831E-05   -0.38664E-06 43440   0.106E-02    0.217E-03
RMM:   6    -0.937248702391E+01   -0.33704E-06   -0.61608E-07 43460   0.407E-03    0.673E-04
RMM:   7    -0.937248705888E+01   -0.34972E-07   -0.88563E-08 34995   0.158E-03
  16 F= -.93724871E+01 E0= -.93724871E+01  d E =-.329153E-12
 Finite differences progress:
  Degree of freedom:   4/  8
  Displacement:        3/  4
  Total:              15/ 32
 generate k-points for:   19   19   19
 bond charge predicted
       N       E                     dE             d eps       ncg     rms          rms(c)
DAV:   1    -0.937036995400E+01    0.21171E-02   -0.24677E-01 67044   0.184E+00    0.136E-01
RMM:   2    -0.936980121598E+01    0.56874E-03   -0.46801E-03 43440   0.392E-01    0.767E-02
RMM:   3    -0.936936768048E+01    0.43354E-03   -0.68720E-04 43440   0.110E-01    0.911E-03
RMM:   4    -0.936936713366E+01    0.54682E-06   -0.97122E-06 43690   0.197E-02    0.495E-03
RMM:   5    -0.936936733274E+01   -0.19908E-06   -0.18281E-06 43440   0.724E-03    0.104E-03
RMM:   6    -0.936936742091E+01   -0.88167E-07   -0.22820E-07 41123   0.252E-03
  17 F= -.93693674E+01 E0= -.93693674E+01  d E =-.738968E-12
 Finite differences progress:
  Degree of freedom:   4/  8
  Displacement:        4/  4
  Total:              16/ 32
 generate k-points for:   19   19   19
 bond charge predicted
       N       E                     dE             d eps       ncg     rms          rms(c)
DAV:   1    -0.938046495131E+01   -0.11098E-01   -0.50849E-01 64080   0.256E+00    0.341E-01
RMM:   2    -0.937396892819E+01    0.64960E-02   -0.11310E-02 43440   0.584E-01    0.203E-01
RMM:   3    -0.936947780050E+01    0.44911E-02   -0.52670E-03 43440   0.289E-01    0.367E-02
RMM:   4    -0.936935733793E+01    0.12046E-03   -0.17790E-04 43440   0.631E-02    0.131E-02
RMM:   5    -0.936934703443E+01    0.10303E-04   -0.45988E-05 43440   0.290E-02    0.354E-03
RMM:   6    -0.936936117605E+01   -0.14142E-04   -0.27149E-06 43480   0.812E-03    0.875E-04
RMM:   7    -0.936936665994E+01   -0.54839E-05   -0.21845E-07 40962   0.261E-03    0.443E-04
RMM:   8    -0.936936720215E+01   -0.54220E-06   -0.30467E-08 29390   0.103E-03    0.516E-05
RMM:   9    -0.936936740978E+01   -0.20763E-06   -0.52945E-09 26446   0.514E-04    0.228E-05
RMM:  10    -0.936936739012E+01    0.19659E-07   -0.11171E-09 16252   0.290E-04
  18 F= -.93693674E+01 E0= -.93693674E+01  d E =-.672655E-12
 Finite differences progress:
  Degree of freedom:   5/  8
  Displacement:        1/  4
  Total:              17/ 32
 generate k-points for:   19   19   19
 bond charge predicted
       N       E                     dE             d eps       ncg     rms          rms(c)
DAV:   1    -0.937366630552E+01   -0.42989E-02   -0.17965E-01 68112   0.160E+00    0.140E-01
RMM:   2    -0.937289260808E+01    0.77370E-03   -0.33767E-03 43440   0.333E-01    0.746E-02
RMM:   3    -0.937248703007E+01    0.40558E-03   -0.65533E-04 43440   0.108E-01    0.989E-03
RMM:   4    -0.937248669900E+01    0.33108E-06   -0.13418E-05 43440   0.215E-02    0.318E-03
RMM:   5    -0.937248694758E+01   -0.24859E-06   -0.87754E-07 43581   0.557E-03    0.124E-03
RMM:   6    -0.937248702623E+01   -0.78651E-07   -0.18743E-07 39927   0.238E-03
  19 F= -.93724870E+01 E0= -.93724870E+01  d E =-.335606E-12
 Finite differences progress:
  Degree of freedom:   5/  8
  Displacement:        2/  4
  Total:              18/ 32
 generate k-points for:   19   19   19
 bond charge predicted
       N       E                     dE             d eps       ncg     rms          rms(c)
DAV:   1    -0.937805541035E+01   -0.55685E-02   -0.14453E-01 67008   0.141E+00    0.274E-01
RMM:   2    -0.937417873101E+01    0.38767E-02   -0.40889E-03 43440   0.338E-01    0.151E-01
RMM:   3    -0.937248934665E+01    0.16894E-02   -0.25561E-03 43440   0.200E-01    0.189E-02
RMM:   4    -0.937248544265E+01    0.39040E-05   -0.28522E-05 43440   0.320E-02    0.748E-03
RMM:   5    -0.937248669052E+01   -0.12479E-05   -0.38846E-06 43440   0.106E-02    0.216E-03
RMM:   6    -0.937248701225E+01   -0.32173E-06   -0.60134E-07 43441   0.401E-03    0.681E-04
RMM:   7    -0.937248704729E+01   -0.35041E-07   -0.88928E-08 35025   0.158E-03
  20 F= -.93724870E+01 E0= -.93724870E+01  d E =-.326495E-12
 Finite differences progress:
  Degree of freedom:   5/  8
  Displacement:        3/  4
  Total:              19/ 32
 generate k-points for:   19   19   19
 bond charge predicted
       N       E                     dE             d eps       ncg     rms          rms(c)
DAV:   1    -0.937038382280E+01    0.21032E-02   -0.24283E-01 67284   0.184E+00    0.135E-01
RMM:   2    -0.936980263069E+01    0.58119E-03   -0.45347E-03 43440   0.386E-01    0.768E-02
RMM:   3    -0.936936761364E+01    0.43502E-03   -0.68322E-04 43440   0.109E-01    0.908E-03
RMM:   4    -0.936936708193E+01    0.53171E-06   -0.93886E-06 43738   0.194E-02    0.491E-03
RMM:   5    -0.936936732609E+01   -0.24416E-06   -0.17869E-06 43440   0.714E-03    0.103E-03
RMM:   6    -0.936936741290E+01   -0.86816E-07   -0.21980E-07 40943   0.247E-03
  21 F= -.93693674E+01 E0= -.93693674E+01  d E =-.734607E-12
 Finite differences progress:
  Degree of freedom:   5/  8
  Displacement:        4/  4
  Total:              20/ 32
 generate k-points for:   19   19   19
 bond charge predicted
       N       E                     dE             d eps       ncg     rms          rms(c)
DAV:   1    -0.938014343878E+01   -0.10776E-01   -0.45265E-01 66264   0.248E+00    0.339E-01
RMM:   2    -0.937384381174E+01    0.62996E-02   -0.10128E-02 43440   0.549E-01    0.203E-01
RMM:   3    -0.936955059704E+01    0.42932E-02   -0.52981E-03 43440   0.290E-01    0.355E-02
RMM:   4    -0.936940626217E+01    0.14433E-03   -0.15759E-04 43440   0.601E-02    0.133E-02
RMM:   5    -0.936936913777E+01    0.37124E-04   -0.47162E-05 43440   0.291E-02    0.332E-03
RMM:   6    -0.936936758015E+01    0.15576E-05   -0.23807E-06 43442   0.767E-03    0.839E-04
RMM:   7    -0.936936743123E+01    0.14892E-06   -0.19217E-07 40029   0.246E-03    0.438E-04
RMM:   8    -0.936936739123E+01    0.39996E-07   -0.29700E-08 29230   0.101E-03
  22 F= -.93693674E+01 E0= -.93693674E+01  d E =-.652395E-12
 Finite differences progress:
  Degree of freedom:   6/  8
  Displacement:        1/  4
  Total:              21/ 32
 generate k-points for:   19   19   19
 bond charge predicted
       N       E                     dE             d eps       ncg     rms          rms(c)
DAV:   1    -0.937369417474E+01   -0.43267E-02   -0.17270E-01 70212   0.161E+00    0.140E-01
RMM:   2    -0.937289110590E+01    0.80307E-03   -0.31063E-03 43440   0.317E-01    0.746E-02
RMM:   3    -0.937248685193E+01    0.40425E-03   -0.65279E-04 43440   0.108E-01    0.991E-03
RMM:   4    -0.937248681924E+01    0.32692E-07   -0.14818E-05 43440   0.222E-02    0.265E-03
RMM:   5    -0.937248694287E+01   -0.12363E-06   -0.64746E-07 43712   0.508E-03    0.133E-03
RMM:   6    -0.937248703088E+01   -0.88011E-07   -0.19450E-07 40110   0.239E-03
  23 F= -.93724870E+01 E0= -.93724870E+01  d E =-.343682E-12
 Finite differences progress:
  Degree of freedom:   6/  8
  Displacement:        2/  4
  Total:              22/ 32
 generate k-points for:   19   19   19
 bond charge predicted
       N       E                     dE             d eps       ncg     rms          rms(c)
DAV:   1    -0.937806680484E+01   -0.55799E-02   -0.13901E-01 67956   0.139E+00    0.274E-01
RMM:   2    -0.937417784893E+01    0.38890E-02   -0.39203E-03 43440   0.330E-01    0.151E-01
RMM:   3    -0.937248938565E+01    0.16885E-02   -0.25557E-03 43440   0.200E-01    0.189E-02
RMM:   4    -0.937248543590E+01    0.39498E-05   -0.28397E-05 43440   0.319E-02    0.742E-03
RMM:   5    -0.937248669652E+01   -0.12606E-05   -0.38704E-06 43440   0.106E-02    0.215E-03
RMM:   6    -0.937248701441E+01   -0.31788E-06   -0.59006E-07 43442   0.397E-03    0.665E-04
RMM:   7    -0.937248704909E+01   -0.34681E-07   -0.87750E-08 34941   0.157E-03
  24 F= -.93724870E+01 E0= -.93724870E+01  d E =-.326153E-12
 Finite differences progress:
  Degree of freedom:   6/  8
  Displacement:        3/  4
  Total:              23/ 32
 generate k-points for:   19   19   19
 bond charge predicted
       N       E                     dE             d eps       ncg     rms          rms(c)
DAV:   1    -0.937038536012E+01    0.21017E-02   -0.24493E-01 67860   0.185E+00    0.135E-01
RMM:   2    -0.936980407516E+01    0.58128E-03   -0.45011E-03 43440   0.386E-01    0.769E-02
RMM:   3    -0.936936784666E+01    0.43623E-03   -0.68615E-04 43440   0.109E-01    0.913E-03
RMM:   4    -0.936936713916E+01    0.70750E-06   -0.91311E-06 43729   0.192E-02    0.493E-03
RMM:   5    -0.936936732619E+01   -0.18703E-06   -0.17785E-06 43440   0.710E-03    0.103E-03
RMM:   6    -0.936936741179E+01   -0.85598E-07   -0.21711E-07 40893   0.244E-03
  25 F= -.93693674E+01 E0= -.93693674E+01  d E =-.735463E-12
 Finite differences progress:
  Degree of freedom:   6/  8
  Displacement:        4/  4
  Total:              24/ 32
 generate k-points for:   19   19   19
 bond charge predicted
       N       E                     dE             d eps       ncg     rms          rms(c)
DAV:   1    -0.937727330924E+01   -0.79060E-02   -0.21155E-01 37488   0.196E+00    0.209E-01
RMM:   2    -0.937457253030E+01    0.27008E-02   -0.51104E-03 24000   0.405E-01    0.138E-01
RMM:   3    -0.937177603172E+01    0.27965E-02   -0.36686E-03 24000   0.246E-01    0.135E-02
RMM:   4    -0.937178106207E+01   -0.50304E-05   -0.49391E-05 24000   0.399E-02    0.722E-03
RMM:   5    -0.937178134731E+01   -0.28525E-06   -0.61240E-06 24005   0.133E-02    0.705E-04
RMM:   6    -0.937178138503E+01   -0.37712E-07   -0.39592E-07 23898   0.384E-03
  26 F= -.93717814E+01 E0= -.93717814E+01  d E =-.222853E-37
 Finite differences progress:
  Degree of freedom:   7/  8
  Displacement:        1/  4
  Total:              25/ 32
 generate k-points for:   19   19   19
 bond charge predicted
       N       E                     dE             d eps       ncg     rms          rms(c)
DAV:   1    -0.937297404272E+01   -0.11927E-02   -0.51735E-02 27504   0.112E+00    0.227E-02
RMM:   2    -0.937308165879E+01   -0.10762E-03   -0.10224E-03 24000   0.180E-01    0.134E-02
RMM:   3    -0.937308993019E+01   -0.82714E-05   -0.44427E-05 24614   0.384E-02    0.275E-03
RMM:   4    -0.937309063354E+01   -0.70335E-06   -0.35137E-06 25133   0.104E-02    0.635E-04
RMM:   5    -0.937309064945E+01   -0.15912E-07   -0.18176E-07 20443   0.240E-03
  27 F= -.93730906E+01 E0= -.93730906E+01  d E =-.365266E-59
 Finite differences progress:
  Degree of freedom:   7/  8
  Displacement:        2/  4
  Total:              26/ 32
 generate k-points for:   19   19   19
 bond charge predicted
       N       E                     dE             d eps       ncg     rms          rms(c)
DAV:   1    -0.937299520463E+01    0.95429E-04   -0.22805E-02 28584   0.697E-01    0.424E-02
RMM:   2    -0.937306862767E+01   -0.73423E-04   -0.45806E-04 24000   0.115E-01    0.274E-02
RMM:   3    -0.937309059016E+01   -0.21962E-04   -0.36111E-05 24001   0.390E-02    0.252E-03
RMM:   4    -0.937309062921E+01   -0.39041E-07   -0.24576E-06 24809   0.825E-03    0.144E-03
RMM:   5    -0.937309064372E+01   -0.14513E-07   -0.39024E-07 23951   0.316E-03
  28 F= -.93730906E+01 E0= -.93730906E+01  d E =-.366383E-59
 Finite differences progress:
  Degree of freedom:   7/  8
  Displacement:        3/  4
  Total:              27/ 32
 generate k-points for:   19   19   19
 bond charge predicted
       N       E                     dE             d eps       ncg     rms          rms(c)
DAV:   1    -0.937165864973E+01    0.14320E-02   -0.51954E-02 26184   0.112E+00    0.208E-02
RMM:   2    -0.937177334123E+01   -0.11469E-03   -0.10621E-03 24000   0.182E-01    0.142E-02
RMM:   3    -0.937178035302E+01   -0.70118E-05   -0.45525E-05 25085   0.391E-02    0.500E-03
RMM:   4    -0.937178141113E+01   -0.10581E-05   -0.30400E-06 24184   0.106E-02    0.850E-04
RMM:   5    -0.937178141436E+01   -0.32332E-08   -0.31552E-07 21789   0.301E-03
  29 F= -.93717814E+01 E0= -.93717814E+01  d E =-.207318E-37
 Finite differences progress:
  Degree of freedom:   7/  8
  Displacement:        4/  4
  Total:              28/ 32
 generate k-points for:   19   19   19
 bond charge predicted
       N       E                     dE             d eps       ncg     rms          rms(c)
DAV:   1    -0.937116825728E+01    0.61315E-03   -0.27347E-01 25872   0.227E+00    0.104E-01
RMM:   2    -0.937179029696E+01   -0.62204E-03   -0.69804E-03 24000   0.486E-01    0.560E-02
RMM:   3    -0.937177767375E+01    0.12623E-04   -0.19471E-04 24000   0.874E-02    0.143E-02
RMM:   4    -0.937178108982E+01   -0.34161E-05   -0.16582E-05 24028   0.253E-02    0.306E-03
RMM:   5    -0.937178145115E+01   -0.36133E-06   -0.19865E-06 24119   0.849E-03    0.647E-04
RMM:   6    -0.937178144766E+01    0.34827E-08   -0.17042E-07 18323   0.267E-03
  30 F= -.93717814E+01 E0= -.93717814E+01  d E =-.222742E-37
 Finite differences progress:
  Degree of freedom:   8/  8
  Displacement:        1/  4
  Total:              29/ 32
 generate k-points for:   19   19   19
 bond charge predicted
       N       E                     dE             d eps       ncg     rms          rms(c)
DAV:   1    -0.937262588548E+01   -0.84443E-03   -0.26541E-01 24240   0.206E+00    0.384E-02
RMM:   2    -0.937310171157E+01   -0.47583E-03   -0.50081E-03 24000   0.412E-01    0.250E-02
RMM:   3    -0.937309064575E+01    0.11066E-04   -0.71095E-05 24000   0.528E-02    0.593E-03
RMM:   4    -0.937309063462E+01    0.11129E-07   -0.35118E-06 24000   0.121E-02    0.129E-03
RMM:   5    -0.937309066449E+01   -0.29872E-07   -0.30060E-07 21302   0.335E-03
  31 F= -.93730907E+01 E0= -.93730907E+01  d E =-.379842E-59
 Finite differences progress:
  Degree of freedom:   8/  8
  Displacement:        2/  4
  Total:              30/ 32
 generate k-points for:   19   19   19
 bond charge predicted
       N       E                     dE             d eps       ncg     rms          rms(c)
DAV:   1    -0.937299797611E+01    0.92659E-04   -0.12272E-01 27036   0.130E+00    0.830E-02
RMM:   2    -0.937313130890E+01   -0.13333E-03   -0.22772E-03 24000   0.262E-01    0.467E-02
RMM:   3    -0.937309042145E+01    0.40887E-04   -0.70530E-05 24000   0.471E-02    0.592E-03
RMM:   4    -0.937309060541E+01   -0.18396E-06   -0.20866E-06 24000   0.896E-03    0.285E-03
RMM:   5    -0.937309066829E+01   -0.62884E-07   -0.58446E-07 24000   0.418E-03
  32 F= -.93730907E+01 E0= -.93730907E+01  d E =-.367962E-59
 Finite differences progress:
  Degree of freedom:   8/  8
  Displacement:        3/  4
  Total:              31/ 32
 generate k-points for:   19   19   19
 bond charge predicted
       N       E                     dE             d eps       ncg     rms          rms(c)
DAV:   1    -0.937129758649E+01    0.17930E-02   -0.27326E-01 25668   0.208E+00    0.475E-02
RMM:   2    -0.937179326462E+01   -0.49568E-03   -0.52235E-03 24000   0.420E-01    0.223E-02
RMM:   3    -0.937178199990E+01    0.11265E-04   -0.71317E-05 24000   0.533E-02    0.869E-03
RMM:   4    -0.937178146643E+01    0.53347E-06   -0.53994E-06 24001   0.134E-02    0.146E-03
RMM:   5    -0.937178149068E+01   -0.24249E-07   -0.48832E-07 23917   0.382E-03
  33 F= -.93717815E+01 E0= -.93717815E+01  d E =-.232161E-37
 Finite differences progress:
  Degree of freedom:   8/  8
  Displacement:        4/  4
  Total:              32/ 32
 generate k-points for:   19   19   19
