unknown system                          
           1
     0.000000    2.866709    2.866709
     2.866709    0.000000    2.866709
     2.866709    2.866709    0.000000
   Al   As
   1   1
Direct configuration=     1
   0.00000000  0.00000000  0.00000000
   0.75000000  0.75000000  0.75000000
unknown system                          
           1
     0.000000    2.866709    2.866709
     2.924043    0.000000    2.866709
     2.924043    2.866709    0.000000
   Al   As
   1   1
Direct configuration=     2
   0.00000000  0.00000000  0.00000000
   0.75000000  0.75000000  0.75000000
unknown system                          
           1
     0.000000    2.866709    2.866709
     2.895376    0.000000    2.866709
     2.895376    2.866709    0.000000
   Al   As
   1   1
Direct configuration=     3
   0.00000000  0.00000000  0.00000000
   0.75000000  0.75000000  0.75000000
unknown system                          
           1
     0.000000    2.866709    2.866709
     2.838042    0.000000    2.866709
     2.838042    2.866709    0.000000
   Al   As
   1   1
Direct configuration=     4
   0.00000000  0.00000000  0.00000000
   0.75000000  0.75000000  0.75000000
unknown system                          
           1
     0.000000    2.866709    2.866709
     2.809375    0.000000    2.866709
     2.809375    2.866709    0.000000
   Al   As
   1   1
Direct configuration=     5
   0.00000000  0.00000000  0.00000000
   0.75000000  0.75000000  0.75000000
unknown system                          
           1
     0.000000    2.924043    2.866709
     2.866709    0.000000    2.866709
     2.866709    2.924043    0.000000
   Al   As
   1   1
Direct configuration=     6
   0.00000000  0.00000000  0.00000000
   0.75000000  0.75000000  0.75000000
unknown system                          
           1
     0.000000    2.895376    2.866709
     2.866709    0.000000    2.866709
     2.866709    2.895376    0.000000
   Al   As
   1   1
Direct configuration=     7
   0.00000000  0.00000000  0.00000000
   0.75000000  0.75000000  0.75000000
unknown system                          
           1
     0.000000    2.838042    2.866709
     2.866709    0.000000    2.866709
     2.866709    2.838042    0.000000
   Al   As
   1   1
Direct configuration=     8
   0.00000000  0.00000000  0.00000000
   0.75000000  0.75000000  0.75000000
unknown system                          
           1
     0.000000    2.809375    2.866709
     2.866709    0.000000    2.866709
     2.866709    2.809375    0.000000
   Al   As
   1   1
Direct configuration=     9
   0.00000000  0.00000000  0.00000000
   0.75000000  0.75000000  0.75000000
unknown system                          
           1
     0.000000    2.866709    2.924043
     2.866709    0.000000    2.924043
     2.866709    2.866709    0.000000
   Al   As
   1   1
Direct configuration=    10
   0.00000000  0.00000000  0.00000000
   0.75000000  0.75000000  0.75000000
unknown system                          
           1
     0.000000    2.866709    2.895376
     2.866709    0.000000    2.895376
     2.866709    2.866709    0.000000
   Al   As
   1   1
Direct configuration=    11
   0.00000000  0.00000000  0.00000000
   0.75000000  0.75000000  0.75000000
unknown system                          
           1
     0.000000    2.866709    2.838042
     2.866709    0.000000    2.838042
     2.866709    2.866709    0.000000
   Al   As
   1   1
Direct configuration=    12
   0.00000000  0.00000000  0.00000000
   0.75000000  0.75000000  0.75000000
unknown system                          
           1
     0.000000    2.866709    2.809375
     2.866709    0.000000    2.809375
     2.866709    2.866709    0.000000
   Al   As
   1   1
Direct configuration=    13
   0.00000000  0.00000000  0.00000000
   0.75000000  0.75000000  0.75000000
unknown system                          
           1
     0.000000    2.866709    2.866709
     2.866709    0.057334    2.866709
     2.866709    2.924043    0.000000
   Al   As
   1   1
Direct configuration=    14
   0.00000000  0.00000000  0.00000000
   0.75000000  0.75000000  0.75000000
unknown system                          
           1
     0.000000    2.866709    2.866709
     2.866709    0.028667    2.866709
     2.866709    2.895376    0.000000
   Al   As
   1   1
Direct configuration=    15
   0.00000000  0.00000000  0.00000000
   0.75000000  0.75000000  0.75000000
unknown system                          
           1
     0.000000    2.866709    2.866709
     2.866709   -0.028667    2.866709
     2.866709    2.838042    0.000000
   Al   As
   1   1
Direct configuration=    16
   0.00000000  0.00000000  0.00000000
   0.75000000  0.75000000  0.75000000
unknown system                          
           1
     0.000000    2.866709    2.866709
     2.866709   -0.057334    2.866709
     2.866709    2.809375    0.000000
   Al   As
   1   1
Direct configuration=    17
   0.00000000  0.00000000  0.00000000
   0.75000000  0.75000000  0.75000000
unknown system                          
           1
     0.000000    2.866709    2.924043
     2.866709    0.000000    2.866709
     2.866709    2.866709    0.057334
   Al   As
   1   1
Direct configuration=    18
   0.00000000  0.00000000  0.00000000
   0.75000000  0.75000000  0.75000000
unknown system                          
           1
     0.000000    2.866709    2.895376
     2.866709    0.000000    2.866709
     2.866709    2.866709    0.028667
   Al   As
   1   1
Direct configuration=    19
   0.00000000  0.00000000  0.00000000
   0.75000000  0.75000000  0.75000000
unknown system                          
           1
     0.000000    2.866709    2.838042
     2.866709    0.000000    2.866709
     2.866709    2.866709   -0.028667
   Al   As
   1   1
Direct configuration=    20
   0.00000000  0.00000000  0.00000000
   0.75000000  0.75000000  0.75000000
unknown system                          
           1
     0.000000    2.866709    2.809375
     2.866709    0.000000    2.866709
     2.866709    2.866709   -0.057334
   Al   As
   1   1
Direct configuration=    21
   0.00000000  0.00000000  0.00000000
   0.75000000  0.75000000  0.75000000
unknown system                          
           1
     0.057334    2.866709    2.866709
     2.924043    0.000000    2.866709
     2.866709    2.866709    0.000000
   Al   As
   1   1
Direct configuration=    22
   0.00000000  0.00000000  0.00000000
   0.75000000  0.75000000  0.75000000
unknown system                          
           1
     0.028667    2.866709    2.866709
     2.895376    0.000000    2.866709
     2.866709    2.866709    0.000000
   Al   As
   1   1
Direct configuration=    23
   0.00000000  0.00000000  0.00000000
   0.75000000  0.75000000  0.75000000
unknown system                          
           1
    -0.028667    2.866709    2.866709
     2.838042    0.000000    2.866709
     2.866709    2.866709    0.000000
   Al   As
   1   1
Direct configuration=    24
   0.00000000  0.00000000  0.00000000
   0.75000000  0.75000000  0.75000000
unknown system                          
           1
    -0.057334    2.866709    2.866709
     2.809375    0.000000    2.866709
     2.866709    2.866709    0.000000
   Al   As
   1   1
Direct configuration=    25
   0.00000000  0.00000000  0.00000000
   0.75000000  0.75000000  0.75000000
unknown system                          
           1
     0.000000    2.866709    2.866709
     2.866709    0.000000    2.866709
     2.866709    2.866709    0.000000
   Al   As
   1   1
Direct configuration=    26
  -0.00348832  0.00348832  0.00348832
   0.75000000  0.75000000  0.75000000
unknown system                          
           1
     0.000000    2.866709    2.866709
     2.866709    0.000000    2.866709
     2.866709    2.866709    0.000000
   Al   As
   1   1
Direct configuration=    27
  -0.00174416  0.00174416  0.00174416
   0.75000000  0.75000000  0.75000000
unknown system                          
           1
     0.000000    2.866709    2.866709
     2.866709    0.000000    2.866709
     2.866709    2.866709    0.000000
   Al   As
   1   1
Direct configuration=    28
   0.00174416 -0.00174416 -0.00174416
   0.75000000  0.75000000  0.75000000
unknown system                          
           1
     0.000000    2.866709    2.866709
     2.866709    0.000000    2.866709
     2.866709    2.866709    0.000000
   Al   As
   1   1
Direct configuration=    29
   0.00348832 -0.00348832 -0.00348832
   0.75000000  0.75000000  0.75000000
unknown system                          
           1
     0.000000    2.866709    2.866709
     2.866709    0.000000    2.866709
     2.866709    2.866709    0.000000
   Al   As
   1   1
Direct configuration=    30
   0.00000000  0.00000000  0.00000000
   0.74651168  0.75348832  0.75348832
unknown system                          
           1
     0.000000    2.866709    2.866709
     2.866709    0.000000    2.866709
     2.866709    2.866709    0.000000
   Al   As
   1   1
Direct configuration=    31
   0.00000000  0.00000000  0.00000000
   0.74825584  0.75174416  0.75174416
unknown system                          
           1
     0.000000    2.866709    2.866709
     2.866709    0.000000    2.866709
     2.866709    2.866709    0.000000
   Al   As
   1   1
Direct configuration=    32
   0.00000000  0.00000000  0.00000000
   0.75174416  0.74825584  0.74825584
unknown system                          
           1
     0.000000    2.866709    2.866709
     2.866709    0.000000    2.866709
     2.866709    2.866709    0.000000
   Al   As
   1   1
Direct configuration=    33
   0.00000000  0.00000000  0.00000000
   0.75348832  0.74651168  0.74651168
