   3   3   0   0
  0.2249656E+02  0.4570013E-09  0.4570013E-09  0.4570013E-09  0.5000000E-15
  1.000000000000000E-004
  CAR
 unknown system
     15.52279487    -30.94071765  301     10.74562533      1.00000000
    -30.941  0.0000E+00  0.0000E+00
    -30.786  0.0000E+00  0.0000E+00
    -30.631  0.0000E+00  0.0000E+00
    -30.476  0.0000E+00  0.0000E+00
    -30.321  0.0000E+00  0.0000E+00
    -30.166  0.0000E+00  0.0000E+00
    -30.011  0.0000E+00  0.0000E+00
    -29.857  0.0000E+00  0.0000E+00
    -29.702  0.0000E+00  0.0000E+00
    -29.547  0.0000E+00  0.0000E+00
    -29.392  0.0000E+00  0.0000E+00
    -29.237  0.0000E+00  0.0000E+00
    -29.082  0.0000E+00  0.0000E+00
    -28.927  0.0000E+00  0.0000E+00
    -28.772  0.1291E+02  0.2000E+01
    -28.618  0.0000E+00  0.2000E+01
    -28.463  0.0000E+00  0.2000E+01
    -28.308  0.0000E+00  0.2000E+01
    -28.153  0.0000E+00  0.2000E+01
    -27.998  0.0000E+00  0.2000E+01
    -27.843  0.0000E+00  0.2000E+01
    -27.688  0.0000E+00  0.2000E+01
    -27.533  0.0000E+00  0.2000E+01
    -27.379  0.0000E+00  0.2000E+01
    -27.224  0.0000E+00  0.2000E+01
    -27.069  0.0000E+00  0.2000E+01
    -26.914  0.0000E+00  0.2000E+01
    -26.759  0.0000E+00  0.2000E+01
    -26.604  0.0000E+00  0.2000E+01
    -26.449  0.0000E+00  0.2000E+01
    -26.294  0.0000E+00  0.2000E+01
    -26.139  0.0000E+00  0.2000E+01
    -25.985  0.0000E+00  0.2000E+01
    -25.830  0.0000E+00  0.2000E+01
    -25.675  0.0000E+00  0.2000E+01
    -25.520  0.0000E+00  0.2000E+01
    -25.365  0.0000E+00  0.2000E+01
    -25.210  0.0000E+00  0.2000E+01
    -25.055  0.0000E+00  0.2000E+01
    -24.900  0.0000E+00  0.2000E+01
    -24.746  0.0000E+00  0.2000E+01
    -24.591  0.0000E+00  0.2000E+01
    -24.436  0.0000E+00  0.2000E+01
    -24.281  0.0000E+00  0.2000E+01
    -24.126  0.0000E+00  0.2000E+01
    -23.971  0.0000E+00  0.2000E+01
    -23.816  0.0000E+00  0.2000E+01
    -23.661  0.0000E+00  0.2000E+01
    -23.507  0.0000E+00  0.2000E+01
    -23.352  0.0000E+00  0.2000E+01
    -23.197  0.0000E+00  0.2000E+01
    -23.042  0.0000E+00  0.2000E+01
    -22.887  0.0000E+00  0.2000E+01
    -22.732  0.0000E+00  0.2000E+01
    -22.577  0.0000E+00  0.2000E+01
    -22.422  0.0000E+00  0.2000E+01
    -22.268  0.0000E+00  0.2000E+01
    -22.113  0.0000E+00  0.2000E+01
    -21.958  0.0000E+00  0.2000E+01
    -21.803  0.0000E+00  0.2000E+01
    -21.648  0.0000E+00  0.2000E+01
    -21.493  0.0000E+00  0.2000E+01
    -21.338  0.0000E+00  0.2000E+01
    -21.183  0.0000E+00  0.2000E+01
    -21.029  0.0000E+00  0.2000E+01
    -20.874  0.0000E+00  0.2000E+01
    -20.719  0.0000E+00  0.2000E+01
    -20.564  0.0000E+00  0.2000E+01
    -20.409  0.0000E+00  0.2000E+01
    -20.254  0.0000E+00  0.2000E+01
    -20.099  0.0000E+00  0.2000E+01
    -19.944  0.0000E+00  0.2000E+01
    -19.789  0.0000E+00  0.2000E+01
    -19.635  0.0000E+00  0.2000E+01
    -19.480  0.0000E+00  0.2000E+01
    -19.325  0.0000E+00  0.2000E+01
    -19.170  0.0000E+00  0.2000E+01
    -19.015  0.0000E+00  0.2000E+01
    -18.860  0.0000E+00  0.2000E+01
    -18.705  0.0000E+00  0.2000E+01
    -18.550  0.0000E+00  0.2000E+01
    -18.396  0.0000E+00  0.2000E+01
    -18.241  0.0000E+00  0.2000E+01
    -18.086  0.0000E+00  0.2000E+01
    -17.931  0.0000E+00  0.2000E+01
    -17.776  0.0000E+00  0.2000E+01
    -17.621  0.0000E+00  0.2000E+01
    -17.466  0.0000E+00  0.2000E+01
    -17.311  0.0000E+00  0.2000E+01
    -17.157  0.0000E+00  0.2000E+01
    -17.002  0.0000E+00  0.2000E+01
    -16.847  0.0000E+00  0.2000E+01
    -16.692  0.0000E+00  0.2000E+01
    -16.537  0.0000E+00  0.2000E+01
    -16.382  0.0000E+00  0.2000E+01
    -16.227  0.0000E+00  0.2000E+01
    -16.072  0.0000E+00  0.2000E+01
    -15.918  0.0000E+00  0.2000E+01
    -15.763  0.0000E+00  0.2000E+01
    -15.608  0.0000E+00  0.2000E+01
    -15.453  0.0000E+00  0.2000E+01
    -15.298  0.0000E+00  0.2000E+01
    -15.143  0.0000E+00  0.2000E+01
    -14.988  0.0000E+00  0.2000E+01
    -14.833  0.0000E+00  0.2000E+01
    -14.678  0.0000E+00  0.2000E+01
    -14.524  0.0000E+00  0.2000E+01
    -14.369  0.0000E+00  0.2000E+01
    -14.214  0.0000E+00  0.2000E+01
    -14.059  0.0000E+00  0.2000E+01
    -13.904  0.0000E+00  0.2000E+01
    -13.749  0.0000E+00  0.2000E+01
    -13.594  0.0000E+00  0.2000E+01
    -13.439  0.0000E+00  0.2000E+01
    -13.285  0.0000E+00  0.2000E+01
    -13.130  0.0000E+00  0.2000E+01
    -12.975  0.0000E+00  0.2000E+01
    -12.820  0.0000E+00  0.2000E+01
    -12.665  0.6135E-11  0.2000E+01
    -12.510  0.4694E+02  0.1200E+02
    -12.355  0.0000E+00  0.1200E+02
    -12.200  0.0000E+00  0.1200E+02
    -12.046  0.0000E+00  0.1200E+02
    -11.891  0.0000E+00  0.1200E+02
    -11.736  0.0000E+00  0.1200E+02
    -11.581  0.0000E+00  0.1200E+02
    -11.426  0.0000E+00  0.1200E+02
    -11.271  0.0000E+00  0.1200E+02
    -11.116  0.0000E+00  0.1200E+02
    -10.961  0.0000E+00  0.1200E+02
    -10.807  0.0000E+00  0.1200E+02
    -10.652  0.0000E+00  0.1200E+02
    -10.497  0.0000E+00  0.1200E+02
    -10.342  0.0000E+00  0.1200E+02
    -10.187  0.0000E+00  0.1200E+02
    -10.032  0.0000E+00  0.1200E+02
     -9.877  0.0000E+00  0.1200E+02
     -9.722  0.0000E+00  0.1200E+02
     -9.568  0.0000E+00  0.1200E+02
     -9.413  0.0000E+00  0.1200E+02
     -9.258  0.0000E+00  0.1200E+02
     -9.103  0.0000E+00  0.1200E+02
     -8.948  0.0000E+00  0.1200E+02
     -8.793  0.0000E+00  0.1200E+02
     -8.638  0.0000E+00  0.1200E+02
     -8.483  0.0000E+00  0.1200E+02
     -8.328  0.0000E+00  0.1200E+02
     -8.174  0.0000E+00  0.1200E+02
     -8.019  0.0000E+00  0.1200E+02
     -7.864  0.0000E+00  0.1200E+02
     -7.709  0.4963E-11  0.1200E+02
     -7.554  0.1727E+01  0.1232E+02
     -7.399  0.5248E+01  0.1380E+02
     -7.244  0.2676E+01  0.1433E+02
     -7.089  0.1049E+02  0.1677E+02
     -6.935  0.0000E+00  0.1800E+02
     -6.780  0.0000E+00  0.1800E+02
     -6.625  0.0000E+00  0.1800E+02
     -6.470  0.0000E+00  0.1800E+02
     -6.315  0.0000E+00  0.1800E+02
     -6.160  0.0000E+00  0.1800E+02
     -6.005  0.0000E+00  0.1800E+02
     -5.850  0.0000E+00  0.1800E+02
     -5.696  0.0000E+00  0.1800E+02
     -5.541  0.0000E+00  0.1800E+02
     -5.386  0.0000E+00  0.1800E+02
     -5.231  0.0000E+00  0.1800E+02
     -5.076  0.0000E+00  0.1800E+02
     -4.921  0.0000E+00  0.1800E+02
     -4.766  0.0000E+00  0.1800E+02
     -4.611  0.0000E+00  0.1800E+02
     -4.457  0.0000E+00  0.1800E+02
     -4.302  0.0000E+00  0.1800E+02
     -4.147  0.0000E+00  0.1800E+02
     -3.992  0.0000E+00  0.1800E+02
     -3.837  0.0000E+00  0.1800E+02
     -3.682  0.0000E+00  0.1800E+02
     -3.527  0.0000E+00  0.1800E+02
     -3.372  0.0000E+00  0.1800E+02
     -3.217  0.0000E+00  0.1800E+02
     -3.063  0.0000E+00  0.1800E+02
     -2.908  0.0000E+00  0.1800E+02
     -2.753  0.0000E+00  0.1800E+02
     -2.598  0.0000E+00  0.1800E+02
     -2.443  0.5878E-02  0.1800E+02
     -2.288  0.3527E-01  0.1801E+02
     -2.133  0.1380E+00  0.1805E+02
     -1.978  0.3527E-01  0.1806E+02
     -1.824  0.3339E-03  0.1810E+02
     -1.669  0.3582E+00  0.1822E+02
     -1.514  0.1559E+01  0.1856E+02
     -1.359  0.1825E+01  0.1904E+02
     -1.204  0.1581E+01  0.1951E+02
     -1.049  0.9875E+00  0.1983E+02
     -0.894  0.5549E+00  0.1997E+02
     -0.739  0.4702E-01  0.2000E+02
     -0.585  0.0000E+00  0.2000E+02
     -0.430  0.0000E+00  0.2000E+02
     -0.275  0.0000E+00  0.2000E+02
     -0.120  0.0000E+00  0.2000E+02
      0.035  0.0000E+00  0.2000E+02
      0.190  0.0000E+00  0.2000E+02
      0.345  0.0000E+00  0.2000E+02
      0.500  0.0000E+00  0.2000E+02
      0.654  0.0000E+00  0.2000E+02
      0.809  0.0000E+00  0.2000E+02
      0.964  0.0000E+00  0.2000E+02
      1.119  0.0000E+00  0.2000E+02
      1.274  0.0000E+00  0.2000E+02
      1.429  0.0000E+00  0.2000E+02
      1.584  0.0000E+00  0.2000E+02
      1.739  0.0000E+00  0.2000E+02
      1.893  0.0000E+00  0.2000E+02
      2.048  0.0000E+00  0.2000E+02
      2.203  0.0000E+00  0.2000E+02
      2.358  0.0000E+00  0.2000E+02
      2.513  0.0000E+00  0.2000E+02
      2.668  0.0000E+00  0.2000E+02
      2.823  0.0000E+00  0.2000E+02
      2.978  0.0000E+00  0.2000E+02
      3.133  0.0000E+00  0.2000E+02
      3.287  0.0000E+00  0.2000E+02
      3.442  0.0000E+00  0.2000E+02
      3.597  0.0000E+00  0.2000E+02
      3.752  0.0000E+00  0.2000E+02
      3.907  0.7267E-01  0.2001E+02
      4.062  0.6219E+00  0.2017E+02
      4.217  0.1300E+01  0.2069E+02
      4.372  0.8527E+00  0.2096E+02
      4.526  0.9167E+00  0.2119E+02
      4.681  0.3030E+01  0.2170E+02
      4.836  0.3372E+01  0.2260E+02
      4.991  0.2462E+01  0.2331E+02
      5.146  0.3060E+01  0.2407E+02
      5.301  0.2679E+01  0.2489E+02
      5.456  0.1242E+01  0.2544E+02
      5.611  0.1634E+01  0.2589E+02
      5.765  0.5577E+00  0.2608E+02
      5.920  0.5086E+01  0.2705E+02
      6.075  0.4121E+01  0.2833E+02
      6.230  0.3157E+01  0.2914E+02
      6.385  0.1933E+01  0.2994E+02
      6.540  0.6383E+00  0.3016E+02
      6.695  0.1264E+01  0.3042E+02
      6.850  0.1615E+01  0.3080E+02
      7.004  0.1410E+01  0.3123E+02
      7.159  0.7819E+00  0.3149E+02
      7.314  0.7011E+00  0.3170E+02
      7.469  0.8467E+00  0.3192E+02
      7.624  0.3180E+00  0.3205E+02
      7.779  0.9978E+00  0.3229E+02
      7.934  0.5307E+00  0.3251E+02
      8.089  0.5610E+00  0.3271E+02
      8.244  0.6546E+00  0.3310E+02
      8.398  0.7363E+00  0.3330E+02
      8.553  0.8278E+00  0.3358E+02
      8.708  0.8176E+00  0.3379E+02
      8.863  0.4752E+01  0.3472E+02
      9.018  0.1713E+01  0.3551E+02
      9.173  0.1260E+01  0.3584E+02
      9.328  0.7471E+00  0.3599E+02
      9.483  0.0000E+00  0.3600E+02
      9.637  0.5876E-02  0.3600E+02
      9.792  0.0000E+00  0.3600E+02
      9.947  0.0000E+00  0.3600E+02
     10.102  0.3100E-07  0.3600E+02
     10.257  0.1647E+00  0.3603E+02
     10.412  0.3567E+00  0.3610E+02
     10.567  0.1172E+01  0.3645E+02
     10.722  0.2467E+01  0.3696E+02
     10.876  0.1725E+01  0.3739E+02
     11.031  0.1501E+01  0.3778E+02
     11.186  0.6644E+00  0.3801E+02
     11.341  0.4113E+00  0.3817E+02
     11.496  0.2116E+00  0.3827E+02
     11.651  0.1075E+01  0.3846E+02
     11.806  0.9669E+00  0.3874E+02
     11.961  0.1157E+01  0.3924E+02
     12.115  0.2145E+01  0.3985E+02
     12.270  0.1778E+01  0.4035E+02
     12.425  0.1395E+01  0.4081E+02
     12.580  0.1863E+01  0.4128E+02
     12.735  0.3633E+01  0.4230E+02
     12.890  0.2069E+01  0.4305E+02
     13.045  0.7053E+01  0.4477E+02
     13.200  0.1903E+01  0.4614E+02
     13.354  0.6488E+01  0.4737E+02
     13.509  0.0000E+00  0.4800E+02
     13.664  0.0000E+00  0.4800E+02
     13.819  0.0000E+00  0.4800E+02
     13.974  0.0000E+00  0.4800E+02
     14.129  0.0000E+00  0.4800E+02
     14.284  0.0000E+00  0.4800E+02
     14.439  0.0000E+00  0.4800E+02
     14.594  0.0000E+00  0.4800E+02
     14.748  0.0000E+00  0.4800E+02
     14.903  0.0000E+00  0.4800E+02
     15.058  0.0000E+00  0.4800E+02
     15.213  0.0000E+00  0.4800E+02
     15.368  0.0000E+00  0.4800E+02
     15.523  0.0000E+00  0.4800E+02
