 vasp.6.0.8 29Jun18 (build Jun 13 2019 12:54:44) complex

 executed on      IFC18_CrayMPICH date 2021.12.05  14:21:47
 running   64 mpi-ranks, with    1 threads/rank
 distrk:  each k-point on   16 cores,    4 groups
 distr:  one band on NCORES_PER_BAND=   4 cores,    4 groups


--------------------------------------------------------------------------------------------------------


 INCAR:
 POTCAR:    PAW_PBE Th 07Sep2000
 POTCAR:    PAW_PBE Bi_d 06Sep2000
 POTCAR:    PAW_PBE Pt 04Feb2005
 POTCAR:    PAW_PBE Th 07Sep2000
   VRHFIN =Th:  [Xe,5d,4f]
   LEXCH  = PE
   EATOM  =   984.7553 eV,   72.3775 Ry

   TITEL  = PAW_PBE Th 07Sep2000
   LULTRA =        F    use ultrasoft PP ?
   IUNSCR =        1    unscreen: 0-lin 1-nonlin 2-no
   RPACOR =    2.200    partial core radius
   POMASS =  232.039; ZVAL   =   12.000    mass and valenz
   RCORE  =    2.800    outmost cutoff radius
   RWIGS  =    3.000; RWIGS  =    1.588    wigner-seitz radius (au A)
   ENMAX  =  247.306; ENMIN  =  185.480 eV
   RCLOC  =    2.211    cutoff for local pot
   LCOR   =        T    correct aug charges
   LPAW   =        T    paw PP
   EAUG   =  535.431
   DEXC   =    0.000
   RMAX   =    2.862    core radius for proj-oper
   RAUG   =    1.300    factor for augmentation sphere
   RDEP   =    2.926    radius for radial grids
   RDEPT  =    2.250    core radius for aug-charge

   Atomic configuration
   18 entries
     n  l   j            E        occ.
     1  0  0.50   -109990.1879   2.0000
     2  0  0.50    -20388.0147   2.0000
     2  1  1.50    -17049.6156   6.0000
     3  0  0.50     -5106.5436   2.0000
     3  1  1.50     -4175.1262   6.0000
     3  2  2.50     -3342.8437  10.0000
     4  0  0.50     -1280.8211   2.0000
     4  1  1.50      -976.4859   6.0000
     4  2  2.50      -661.8358  10.0000
     4  3  3.50      -324.9124  14.0000
     5  0  0.50      -278.7726   2.0000
     5  1  1.50      -186.2212   6.0000
     5  2  2.50       -86.9031  10.0000
     6  0  0.50       -43.3059   2.0000
     7  0  0.50        -4.0783   2.0000
     6  1  1.50       -21.4071   6.0000
     6  2  1.50        -2.3664   1.0000
     5  3  2.50        -1.2804   1.0000
   Description
     l       E           TYP  RCUT    TYP  RCUT
     0    -43.3059201     23  2.800
     0     -4.0782900     23  2.800
     1    -21.4071032     23  2.500
     1    -22.7676858     23  2.500
     2     -2.3664170     23  2.500
     2      3.0546543     23  2.500
     3     -1.2803910     23  2.800
     3      0.1360583     23  2.800
  local pseudopotential read in
  partial core-charges read in
  partial kinetic energy density read in
  atomic valenz-charges read in
  non local Contribution for L=           0  read in
    real space projection operators read in
  non local Contribution for L=           0  read in
    real space projection operators read in
  non local Contribution for L=           1  read in
    real space projection operators read in
  non local Contribution for L=           1  read in
    real space projection operators read in
  non local Contribution for L=           2  read in
    real space projection operators read in
  non local Contribution for L=           2  read in
    real space projection operators read in
  non local Contribution for L=           3  read in
    real space projection operators read in
  non local Contribution for L=           3  read in
    real space projection operators read in
    PAW grid and wavefunctions read in

   number of l-projection  operators is LMAX  =           8
   number of lm-projection operators is LMMAX =          32

 POTCAR:    PAW_PBE Bi_d 06Sep2000
   VRHFIN =Bi:
   LEXCH  = PE
   EATOM  =  1959.2045 eV,  143.9975 Ry

   TITEL  = PAW_PBE Bi_d 06Sep2000
   LULTRA =        F    use ultrasoft PP ?
   IUNSCR =        1    unscreen: 0-lin 1-nonlin 2-no
   RPACOR =    2.200    partial core radius
   POMASS =  208.980; ZVAL   =   15.000    mass and valenz
   RCORE  =    2.500    outmost cutoff radius
   RWIGS  =    3.090; RWIGS  =    1.635    wigner-seitz radius (au A)
   ENMAX  =  242.839; ENMIN  =  182.129 eV
   ICORE  =        3    local potential
   LCOR   =        T    correct aug charges
   LPAW   =        T    paw PP
   EAUG   =  442.899
   DEXC   =    0.000
   RMAX   =    2.551    core radius for proj-oper
   RAUG   =    1.300    factor for augmentation sphere
   RDEP   =    2.650    radius for radial grids
   RDEPT  =    2.039    core radius for aug-charge

   Atomic configuration
   16 entries
     n  l   j            E        occ.
     1  0  0.50    -90639.6581   2.0000
     2  0  0.50    -16282.4666   2.0000
     2  1  1.50    -13922.8286   6.0000
     3  0  0.50     -3930.4763   2.0000
     3  1  1.50     -3256.7013   6.0000
     3  2  2.50     -2581.6168  10.0000
     4  0  0.50      -902.2614   2.0000
     4  1  1.50      -681.5915   6.0000
     4  2  2.50      -429.8249  10.0000
     4  3  3.50      -152.6004  14.0000
     5  0  0.50      -157.7156   2.0000
     5  1  1.50       -95.8054   6.0000
     5  2  2.50       -27.0806  10.0000
     6  0  0.50       -14.4732   2.0000
     6  1  1.50        -4.5702   3.0000
     5  3  2.50        -2.7212   0.0000
   Description
     l       E           TYP  RCUT    TYP  RCUT
     2    -27.0805982     23  2.500
     2     -1.3605826     23  2.500
     0    -14.4732271     23  2.500
     0      6.8029130     23  2.500
     1     -4.5701651     23  2.500
     1     13.6058260     23  2.500
     3     -1.3605826      7  2.500
  local pseudopotential read in
  partial core-charges read in
  partial kinetic energy density read in
  atomic valenz-charges read in
  non local Contribution for L=           2  read in
    real space projection operators read in
  non local Contribution for L=           2  read in
    real space projection operators read in
  non local Contribution for L=           0  read in
    real space projection operators read in
  non local Contribution for L=           0  read in
    real space projection operators read in
  non local Contribution for L=           1  read in
    real space projection operators read in
  non local Contribution for L=           1  read in
    real space projection operators read in
    PAW grid and wavefunctions read in

   number of l-projection  operators is LMAX  =           6
   number of lm-projection operators is LMMAX =          18

 POTCAR:    PAW_PBE Pt 04Feb2005
   VRHFIN =Pt: s1d9
   LEXCH  = PE
   EATOM  =   729.1176 eV,   53.5886 Ry

   TITEL  = PAW_PBE Pt 04Feb2005
   LULTRA =        F    use ultrasoft PP ?
   IUNSCR =        1    unscreen: 0-lin 1-nonlin 2-no
   RPACOR =    2.330    partial core radius
   POMASS =  195.080; ZVAL   =   10.000    mass and valenz
   RCORE  =    2.600    outmost cutoff radius
   RWIGS  =    2.750; RWIGS  =    1.455    wigner-seitz radius (au A)
   ENMAX  =  230.283; ENMIN  =  172.712 eV
   ICORE  =        3    local potential
   LCOR   =        T    correct aug charges
   LPAW   =        T    paw PP
   EAUG   =  358.966
   DEXC   =    0.000
   RMAX   =    2.658    core radius for proj-oper
   RAUG   =    1.300    factor for augmentation sphere
   RDEP   =    2.761    radius for radial grids
   RDEPT  =    2.203    core radius for aug-charge

   Atomic configuration
   16 entries
     n  l   j            E        occ.
     1  0  0.50    -78401.1885   2.0000
     2  0  0.50    -13770.7750   2.0000
     2  1  1.50    -11931.0468   6.0000
     3  0  0.50     -3234.7234   2.0000
     3  1  1.50     -2699.2216   6.0000
     3  2  2.50     -2119.5714  10.0000
     4  0  0.50      -695.1528   2.0000
     4  1  1.50      -519.6034   6.0000
     4  2  2.50      -306.6786  10.0000
     4  3  3.50       -70.1041  14.0000
     5  0  0.50      -101.7747   2.0000
     5  1  1.50       -55.9873   6.0000
     5  2  2.50        -6.1423   9.0000
     6  0  0.50        -5.6573   1.0000
     6  1  1.50        -6.8029   0.0000
     5  3  2.50        -1.3606   0.0000
   Description
     l       E           TYP  RCUT    TYP  RCUT
     2     -6.1423404     23  2.500
     2     -7.5029230     23  2.500
     0     -5.6573207     23  2.500
     0      0.7416693     23  2.500
     1     -2.7211652     23  2.600
     1     20.4087390     23  2.600
     3     -1.3605826     23  2.500
  local pseudopotential read in
  partial core-charges read in
  partial kinetic energy density read in
  atomic valenz-charges read in
  non local Contribution for L=           2  read in
    real space projection operators read in
  non local Contribution for L=           2  read in
    real space projection operators read in
  non local Contribution for L=           0  read in
    real space projection operators read in
  non local Contribution for L=           0  read in
    real space projection operators read in
  non local Contribution for L=           1  read in
    real space projection operators read in
  non local Contribution for L=           1  read in
    real space projection operators read in
    PAW grid and wavefunctions read in

   number of l-projection  operators is LMAX  =           6
   number of lm-projection operators is LMMAX =          18

 WARNING: PSMAXN for non-local potential too small
          PSMAXN should be >   13.5545592237991       NTYP=           1

 -----------------------------------------------------------------------------
|                                                                             |
|  ADVICE TO THIS USER RUNNING 'VASP/VAMP'   (HEAR YOUR MASTER'S VOICE ...):  |
|                                                                             |
|      You enforced a specific xc-type in the INCAR file,                     |
|      a different type was found on the POTCAR file                          |
|          I HOPE YOU KNOW, WHAT YOU ARE  DOING                               |
|                                                                             |
 -----------------------------------------------------------------------------

  PAW_PBE Th 07Sep2000                  :
 energy of atom  1       EATOM= -984.7553
 kinetic energy error for atom=    0.0005 (will be added to EATOM!!)
  PAW_PBE Bi_d 06Sep2000                :
 energy of atom  2       EATOM=-1959.2045
 kinetic energy error for atom=    0.0012 (will be added to EATOM!!)
  PAW_PBE Pt 04Feb2005                  :
 energy of atom  3       EATOM= -729.1176
 kinetic energy error for atom=    0.0010 (will be added to EATOM!!)


 POSCAR: Th1 Bi1 Pt1
  positions in direct lattice
  No initial velocities read in
 exchange correlation table for  LEXCH =       14
   RHO(1)=    0.500       N(1)  =     2000
   RHO(2)=  100.500       N(2)  =     4000



--------------------------------------------------------------------------------------------------------


 ion  position               nearest neighbor table
   1  0.250  0.250  0.250-   3 2.80   3 2.80   3 2.80   3 2.80   2 3.23   2 3.23   2 3.23   2 3.23
                             2 3.23   2 3.23
   2  0.750  0.750  0.750-   3 2.80   3 2.80   3 2.80   3 2.80   1 3.23   1 3.23   1 3.23   1 3.23
                             1 3.23   1 3.23
   3  0.000  0.000  0.000-   2 2.80   2 2.80   2 2.80   1 2.80   2 2.80   1 2.80   1 2.80   1 2.80


  LATTYP: Found a face centered cubic cell.
 ALAT       =     6.4629746751

  Lattice vectors:

 A1 = (   0.0000000000,   3.2314873375,   3.2314873375)
 A2 = (   3.2314873375,   0.0000000000,   3.2314873375)
 A3 = (   3.2314873375,   3.2314873375,   0.0000000000)


Analysis of symmetry for initial positions (statically):
=====================================================================
 Subroutine PRICEL returns:
 Original cell was already a primitive cell.


 Routine SETGRP: Setting up the symmetry group for a
 face centered cubic supercell.


 Subroutine GETGRP returns: Found 24 space group operations
 (whereof 24 operations were pure point group operations)
 out of a pool of 48 trial point group operations.


The static configuration has the point symmetry T_d .


Analysis of symmetry for dynamics (positions and initial velocities):
=====================================================================
 Subroutine PRICEL returns:
 Original cell was already a primitive cell.


 Routine SETGRP: Setting up the symmetry group for a
 face centered cubic supercell.


 Subroutine GETGRP returns: Found 24 space group operations
 (whereof 24 operations were pure point group operations)
 out of a pool of 48 trial point group operations.


The dynamic configuration has the point symmetry T_d .


 Subroutine INISYM returns: Found 24 space group operations
 (whereof 24 operations are pure point group operations),
 and found     1 'primitive' translations


----------------------------------------------------------------------------------------

                                     Primitive cell

  volume of cell :      67.4897

  direct lattice vectors                    reciprocal lattice vectors
     0.000000000  3.231487338  3.231487338    -0.154727513  0.154727513  0.154727513
     3.231487338  0.000000000  3.231487338     0.154727513 -0.154727513  0.154727513
     3.231487338  3.231487338  0.000000000     0.154727513  0.154727513 -0.154727513

  length of vectors
     4.570013219  4.570013219  4.570013219     0.267995914  0.267995914  0.267995914

  position of ions in fractional coordinates (direct lattice)
     0.250000000  0.250000000  0.250000000
     0.750000000  0.750000000  0.750000000
     0.000000000  0.000000000  0.000000000

  ion indices of the primitive-cell ions
   primitive index   ion index
                 1           1
                 2           2
                 3           3

----------------------------------------------------------------------------------------



 KPOINTS: KPOINTS

Automatic generation of k-mesh.
Space group operators:
 irot       det(A)        alpha          n_x          n_y          n_z        tau_x        tau_y        tau_z
    1     1.000000     0.000000     1.000000     0.000000     0.000000     0.000000     0.000000     0.000000
    2     1.000000   120.000000    -0.577350    -0.577350    -0.577350     0.000000     0.000000     0.000000
    3     1.000000   120.000000     0.577350     0.577350     0.577350     0.000000     0.000000     0.000000
    4    -1.000000    90.000000    -0.000000    -0.000000    -1.000000     0.000000     0.000000     0.000000
    5    -1.000000   180.000000     0.000000     0.707107     0.707107     0.000000     0.000000     0.000000
    6    -1.000000    90.000000    -0.000000     1.000000    -0.000000     0.000000     0.000000     0.000000
    7     1.000000   180.000000     0.000000     0.000000    -1.000000     0.000000     0.000000     0.000000
    8     1.000000   120.000000    -0.577350     0.577350     0.577350     0.000000     0.000000     0.000000
    9     1.000000   120.000000    -0.577350     0.577350    -0.577350     0.000000     0.000000     0.000000
   10    -1.000000    90.000000     0.000000     0.000000     1.000000     0.000000     0.000000     0.000000
   11    -1.000000    90.000000    -1.000000     0.000000     0.000000     0.000000     0.000000     0.000000
   12    -1.000000   180.000000     0.707107     0.000000     0.707107     0.000000     0.000000     0.000000
   13     1.000000   120.000000     0.577350    -0.577350     0.577350     0.000000     0.000000     0.000000
   14     1.000000   120.000000    -0.577350    -0.577350     0.577350     0.000000     0.000000     0.000000
   15     1.000000   180.000000     1.000000     0.000000     0.000000     0.000000     0.000000     0.000000
   16    -1.000000    90.000000     0.000000    -1.000000     0.000000     0.000000     0.000000     0.000000
   17    -1.000000   180.000000     0.707107     0.707107    -0.000000     0.000000     0.000000     0.000000
   18    -1.000000    90.000000     1.000000     0.000000     0.000000     0.000000     0.000000     0.000000
   19     1.000000   120.000000     0.577350    -0.577350    -0.577350     0.000000     0.000000     0.000000
   20     1.000000   180.000000    -0.000000    -1.000000     0.000000     0.000000     0.000000     0.000000
   21     1.000000   120.000000     0.577350     0.577350    -0.577350     0.000000     0.000000     0.000000
   22    -1.000000   180.000000    -0.000000    -0.707107     0.707107     0.000000     0.000000     0.000000
   23    -1.000000   180.000000     0.707107    -0.707107     0.000000     0.000000     0.000000     0.000000
   24    -1.000000   180.000000     0.707107     0.000000    -0.707107     0.000000     0.000000     0.000000

 Subroutine IBZKPT returns following result:
 ===========================================

 Found     84 irreducible k-points:

 Following reciprocal coordinates:
            Coordinates               Weight
  0.000000  0.000000  0.000000      1.000000
  0.076923 -0.000000  0.000000      8.000000
  0.153846  0.000000 -0.000000      8.000000
  0.230769  0.000000 -0.000000      8.000000
  0.307692  0.000000 -0.000000      8.000000
  0.384615 -0.000000  0.000000      8.000000
  0.461538 -0.000000  0.000000      8.000000
  0.076923  0.076923 -0.000000      6.000000
  0.153846  0.076923 -0.000000     24.000000
  0.230769  0.076923 -0.000000     24.000000
  0.307692  0.076923  0.000000     24.000000
  0.384615  0.076923 -0.000000     24.000000
  0.461538  0.076923 -0.000000     24.000000
 -0.461538  0.076923 -0.000000     24.000000
 -0.384615  0.076923  0.000000     24.000000
 -0.307692  0.076923 -0.000000     24.000000
 -0.230769  0.076923  0.000000     24.000000
 -0.153846  0.076923  0.000000     24.000000
 -0.076923  0.076923 -0.000000     12.000000
  0.153846  0.153846 -0.000000      6.000000
  0.230769  0.153846 -0.000000     24.000000
  0.307692  0.153846  0.000000     24.000000
  0.384615  0.153846  0.000000     24.000000
  0.461538  0.153846 -0.000000     24.000000
 -0.461538  0.153846  0.000000     24.000000
 -0.384615  0.153846 -0.000000     24.000000
 -0.307692  0.153846 -0.000000     24.000000
 -0.230769  0.153846 -0.000000     24.000000
 -0.153846  0.153846  0.000000     12.000000
  0.230769  0.230769 -0.000000      6.000000
  0.307692  0.230769 -0.000000     24.000000
  0.384615  0.230769  0.000000     24.000000
  0.461538  0.230769  0.000000     24.000000
 -0.461538  0.230769 -0.000000     24.000000
 -0.384615  0.230769  0.000000     24.000000
 -0.307692  0.230769  0.000000     24.000000
 -0.230769  0.230769  0.000000     12.000000
  0.307692  0.307692 -0.000000      6.000000
  0.384615  0.307692 -0.000000     24.000000
  0.461538  0.307692 -0.000000     24.000000
 -0.461538  0.307692 -0.000000     24.000000
 -0.384615  0.307692 -0.000000     24.000000
 -0.307692  0.307692  0.000000     12.000000
  0.384615  0.384615 -0.000000      6.000000
  0.461538  0.384615 -0.000000     24.000000
 -0.461538  0.384615  0.000000     24.000000
 -0.384615  0.384615 -0.000000     12.000000
  0.461538  0.461538 -0.000000      6.000000
 -0.461538  0.461538 -0.000000     12.000000
  0.230769  0.153846  0.076923     24.000000
  0.307692  0.153846  0.076923     48.000000
  0.384615  0.153846  0.076923     48.000000
  0.461538  0.153846  0.076923     48.000000
 -0.461538  0.153846  0.076923     48.000000
  0.307692  0.230769  0.076923     24.000000
  0.384615  0.230769  0.076923     48.000000
  0.461538  0.230769  0.076923     48.000000
 -0.461538  0.230769  0.076923     48.000000
 -0.384615  0.230769  0.076923     48.000000
 -0.307692  0.230769  0.076923     48.000000
 -0.230769  0.230769  0.076923     48.000000
 -0.153846  0.230769  0.076923     24.000000
  0.384615  0.307692  0.076923     24.000000
  0.461538  0.307692  0.076923     48.000000
 -0.461538  0.307692  0.076923     48.000000
 -0.384615  0.307692  0.076923     48.000000
 -0.307692  0.307692  0.076923     48.000000
 -0.230769  0.307692  0.076923     24.000000
  0.461538  0.384615  0.076923     24.000000
 -0.461538  0.384615  0.076923     48.000000
 -0.384615  0.384615  0.076923     48.000000
 -0.307692  0.384615  0.076923     24.000000
 -0.461538  0.461538  0.076923     24.000000
 -0.384615  0.461538  0.076923     24.000000
  0.461538  0.307692  0.153846     24.000000
 -0.461538  0.307692  0.153846     48.000000
 -0.384615  0.307692  0.153846     48.000000
 -0.461538  0.384615  0.153846     24.000000
 -0.384615  0.384615  0.153846     48.000000
 -0.307692  0.384615  0.153846     48.000000
 -0.230769  0.384615  0.153846     24.000000
 -0.384615  0.461538  0.153846     24.000000
 -0.307692  0.461538  0.153846     24.000000
 -0.307692  0.461538  0.230769     24.000000

 Following cartesian coordinates:
            Coordinates               Weight
  0.000000  0.000000  0.000000      1.000000
 -0.011230  0.011230  0.011230      8.000000
 -0.022460  0.022460  0.022460      8.000000
 -0.033690  0.033690  0.033690      8.000000
 -0.044920  0.044920  0.044920      8.000000
 -0.056151  0.056151  0.056151      8.000000
 -0.067381  0.067381  0.067381      8.000000
  0.000000 -0.000000  0.022460      6.000000
 -0.011230  0.011230  0.033690     24.000000
 -0.022460  0.022460  0.044920     24.000000
 -0.033690  0.033690  0.056151     24.000000
 -0.044920  0.044920  0.067381     24.000000
 -0.056151  0.056151  0.078611     24.000000
  0.078611 -0.078611 -0.056151     24.000000
  0.067381 -0.067381 -0.044920     24.000000
  0.056151 -0.056151 -0.033690     24.000000
  0.044920 -0.044920 -0.022460     24.000000
  0.033690 -0.033690 -0.011230     24.000000
  0.022460 -0.022460  0.000000     12.000000
 -0.000000 -0.000000  0.044920      6.000000
 -0.011230  0.011230  0.056151     24.000000
 -0.022460  0.022460  0.067381     24.000000
 -0.033690  0.033690  0.078611     24.000000
 -0.044920  0.044920  0.089841     24.000000
  0.089841 -0.089841 -0.044920     24.000000
  0.078611 -0.078611 -0.033690     24.000000
  0.067381 -0.067381 -0.022460     24.000000
  0.056151 -0.056151 -0.011230     24.000000
  0.044920 -0.044920 -0.000000     12.000000
 -0.000000  0.000000  0.067381      6.000000
 -0.011230  0.011230  0.078611     24.000000
 -0.022460  0.022460  0.089841     24.000000
 -0.033690  0.033690  0.101071     24.000000
  0.101071 -0.101071 -0.033690     24.000000
  0.089841 -0.089841 -0.022460     24.000000
  0.078611 -0.078611 -0.011230     24.000000
  0.067381 -0.067381 -0.000000     12.000000
 -0.000000 -0.000000  0.089841      6.000000
 -0.011230  0.011230  0.101071     24.000000
 -0.022460  0.022460  0.112301     24.000000
  0.112301 -0.112301 -0.022460     24.000000
  0.101071 -0.101071 -0.011230     24.000000
  0.089841 -0.089841 -0.000000     12.000000
 -0.000000 -0.000000  0.112301      6.000000
 -0.011230  0.011230  0.123531     24.000000
  0.123531 -0.123531 -0.011230     24.000000
  0.112301 -0.112301  0.000000     12.000000
  0.000000 -0.000000  0.134761      6.000000
  0.134761 -0.134761  0.000000     12.000000
 -0.000000  0.022460  0.044920     24.000000
 -0.011230  0.033690  0.056151     48.000000
 -0.022460  0.044920  0.067381     48.000000
 -0.033690  0.056151  0.078611     48.000000
  0.101071 -0.078611 -0.056151     48.000000
  0.000000  0.022460  0.067381     24.000000
 -0.011230  0.033690  0.078611     48.000000
 -0.022460  0.044920  0.089841     48.000000
  0.112301 -0.089841 -0.044920     48.000000
  0.101071 -0.078611 -0.033690     48.000000
  0.089841 -0.067381 -0.022460     48.000000
  0.078611 -0.056151 -0.011230     48.000000
  0.067381 -0.044920 -0.000000     24.000000
 -0.000000  0.022460  0.089841     24.000000
 -0.011230  0.033690  0.101071     48.000000
  0.123531 -0.101071 -0.033690     48.000000
  0.112301 -0.089841 -0.022460     48.000000
  0.101071 -0.078611 -0.011230     48.000000
  0.089841 -0.067381 -0.000000     24.000000
  0.000000  0.022460  0.112301     24.000000
  0.134761 -0.112301 -0.022460     48.000000
  0.123531 -0.101071 -0.011230     48.000000
  0.112301 -0.089841  0.000000     24.000000
  0.145991 -0.123531 -0.011230     24.000000
  0.134761 -0.112301 -0.000000     24.000000
 -0.000000  0.044920  0.089841     24.000000
  0.134761 -0.089841 -0.044920     48.000000
  0.123531 -0.078611 -0.033690     48.000000
  0.145991 -0.101071 -0.033690     24.000000
  0.134761 -0.089841 -0.022460     48.000000
  0.123531 -0.078611 -0.011230     48.000000
  0.112301 -0.067381  0.000000     24.000000
  0.145991 -0.101071 -0.011230     24.000000
  0.134761 -0.089841  0.000000     24.000000
  0.145991 -0.078611 -0.011230     24.000000



--------------------------------------------------------------------------------------------------------




 Dimension of arrays:
   k-points           NKPTS =     84   k-points in BZ     NKDIM =     84   number of bands    NBANDS=     24
   number of dos      NEDOS =    301   number of ions     NIONS =      3
   non local maximal  LDIM  =      8   non local SUM 2l+1 LMDIM =     32
   total plane-waves  NPLWV =  64000
   max r-space proj   IRMAX =      1   max aug-charges    IRDMAX= 459631
   dimension x,y,z NGX =    40 NGY =   40 NGZ =   40
   dimension x,y,z NGXF=    80 NGYF=   80 NGZF=   80
   support grid    NGXF=   160 NGYF=  160 NGZF=  160
   ions per type =               1   1   1
   NGX,Y,Z   is equivalent  to a cutoff of  14.55, 14.55, 14.55 a.u.
   NGXF,Y,Z  is equivalent  to a cutoff of  29.10, 29.10, 29.10 a.u.

 SYSTEM =  unknown system
 POSCAR =  Th1 Bi1 Pt1

 Startparameter for this run:
   NWRITE =      2    write-flag & timer
   PREC   = acc       normal or accurate (medium, high low for compatibility)
   ISTART =      0    job   : 0-new  1-cont  2-samecut
   ICHARG =      2    charge: 1-file 2-atom 10-const
   ISPIN  =      1    spin polarized calculation?
   LNONCOLLINEAR =      F non collinear calculations
   LSORBIT =      F    spin-orbit coupling
   INIWAV =      1    electr: 0-lowe 1-rand  2-diag
   LASPH  =      F    aspherical Exc in radial PAW
   METAGGA=      F    non-selfconsistent MetaGGA calc.

 Electronic Relaxation 1
   ENCUT  =  700.0 eV  51.45 Ry    7.17 a.u.   9.86  9.86  9.86*2*pi/ulx,y,z
   ENINI  =  700.0     initial cutoff
   ENAUG  =  535.4 eV  augmentation charge cutoff
   NELM   =     60;   NELMIN=  5; NELMDL= -5     # of ELM steps
   EDIFF  = 0.1E-06   stopping-criterion for ELM
   LREAL  =      F    real-space projection
   NLSPLINE    = F    spline interpolate recip. space projectors
   LCOMPAT=      F    compatible to vasp.4.4
   GGA_COMPAT  = T    GGA compatible to vasp.4.4-vasp.4.6
   LMAXPAW     = -100 max onsite density
   LMAXMIX     =    2 max onsite mixed and CHGCAR
   VOSKOWN=      0    Vosko Wilk Nusair interpolation
   ROPT   =    0.00000   0.00000   0.00000
 Ionic relaxation
   EDIFFG = 0.1E-05   stopping-criterion for IOM
   NSW    =      0    number of steps for IOM
   NBLOCK =      1;   KBLOCK =      1    inner block; outer block
   IBRION =     -1    ionic relax: 0-MD 1-quasi-New 2-CG
   NFREE  =      0    steps in history (QN), initial steepest desc. (CG)
   ISIF   =      3    stress and relaxation
   IWAVPR =     10    prediction:  0-non 1-charg 2-wave 3-comb
   ISYM   =      2    0-nonsym 1-usesym 2-fastsym
   LCORR  =      T    Harris-Foulkes like correction to forces

   POTIM  = 0.5000    time-step for ionic-motion
   TEIN   =    0.0    initial temperature
   TEBEG  =    0.0;   TEEND  =   0.0 temperature during run
   SMASS  =  -3.00    Nose mass-parameter (am)
   estimated Nose-frequenzy (Omega)   =  0.10E-29 period in steps = 0.13E+47 mass=  -0.477E-27a.u.
   SCALEE = 1.0000    scale energy and forces
   NPACO  =    256;   APACO  = 16.0  distance and # of slots for P.C.
   PSTRESS=    0.0 pullay stress

  Mass of Ions in am
   POMASS = 232.04208.98195.08
  Ionic Valenz
   ZVAL   =  12.00 15.00 10.00
  Atomic Wigner-Seitz radii
   RWIGS  =  -1.00 -1.00 -1.00
  virtual crystal weights
   VCA    =   1.00  1.00  1.00
   NELECT =      37.0000    total number of electrons
   NUPDOWN=      -1.0000    fix difference up-down

 DOS related values:
   EMIN   =  10.00;   EMAX   =-10.00  energy-range for DOS
   EFERMI =   0.00
   ISMEAR =     0;   SIGMA  =   0.01  broadening in eV -4-tet -1-fermi 0-gaus

 Electronic relaxation 2 (details)
   IALGO  =     38    algorithm
   LDIAG  =      T    sub-space diagonalisation (order eigenvalues)
   LSUBROT=      F    optimize rotation matrix (better conditioning)
   TURBO    =      0    0=normal 1=particle mesh
   IRESTART =      0    0=no restart 2=restart with 2 vectors
   NREBOOT  =      0    no. of reboots
   NMIN     =      0    reboot dimension
   EREF     =   0.00    reference energy to select bands
   IMIX   =      4    mixing-type and parameters
     AMIX     =   0.40;   BMIX     =  1.00
     AMIX_MAG =   1.60;   BMIX_MAG =  1.00
     AMIN     =   0.10
     WC   =   100.;   INIMIX=   1;  MIXPRE=   1;  MAXMIX= -45

 Intra band minimization:
   WEIMIN = 0.0000     energy-eigenvalue tresh-hold
   EBREAK =  0.10E-08  absolut break condition
   DEPER  =   0.30     relativ break condition

   TIME   =   0.40     timestep for ELM

  volume/ion in A,a.u.               =      22.50       151.81
  Fermi-wavevector in a.u.,A,eV,Ry     =   1.339871  2.531989 24.425913  1.795254
  Thomas-Fermi vector in A             =   2.468229

 Write flags
   LWAVE        =      F    write WAVECAR
   LDOWNSAMPLE  =      F    k-point downsampling of WAVECAR
   LCHARG       =      F    write CHGCAR
   LVTOT        =      F    write LOCPOT, total local potential
   LVHAR        =      F    write LOCPOT, Hartree potential only
   LELF         =      F    write electronic localiz. function (ELF)
   LORBIT       =      0    0 simple, 1 ext, 2 COOP (PROOUT), +10 PAW based schemes


 Dipole corrections
   LMONO  =      F    monopole corrections only (constant potential shift)
   LDIPOL =      F    correct potential (dipole corrections)
   IDIPOL =      0    1-x, 2-y, 3-z, 4-all directions
   EPSILON=  1.0000000 bulk dielectric constant

 Exchange correlation treatment:
   GGA     =    PS    GGA type
   LEXCH   =    14    internal setting for exchange type
   VOSKOWN=      0    Vosko Wilk Nusair interpolation
   LHFCALC =     F    Hartree Fock is set to
   LHFONE  =     F    Hartree Fock one center treatment
   AEXX    =    0.0000 exact exchange contribution

 Linear response parameters
   LEPSILON=     F    determine dielectric tensor
   LRPA    =     F    only Hartree local field effects (RPA)
   LNABLA  =     F    use nabla operator in PAW spheres
   LVEL    =     F    velocity operator in full k-point grid
   LINTERFAST=   F  fast interpolation
   KINTER  =     0    interpolate to denser k-point grid
   CSHIFT  =0.1000    complex shift for real part using Kramers Kronig
   OMEGAMAX=  -1.0    maximum frequency
   DEG_THRESHOLD= 0.2000000E-02 threshold for treating states as degnerate
   RTIME   =   -0.100 relaxation time in fs
  (WPLASMAI=    0.000 imaginary part of plasma frequency in eV, 0.658/RTIME)
   DFIELD  = 0.0000000 0.0000000 0.0000000 field for delta impulse in time

 Orbital magnetization related:
   ORBITALMAG=     F  switch on orbital magnetization
   LCHIMAG   =     F  perturbation theory with respect to B field
   DQ        =  0.001000  dq finite difference perturbation B field
   LLRAUG    =     F  two centre corrections for induced B field



--------------------------------------------------------------------------------------------------------


 Static calculation
 charge density and potential will be updated during run
 non-spin polarized calculation
 Variant of blocked Davidson
 Davidson routine will perform the subspace rotation
 perform sub-space diagonalisation
    after iterative eigenvector-optimisation
 modified Broyden-mixing scheme, WC =      100.0
 initial mixing is a Kerker type mixing with AMIX =  0.4000 and BMIX =      1.0000
 Hartree-type preconditioning will be used
 using additional bands            5
 reciprocal scheme for non local part
 use partial core corrections
 calculate Harris-corrections to forces
   (improved forces if not selfconsistent)
 use gradient corrections
 use of overlap-Matrix (Vanderbilt PP)
 Gauss-broadening in eV      SIGMA  =   0.01


--------------------------------------------------------------------------------------------------------


  energy-cutoff  :      700.00
  volume of cell :       67.49
      direct lattice vectors                 reciprocal lattice vectors
     0.000000000  3.231487338  3.231487338    -0.154727513  0.154727513  0.154727513
     3.231487338  0.000000000  3.231487338     0.154727513 -0.154727513  0.154727513
     3.231487338  3.231487338  0.000000000     0.154727513  0.154727513 -0.154727513

  length of vectors
     4.570013219  4.570013219  4.570013219     0.267995914  0.267995914  0.267995914



 k-points in units of 2pi/SCALE and weight: KPOINTS
   0.00000000  0.00000000  0.00000000       0.000
  -0.01123011  0.01123011  0.01123011       0.004
  -0.02246022  0.02246022  0.02246022       0.004
  -0.03369033  0.03369033  0.03369033       0.004
  -0.04492043  0.04492043  0.04492043       0.004
  -0.05615054  0.05615054  0.05615054       0.004
  -0.06738065  0.06738065  0.06738065       0.004
   0.00000000 -0.00000000  0.02246022       0.003
  -0.01123011  0.01123011  0.03369033       0.011
  -0.02246022  0.02246022  0.04492043       0.011
  -0.03369033  0.03369033  0.05615054       0.011
  -0.04492043  0.04492043  0.06738065       0.011
  -0.05615054  0.05615054  0.07861076       0.011
   0.07861076 -0.07861076 -0.05615054       0.011
   0.06738065 -0.06738065 -0.04492043       0.011
   0.05615054 -0.05615054 -0.03369033       0.011
   0.04492043 -0.04492043 -0.02246022       0.011
   0.03369033 -0.03369033 -0.01123011       0.011
   0.02246022 -0.02246022  0.00000000       0.005
  -0.00000000 -0.00000000  0.04492043       0.003
  -0.01123011  0.01123011  0.05615054       0.011
  -0.02246022  0.02246022  0.06738065       0.011
  -0.03369033  0.03369033  0.07861076       0.011
  -0.04492043  0.04492043  0.08984087       0.011
   0.08984087 -0.08984087 -0.04492043       0.011
   0.07861076 -0.07861076 -0.03369033       0.011
   0.06738065 -0.06738065 -0.02246022       0.011
   0.05615054 -0.05615054 -0.01123011       0.011
   0.04492043 -0.04492043 -0.00000000       0.005
  -0.00000000  0.00000000  0.06738065       0.003
  -0.01123011  0.01123011  0.07861076       0.011
  -0.02246022  0.02246022  0.08984087       0.011
  -0.03369033  0.03369033  0.10107098       0.011
   0.10107098 -0.10107098 -0.03369033       0.011
   0.08984087 -0.08984087 -0.02246022       0.011
   0.07861076 -0.07861076 -0.01123011       0.011
   0.06738065 -0.06738065 -0.00000000       0.005
  -0.00000000 -0.00000000  0.08984087       0.003
  -0.01123011  0.01123011  0.10107098       0.011
  -0.02246022  0.02246022  0.11230109       0.011
   0.11230109 -0.11230109 -0.02246022       0.011
   0.10107098 -0.10107098 -0.01123011       0.011
   0.08984087 -0.08984087 -0.00000000       0.005
  -0.00000000 -0.00000000  0.11230109       0.003
  -0.01123011  0.01123011  0.12353119       0.011
   0.12353119 -0.12353119 -0.01123011       0.011
   0.11230109 -0.11230109  0.00000000       0.005
   0.00000000 -0.00000000  0.13476130       0.003
   0.13476130 -0.13476130  0.00000000       0.005
  -0.00000000  0.02246022  0.04492043       0.011
  -0.01123011  0.03369033  0.05615054       0.022
  -0.02246022  0.04492043  0.06738065       0.022
  -0.03369033  0.05615054  0.07861076       0.022
   0.10107098 -0.07861076 -0.05615054       0.022
   0.00000000  0.02246022  0.06738065       0.011
  -0.01123011  0.03369033  0.07861076       0.022
  -0.02246022  0.04492043  0.08984087       0.022
   0.11230109 -0.08984087 -0.04492043       0.022
   0.10107098 -0.07861076 -0.03369033       0.022
   0.08984087 -0.06738065 -0.02246022       0.022
   0.07861076 -0.05615054 -0.01123011       0.022
   0.06738065 -0.04492043 -0.00000000       0.011
  -0.00000000  0.02246022  0.08984087       0.011
  -0.01123011  0.03369033  0.10107098       0.022
   0.12353119 -0.10107098 -0.03369033       0.022
   0.11230109 -0.08984087 -0.02246022       0.022
   0.10107098 -0.07861076 -0.01123011       0.022
   0.08984087 -0.06738065 -0.00000000       0.011
   0.00000000  0.02246022  0.11230109       0.011
   0.13476130 -0.11230109 -0.02246022       0.022
   0.12353119 -0.10107098 -0.01123011       0.022
   0.11230109 -0.08984087  0.00000000       0.011
   0.14599141 -0.12353119 -0.01123011       0.011
   0.13476130 -0.11230109 -0.00000000       0.011
  -0.00000000  0.04492043  0.08984087       0.011
   0.13476130 -0.08984087 -0.04492043       0.022
   0.12353119 -0.07861076 -0.03369033       0.022
   0.14599141 -0.10107098 -0.03369033       0.011
   0.13476130 -0.08984087 -0.02246022       0.022
   0.12353119 -0.07861076 -0.01123011       0.022
   0.11230109 -0.06738065  0.00000000       0.011
   0.14599141 -0.10107098 -0.01123011       0.011
   0.13476130 -0.08984087  0.00000000       0.011
   0.14599141 -0.07861076 -0.01123011       0.011

 k-points in reciprocal lattice and weights: KPOINTS
   0.00000000  0.00000000  0.00000000       0.000
   0.07692308 -0.00000000  0.00000000       0.004
   0.15384615  0.00000000 -0.00000000       0.004
   0.23076923  0.00000000 -0.00000000       0.004
   0.30769231  0.00000000 -0.00000000       0.004
   0.38461538 -0.00000000  0.00000000       0.004
   0.46153846 -0.00000000  0.00000000       0.004
   0.07692308  0.07692308 -0.00000000       0.003
   0.15384615  0.07692308 -0.00000000       0.011
   0.23076923  0.07692308 -0.00000000       0.011
   0.30769231  0.07692308  0.00000000       0.011
   0.38461538  0.07692308 -0.00000000       0.011
   0.46153846  0.07692308 -0.00000000       0.011
  -0.46153846  0.07692308 -0.00000000       0.011
  -0.38461538  0.07692308  0.00000000       0.011
  -0.30769231  0.07692308 -0.00000000       0.011
  -0.23076923  0.07692308  0.00000000       0.011
  -0.15384615  0.07692308  0.00000000       0.011
  -0.07692308  0.07692308 -0.00000000       0.005
   0.15384615  0.15384615 -0.00000000       0.003
   0.23076923  0.15384615 -0.00000000       0.011
   0.30769231  0.15384615  0.00000000       0.011
   0.38461538  0.15384615  0.00000000       0.011
   0.46153846  0.15384615 -0.00000000       0.011
  -0.46153846  0.15384615  0.00000000       0.011
  -0.38461538  0.15384615 -0.00000000       0.011
  -0.30769231  0.15384615 -0.00000000       0.011
  -0.23076923  0.15384615 -0.00000000       0.011
  -0.15384615  0.15384615  0.00000000       0.005
   0.23076923  0.23076923 -0.00000000       0.003
   0.30769231  0.23076923 -0.00000000       0.011
   0.38461538  0.23076923  0.00000000       0.011
   0.46153846  0.23076923  0.00000000       0.011
  -0.46153846  0.23076923 -0.00000000       0.011
  -0.38461538  0.23076923  0.00000000       0.011
  -0.30769231  0.23076923  0.00000000       0.011
  -0.23076923  0.23076923  0.00000000       0.005
   0.30769231  0.30769231 -0.00000000       0.003
   0.38461538  0.30769231 -0.00000000       0.011
   0.46153846  0.30769231 -0.00000000       0.011
  -0.46153846  0.30769231 -0.00000000       0.011
  -0.38461538  0.30769231 -0.00000000       0.011
  -0.30769231  0.30769231  0.00000000       0.005
   0.38461538  0.38461538 -0.00000000       0.003
   0.46153846  0.38461538 -0.00000000       0.011
  -0.46153846  0.38461538  0.00000000       0.011
  -0.38461538  0.38461538 -0.00000000       0.005
   0.46153846  0.46153846 -0.00000000       0.003
  -0.46153846  0.46153846 -0.00000000       0.005
   0.23076923  0.15384615  0.07692308       0.011
   0.30769231  0.15384615  0.07692308       0.022
   0.38461538  0.15384615  0.07692308       0.022
   0.46153846  0.15384615  0.07692308       0.022
  -0.46153846  0.15384615  0.07692308       0.022
   0.30769231  0.23076923  0.07692308       0.011
   0.38461538  0.23076923  0.07692308       0.022
   0.46153846  0.23076923  0.07692308       0.022
  -0.46153846  0.23076923  0.07692308       0.022
  -0.38461538  0.23076923  0.07692308       0.022
  -0.30769231  0.23076923  0.07692308       0.022
  -0.23076923  0.23076923  0.07692308       0.022
  -0.15384615  0.23076923  0.07692308       0.011
   0.38461538  0.30769231  0.07692308       0.011
   0.46153846  0.30769231  0.07692308       0.022
  -0.46153846  0.30769231  0.07692308       0.022
  -0.38461538  0.30769231  0.07692308       0.022
  -0.30769231  0.30769231  0.07692308       0.022
  -0.23076923  0.30769231  0.07692308       0.011
   0.46153846  0.38461538  0.07692308       0.011
  -0.46153846  0.38461538  0.07692308       0.022
  -0.38461538  0.38461538  0.07692308       0.022
  -0.30769231  0.38461538  0.07692308       0.011
  -0.46153846  0.46153846  0.07692308       0.011
  -0.38461538  0.46153846  0.07692308       0.011
   0.46153846  0.30769231  0.15384615       0.011
  -0.46153846  0.30769231  0.15384615       0.022
  -0.38461538  0.30769231  0.15384615       0.022
  -0.46153846  0.38461538  0.15384615       0.011
  -0.38461538  0.38461538  0.15384615       0.022
  -0.30769231  0.38461538  0.15384615       0.022
  -0.23076923  0.38461538  0.15384615       0.011
  -0.38461538  0.46153846  0.15384615       0.011
  -0.30769231  0.46153846  0.15384615       0.011
  -0.30769231  0.46153846  0.23076923       0.011

 position of ions in fractional coordinates (direct lattice)
   0.25000000  0.25000000  0.25000000
   0.75000000  0.75000000  0.75000000
   0.00000000  0.00000000  0.00000000

 position of ions in cartesian coordinates  (Angst):
   1.61574367  1.61574367  1.61574367
   4.84723101  4.84723101  4.84723101
   0.00000000  0.00000000  0.00000000



--------------------------------------------------------------------------------------------------------


 k-point  1 :   0.0000 0.0000 0.0000  plane waves:    2741
 k-point  2 :   0.0769-0.0000 0.0000  plane waves:    2797
 k-point  3 :   0.1538 0.0000-0.0000  plane waves:    2809
 k-point  4 :   0.2308 0.0000-0.0000  plane waves:    2830
 k-point  5 :   0.3077 0.0000-0.0000  plane waves:    2839
 k-point  6 :   0.3846-0.0000 0.0000  plane waves:    2845
 k-point  7 :   0.4615-0.0000 0.0000  plane waves:    2842
 k-point  8 :   0.0769 0.0769-0.0000  plane waves:    2794
 k-point  9 :   0.1538 0.0769-0.0000  plane waves:    2809
 k-point 10 :   0.2308 0.0769-0.0000  plane waves:    2825
 k-point 11 :   0.3077 0.0769 0.0000  plane waves:    2843
 k-point 12 :   0.3846 0.0769-0.0000  plane waves:    2842
 k-point 13 :   0.4615 0.0769-0.0000  plane waves:    2840
 k-point 14 :  -0.4615 0.0769-0.0000  plane waves:    2845
 k-point 15 :  -0.3846 0.0769 0.0000  plane waves:    2843
 k-point 16 :  -0.3077 0.0769-0.0000  plane waves:    2847
 k-point 17 :  -0.2308 0.0769 0.0000  plane waves:    2840
 k-point 18 :  -0.1538 0.0769 0.0000  plane waves:    2829
 k-point 19 :  -0.0769 0.0769-0.0000  plane waves:    2806
 k-point 20 :   0.1538 0.1538-0.0000  plane waves:    2814
 k-point 21 :   0.2308 0.1538-0.0000  plane waves:    2836
 k-point 22 :   0.3077 0.1538 0.0000  plane waves:    2842
 k-point 23 :   0.3846 0.1538 0.0000  plane waves:    2837
 k-point 24 :   0.4615 0.1538-0.0000  plane waves:    2843
 k-point 25 :  -0.4615 0.1538 0.0000  plane waves:    2842
 k-point 26 :  -0.3846 0.1538-0.0000  plane waves:    2842
 k-point 27 :  -0.3077 0.1538-0.0000  plane waves:    2838
 k-point 28 :  -0.2308 0.1538-0.0000  plane waves:    2841
 k-point 29 :  -0.1538 0.1538 0.0000  plane waves:    2838
 k-point 30 :   0.2308 0.2308-0.0000  plane waves:    2834
 k-point 31 :   0.3077 0.2308-0.0000  plane waves:    2847
 k-point 32 :   0.3846 0.2308 0.0000  plane waves:    2839
 k-point 33 :   0.4615 0.2308 0.0000  plane waves:    2832
 k-point 34 :  -0.4615 0.2308-0.0000  plane waves:    2849
 k-point 35 :  -0.3846 0.2308 0.0000  plane waves:    2840
 k-point 36 :  -0.3077 0.2308 0.0000  plane waves:    2832
 k-point 37 :  -0.2308 0.2308 0.0000  plane waves:    2854
 k-point 38 :   0.3077 0.3077-0.0000  plane waves:    2850
 k-point 39 :   0.3846 0.3077-0.0000  plane waves:    2843
 k-point 40 :   0.4615 0.3077-0.0000  plane waves:    2839
 k-point 41 :  -0.4615 0.3077-0.0000  plane waves:    2847
 k-point 42 :  -0.3846 0.3077-0.0000  plane waves:    2851
 k-point 43 :  -0.3077 0.3077 0.0000  plane waves:    2836
 k-point 44 :   0.3846 0.3846-0.0000  plane waves:    2838
 k-point 45 :   0.4615 0.3846-0.0000  plane waves:    2846
 k-point 46 :  -0.4615 0.3846 0.0000  plane waves:    2845
 k-point 47 :  -0.3846 0.3846-0.0000  plane waves:    2850
 k-point 48 :   0.4615 0.4615-0.0000  plane waves:    2834
 k-point 49 :  -0.4615 0.4615-0.0000  plane waves:    2834
 k-point 50 :   0.2308 0.1538 0.0769  plane waves:    2826
 k-point 51 :   0.3077 0.1538 0.0769  plane waves:    2835
 k-point 52 :   0.3846 0.1538 0.0769  plane waves:    2840
 k-point 53 :   0.4615 0.1538 0.0769  plane waves:    2842
 k-point 54 :  -0.4615 0.1538 0.0769  plane waves:    2841
 k-point 55 :   0.3077 0.2308 0.0769  plane waves:    2838
 k-point 56 :   0.3846 0.2308 0.0769  plane waves:    2838
 k-point 57 :   0.4615 0.2308 0.0769  plane waves:    2839
 k-point 58 :  -0.4615 0.2308 0.0769  plane waves:    2837
 k-point 59 :  -0.3846 0.2308 0.0769  plane waves:    2840
 k-point 60 :  -0.3077 0.2308 0.0769  plane waves:    2841
 k-point 61 :  -0.2308 0.2308 0.0769  plane waves:    2843
 k-point 62 :  -0.1538 0.2308 0.0769  plane waves:    2841
 k-point 63 :   0.3846 0.3077 0.0769  plane waves:    2833
 k-point 64 :   0.4615 0.3077 0.0769  plane waves:    2834
 k-point 65 :  -0.4615 0.3077 0.0769  plane waves:    2841
 k-point 66 :  -0.3846 0.3077 0.0769  plane waves:    2842
 k-point 67 :  -0.3077 0.3077 0.0769  plane waves:    2839
 k-point 68 :  -0.2308 0.3077 0.0769  plane waves:    2837
 k-point 69 :   0.4615 0.3846 0.0769  plane waves:    2841
 k-point 70 :  -0.4615 0.3846 0.0769  plane waves:    2844
 k-point 71 :  -0.3846 0.3846 0.0769  plane waves:    2840
 k-point 72 :  -0.3077 0.3846 0.0769  plane waves:    2834
 k-point 73 :  -0.4615 0.4615 0.0769  plane waves:    2852
 k-point 74 :  -0.3846 0.4615 0.0769  plane waves:    2849
 k-point 75 :   0.4615 0.3077 0.1538  plane waves:    2836
 k-point 76 :  -0.4615 0.3077 0.1538  plane waves:    2835
 k-point 77 :  -0.3846 0.3077 0.1538  plane waves:    2839
 k-point 78 :  -0.4615 0.3846 0.1538  plane waves:    2833
 k-point 79 :  -0.3846 0.3846 0.1538  plane waves:    2833
 k-point 80 :  -0.3077 0.3846 0.1538  plane waves:    2834
 k-point 81 :  -0.2308 0.3846 0.1538  plane waves:    2840
 k-point 82 :  -0.3846 0.4615 0.1538  plane waves:    2838
 k-point 83 :  -0.3077 0.4615 0.1538  plane waves:    2834
 k-point 84 :  -0.3077 0.4615 0.2308  plane waves:    2832

 maximum and minimum number of plane-waves per node :       731      677

 maximum number of plane-waves:      2854
 maximum index in each direction:
   IXMAX=   10   IYMAX=    9   IZMAX=    9
   IXMIN=  -10   IYMIN=  -10   IZMIN=  -10


 parallel 3D FFT for wavefunctions:
    minimum data exchange during FFTs selected (reduces bandwidth)
 parallel 3D FFT for charge:
    minimum data exchange during FFTs selected (reduces bandwidth)


 total amount of memory used by VASP MPI-rank0    90240. kBytes
=======================================================================

   base      :      30000. kBytes
   nonl-proj :      46224. kBytes
   fftplans  :       5204. kBytes
   grid      :       2732. kBytes
   one-center:         49. kBytes
   wavefun   :       6031. kBytes

     INWAV:  cpu time    0.0003: real time    0.0006
 Broyden mixing: mesh for mixing (old mesh)
   NGX = 19   NGY = 19   NGZ = 19
  (NGX  = 80   NGY  = 80   NGZ  = 80)
  gives a total of   6859 points

 initial charge density was supplied:
 charge density of overlapping atoms calculated
 number of electron      37.0000000 magnetization
 keeping initial charge density in first step


--------------------------------------------------------------------------------------------------------


 Maximum index for augmentation-charges        27891 (set IRDMAX)


--------------------------------------------------------------------------------------------------------


 First call to EWALD:  gamma=   0.435
 Maximum number of real-space cells 3x 3x 3
 Maximum number of reciprocal cells 3x 3x 3

    FEWALD:  cpu time    0.0054: real time    0.0072


--------------------------------------- Iteration      1(   1)  ---------------------------------------


    POTLOK:  cpu time    0.0447: real time    0.1311
    SETDIJ:  cpu time    0.0948: real time    0.0949
     EDDAV:  cpu time    1.4294: real time    1.4330
       DOS:  cpu time    0.0040: real time    0.0049
    --------------------------------------------
      LOOP:  cpu time    1.5731: real time    1.6646

 eigenvalue-minimisations  :  4032
 total energy-change (2. order) : 0.4549161E+03  (-0.2090324E+04)
 number of electron      37.0000000 magnetization
 augmentation part       37.0000000 magnetization

 Free energy of the ion-electron system (eV)
  ---------------------------------------------------
  alpha Z        PSCENC =       254.58059502
  Ewald energy   TEWEN  =     -3314.93804849
  -Hartree energ DENC   =      -679.70371969
  -exchange      EXHF   =         0.00000000
  -V(xc)+E(xc)   XCENC  =        70.36471210
  PAW double counting   =      3147.30828992    -3070.62761383
  entropy T*S    EENTRO =        -0.00025050
  eigenvalues    EBANDS =       373.25872459
  atomic energy  EATOM  =      3674.67342263
  Solvation  Ediel_sol  =         0.00000000
  ---------------------------------------------------
  free energy    TOTEN  =       454.91611176 eV

  energy without entropy =      454.91636226  energy(sigma->0) =      454.91623701


--------------------------------------------------------------------------------------------------------




--------------------------------------- Iteration      1(   2)  ---------------------------------------


     EDDAV:  cpu time    1.4515: real time    1.4776
       DOS:  cpu time    0.0032: real time    0.0037
    --------------------------------------------
      LOOP:  cpu time    1.4548: real time    1.4857

 eigenvalue-minimisations  :  4040
 total energy-change (2. order) :-0.4067830E+03  (-0.3975348E+03)
 number of electron      37.0000000 magnetization
 augmentation part       37.0000000 magnetization

 Free energy of the ion-electron system (eV)
  ---------------------------------------------------
  alpha Z        PSCENC =       254.58059502
  Ewald energy   TEWEN  =     -3314.93804849
  -Hartree energ DENC   =      -679.70371969
  -exchange      EXHF   =         0.00000000
  -V(xc)+E(xc)   XCENC  =        70.36471210
  PAW double counting   =      3147.30828992    -3070.62761383
  entropy T*S    EENTRO =        -0.00020304
  eigenvalues    EBANDS =       -33.52430540
  atomic energy  EATOM  =      3674.67342263
  Solvation  Ediel_sol  =         0.00000000
  ---------------------------------------------------
  free energy    TOTEN  =        48.13312923 eV

  energy without entropy =       48.13333227  energy(sigma->0) =       48.13323075


--------------------------------------------------------------------------------------------------------




--------------------------------------- Iteration      1(   3)  ---------------------------------------


     EDDAV:  cpu time    1.8050: real time    1.8356
       DOS:  cpu time    0.0031: real time    0.0034
    --------------------------------------------
      LOOP:  cpu time    1.8081: real time    1.8385

 eigenvalue-minimisations  :  5592
 total energy-change (2. order) :-0.6563363E+02  (-0.6471987E+02)
 number of electron      37.0000000 magnetization
 augmentation part       37.0000000 magnetization

 Free energy of the ion-electron system (eV)
  ---------------------------------------------------
  alpha Z        PSCENC =       254.58059502
  Ewald energy   TEWEN  =     -3314.93804849
  -Hartree energ DENC   =      -679.70371969
  -exchange      EXHF   =         0.00000000
  -V(xc)+E(xc)   XCENC  =        70.36471210
  PAW double counting   =      3147.30828992    -3070.62761383
  entropy T*S    EENTRO =        -0.00044865
  eigenvalues    EBANDS =       -99.15769211
  atomic energy  EATOM  =      3674.67342263
  Solvation  Ediel_sol  =         0.00000000
  ---------------------------------------------------
  free energy    TOTEN  =       -17.50050309 eV

  energy without entropy =      -17.50005444  energy(sigma->0) =      -17.50027877


--------------------------------------------------------------------------------------------------------




--------------------------------------- Iteration      1(   4)  ---------------------------------------


     EDDAV:  cpu time    2.2273: real time    2.2538
       DOS:  cpu time    0.0030: real time    0.0032
    --------------------------------------------
      LOOP:  cpu time    2.2303: real time    2.2531

 eigenvalue-minimisations  :  7288
 total energy-change (2. order) :-0.4257532E+01  (-0.4248346E+01)
 number of electron      37.0000000 magnetization
 augmentation part       37.0000000 magnetization

 Free energy of the ion-electron system (eV)
  ---------------------------------------------------
  alpha Z        PSCENC =       254.58059502
  Ewald energy   TEWEN  =     -3314.93804849
  -Hartree energ DENC   =      -679.70371969
  -exchange      EXHF   =         0.00000000
  -V(xc)+E(xc)   XCENC  =        70.36471210
  PAW double counting   =      3147.30828992    -3070.62761383
  entropy T*S    EENTRO =        -0.00034894
  eigenvalues    EBANDS =      -103.41532400
  atomic energy  EATOM  =      3674.67342263
  Solvation  Ediel_sol  =         0.00000000
  ---------------------------------------------------
  free energy    TOTEN  =       -21.75803528 eV

  energy without entropy =      -21.75768634  energy(sigma->0) =      -21.75786081


--------------------------------------------------------------------------------------------------------




--------------------------------------- Iteration      1(   5)  ---------------------------------------


     EDDAV:  cpu time    1.8109: real time    1.8471
       DOS:  cpu time    0.0031: real time    0.0033
    CHARGE:  cpu time    0.3294: real time    0.3301
    MIXING:  cpu time    0.0047: real time    0.0051
    --------------------------------------------
      LOOP:  cpu time    2.1480: real time    2.1865

 eigenvalue-minimisations  :  5648
 total energy-change (2. order) :-0.9743009E-01  (-0.9739978E-01)
 number of electron      37.0000000 magnetization
 augmentation part        5.9333619 magnetization

 Broyden mixing:
  rms(total) = 0.44498E+01    rms(broyden)= 0.44498E+01
  rms(prec ) = 0.46785E+01
  weight for this iteration     100.00

 Free energy of the ion-electron system (eV)
  ---------------------------------------------------
  alpha Z        PSCENC =       254.58059502
  Ewald energy   TEWEN  =     -3314.93804849
  -Hartree energ DENC   =      -679.70371969
  -exchange      EXHF   =         0.00000000
  -V(xc)+E(xc)   XCENC  =        70.36471210
  PAW double counting   =      3147.30828992    -3070.62761383
  entropy T*S    EENTRO =        -0.00030385
  eigenvalues    EBANDS =      -103.51279918
  atomic energy  EATOM  =      3674.67342263
  Solvation  Ediel_sol  =         0.00000000
  ---------------------------------------------------
  free energy    TOTEN  =       -21.85546536 eV

  energy without entropy =      -21.85516151  energy(sigma->0) =      -21.85531344


--------------------------------------------------------------------------------------------------------




--------------------------------------- Iteration      1(   6)  ---------------------------------------


    POTLOK:  cpu time    0.0460: real time    0.0624
    SETDIJ:  cpu time    0.0876: real time    0.0877
     EDDAV:  cpu time    1.6864: real time    1.6868
       DOS:  cpu time    0.0031: real time    0.0065
    CHARGE:  cpu time    0.2861: real time    0.2881
    MIXING:  cpu time    0.0040: real time    0.0042
    --------------------------------------------
      LOOP:  cpu time    2.1132: real time    2.1358

 eigenvalue-minimisations  :  5176
 total energy-change (2. order) : 0.7583325E+00  (-0.1352344E+00)
 number of electron      37.0000000 magnetization
 augmentation part        6.0098155 magnetization

 Broyden mixing:
  rms(total) = 0.26588E+01    rms(broyden)= 0.26588E+01
  rms(prec ) = 0.27407E+01
  weight for this iteration     100.00

 eigenvalues of (default mixing * dielectric matrix)
  average eigenvalue GAMMA=   2.4469
  2.4469

 Free energy of the ion-electron system (eV)
  ---------------------------------------------------
  alpha Z        PSCENC =       254.58059502
  Ewald energy   TEWEN  =     -3314.93804849
  -Hartree energ DENC   =      -663.55611014
  -exchange      EXHF   =         0.00000000
  -V(xc)+E(xc)   XCENC  =        69.90781789
  PAW double counting   =      3657.54210687    -3586.34680981
  entropy T*S    EENTRO =        -0.00019833
  eigenvalues    EBANDS =      -112.95990852
  atomic energy  EATOM  =      3674.67342263
  Solvation  Ediel_sol  =         0.00000000
  ---------------------------------------------------
  free energy    TOTEN  =       -21.09713287 eV

  energy without entropy =      -21.09693454  energy(sigma->0) =      -21.09703371


--------------------------------------------------------------------------------------------------------




--------------------------------------- Iteration      1(   7)  ---------------------------------------


    POTLOK:  cpu time    0.0418: real time    0.0640
    SETDIJ:  cpu time    0.0873: real time    0.0874
     EDDAV:  cpu time    1.8892: real time    1.8894
       DOS:  cpu time    0.0031: real time    0.0040
    CHARGE:  cpu time    0.2678: real time    0.2679
    MIXING:  cpu time    0.0039: real time    0.0042
    --------------------------------------------
      LOOP:  cpu time    2.2931: real time    2.3172

 eigenvalue-minimisations  :  6000
 total energy-change (2. order) : 0.1638156E+00  (-0.1572077E+00)
 number of electron      37.0000000 magnetization
 augmentation part        5.9600236 magnetization

 Broyden mixing:
  rms(total) = 0.53789E+00    rms(broyden)= 0.53789E+00
  rms(prec ) = 0.62026E+00
  weight for this iteration     100.00

 eigenvalues of (default mixing * dielectric matrix)
  average eigenvalue GAMMA=   2.0592
  1.1812  2.9372

 Free energy of the ion-electron system (eV)
  ---------------------------------------------------
  alpha Z        PSCENC =       254.58059502
  Ewald energy   TEWEN  =     -3314.93804849
  -Hartree energ DENC   =      -650.97710360
  -exchange      EXHF   =         0.00000000
  -V(xc)+E(xc)   XCENC  =        69.69519754
  PAW double counting   =      4395.96908912    -4331.28248051
  entropy T*S    EENTRO =        -0.00014117
  eigenvalues    EBANDS =      -118.65384783
  atomic energy  EATOM  =      3674.67342263
  Solvation  Ediel_sol  =         0.00000000
  ---------------------------------------------------
  free energy    TOTEN  =       -20.93331729 eV

  energy without entropy =      -20.93317611  energy(sigma->0) =      -20.93324670


--------------------------------------------------------------------------------------------------------




--------------------------------------- Iteration      1(   8)  ---------------------------------------


    POTLOK:  cpu time    0.0313: real time    0.0693
    SETDIJ:  cpu time    0.0863: real time    0.0865
     EDDAV:  cpu time    1.7777: real time    1.7780
       DOS:  cpu time    0.0029: real time    0.0042
    CHARGE:  cpu time    0.2647: real time    0.2653
    MIXING:  cpu time    0.0054: real time    0.0058
    --------------------------------------------
      LOOP:  cpu time    2.1684: real time    2.2099

 eigenvalue-minimisations  :  5584
 total energy-change (2. order) : 0.2627472E-01  (-0.2955567E-01)
 number of electron      37.0000000 magnetization
 augmentation part        5.9271145 magnetization

 Broyden mixing:
  rms(total) = 0.28135E+00    rms(broyden)= 0.28135E+00
  rms(prec ) = 0.32308E+00
  weight for this iteration     100.00

 eigenvalues of (default mixing * dielectric matrix)
  average eigenvalue GAMMA=   1.9323
  3.4224  1.6360  0.7386

 Free energy of the ion-electron system (eV)
  ---------------------------------------------------
  alpha Z        PSCENC =       254.58059502
  Ewald energy   TEWEN  =     -3314.93804849
  -Hartree energ DENC   =      -650.54855542
  -exchange      EXHF   =         0.00000000
  -V(xc)+E(xc)   XCENC  =        69.69311183
  PAW double counting   =      4466.15489271    -4401.83081025
  entropy T*S    EENTRO =        -0.00010294
  eigenvalues    EBANDS =      -118.69154765
  atomic energy  EATOM  =      3674.67342263
  Solvation  Ediel_sol  =         0.00000000
  ---------------------------------------------------
  free energy    TOTEN  =       -20.90704257 eV

  energy without entropy =      -20.90693963  energy(sigma->0) =      -20.90699110


--------------------------------------------------------------------------------------------------------




--------------------------------------- Iteration      1(   9)  ---------------------------------------


    POTLOK:  cpu time    0.0363: real time    0.0775
    SETDIJ:  cpu time    0.0869: real time    0.0871
     EDDAV:  cpu time    1.8725: real time    1.8728
       DOS:  cpu time    0.0030: real time    0.0036
    CHARGE:  cpu time    0.2655: real time    0.2658
    MIXING:  cpu time    0.0055: real time    0.0059
    --------------------------------------------
      LOOP:  cpu time    2.2697: real time    2.3124

 eigenvalue-minimisations  :  5904
 total energy-change (2. order) : 0.4941801E-02  (-0.8921192E-02)
 number of electron      37.0000000 magnetization
 augmentation part        5.9236823 magnetization

 Broyden mixing:
  rms(total) = 0.26968E+00    rms(broyden)= 0.26968E+00
  rms(prec ) = 0.27729E+00
  weight for this iteration     100.00

 eigenvalues of (default mixing * dielectric matrix)
  average eigenvalue GAMMA=   1.4672
  2.3775  1.3692  1.3692  0.7528

 Free energy of the ion-electron system (eV)
  ---------------------------------------------------
  alpha Z        PSCENC =       254.58059502
  Ewald energy   TEWEN  =     -3314.93804849
  -Hartree energ DENC   =      -652.58965610
  -exchange      EXHF   =         0.00000000
  -V(xc)+E(xc)   XCENC  =        69.71639798
  PAW double counting   =      4523.10883054    -4458.64756767
  entropy T*S    EENTRO =        -0.00011845
  eigenvalues    EBANDS =      -116.80595622
  atomic energy  EATOM  =      3674.67342263
  Solvation  Ediel_sol  =         0.00000000
  ---------------------------------------------------
  free energy    TOTEN  =       -20.90210077 eV

  energy without entropy =      -20.90198232  energy(sigma->0) =      -20.90204154


--------------------------------------------------------------------------------------------------------




--------------------------------------- Iteration      1(  10)  ---------------------------------------


    POTLOK:  cpu time    0.0321: real time    0.0650
    SETDIJ:  cpu time    0.0840: real time    0.0854
     EDDAV:  cpu time    1.8950: real time    1.8962
       DOS:  cpu time    0.0030: real time    0.0043
    CHARGE:  cpu time    0.2634: real time    0.2645
    MIXING:  cpu time    0.0073: real time    0.0080
    --------------------------------------------
      LOOP:  cpu time    2.2850: real time    2.3227

 eigenvalue-minimisations  :  5832
 total energy-change (2. order) : 0.2827665E-02  (-0.1645637E-02)
 number of electron      37.0000000 magnetization
 augmentation part        5.9265354 magnetization

 Broyden mixing:
  rms(total) = 0.70111E-01    rms(broyden)= 0.70111E-01
  rms(prec ) = 0.72071E-01
  weight for this iteration     100.00

 eigenvalues of (default mixing * dielectric matrix)
  average eigenvalue GAMMA=   1.4747
  2.0993  2.0993  1.6038  0.7854  0.7854

 Free energy of the ion-electron system (eV)
  ---------------------------------------------------
  alpha Z        PSCENC =       254.58059502
  Ewald energy   TEWEN  =     -3314.93804849
  -Hartree energ DENC   =      -652.72710811
  -exchange      EXHF   =         0.00000000
  -V(xc)+E(xc)   XCENC  =        69.70658365
  PAW double counting   =      4450.04909706    -4385.13305951
  entropy T*S    EENTRO =        -0.00010149
  eigenvalues    EBANDS =      -117.11065386
  atomic energy  EATOM  =      3674.67342263
  Solvation  Ediel_sol  =         0.00000000
  ---------------------------------------------------
  free energy    TOTEN  =       -20.89927310 eV

  energy without entropy =      -20.89917161  energy(sigma->0) =      -20.89922235


--------------------------------------------------------------------------------------------------------




--------------------------------------- Iteration      1(  11)  ---------------------------------------


    POTLOK:  cpu time    0.0373: real time    0.0623
    SETDIJ:  cpu time    0.0867: real time    0.0870
     EDDAV:  cpu time    1.7747: real time    1.7750
       DOS:  cpu time    0.0031: real time    0.0077
    CHARGE:  cpu time    0.2670: real time    0.2697
    MIXING:  cpu time    0.0041: real time    0.0044
    --------------------------------------------
      LOOP:  cpu time    2.1730: real time    2.2078

 eigenvalue-minimisations  :  5552
 total energy-change (2. order) :-0.4100560E-04  (-0.7132165E-04)
 number of electron      37.0000000 magnetization
 augmentation part        5.9272387 magnetization

 Broyden mixing:
  rms(total) = 0.45100E-01    rms(broyden)= 0.45100E-01
  rms(prec ) = 0.46488E-01
  weight for this iteration     100.00

 eigenvalues of (default mixing * dielectric matrix)
  average eigenvalue GAMMA=   1.4283
  2.5697  2.1150  1.3160  0.7344  0.9175  0.9175

 Free energy of the ion-electron system (eV)
  ---------------------------------------------------
  alpha Z        PSCENC =       254.58059502
  Ewald energy   TEWEN  =     -3314.93804849
  -Hartree energ DENC   =      -652.77929678
  -exchange      EXHF   =         0.00000000
  -V(xc)+E(xc)   XCENC  =        69.69946687
  PAW double counting   =      4460.40738599    -4395.44922623
  entropy T*S    EENTRO =        -0.00010207
  eigenvalues    EBANDS =      -117.09351104
  atomic energy  EATOM  =      3674.67342263
  Solvation  Ediel_sol  =         0.00000000
  ---------------------------------------------------
  free energy    TOTEN  =       -20.89931411 eV

  energy without entropy =      -20.89921203  energy(sigma->0) =      -20.89926307


--------------------------------------------------------------------------------------------------------




--------------------------------------- Iteration      1(  12)  ---------------------------------------


    POTLOK:  cpu time    0.0309: real time    0.0944
    SETDIJ:  cpu time    0.0820: real time    0.0833
     EDDAV:  cpu time    1.9487: real time    1.9493
       DOS:  cpu time    0.0030: real time    0.0036
    CHARGE:  cpu time    0.2649: real time    0.2650
    MIXING:  cpu time    0.0044: real time    0.0047
    --------------------------------------------
      LOOP:  cpu time    2.3340: real time    2.3994

 eigenvalue-minimisations  :  6176
 total energy-change (2. order) : 0.3363940E-04  (-0.2216861E-04)
 number of electron      37.0000000 magnetization
 augmentation part        5.9284141 magnetization

 Broyden mixing:
  rms(total) = 0.79348E-02    rms(broyden)= 0.79348E-02
  rms(prec ) = 0.82632E-02
  weight for this iteration     100.00

 eigenvalues of (default mixing * dielectric matrix)
  average eigenvalue GAMMA=   1.4498
  2.5998  2.1318  1.4975  1.1979  0.7424  0.9898  0.9898

 Free energy of the ion-electron system (eV)
  ---------------------------------------------------
  alpha Z        PSCENC =       254.58059502
  Ewald energy   TEWEN  =     -3314.93804849
  -Hartree energ DENC   =      -652.78129918
  -exchange      EXHF   =         0.00000000
  -V(xc)+E(xc)   XCENC  =        69.69695851
  PAW double counting   =      4467.41194769    -4402.43981432
  entropy T*S    EENTRO =        -0.00010362
  eigenvalues    EBANDS =      -117.10293870
  atomic energy  EATOM  =      3674.67342263
  Solvation  Ediel_sol  =         0.00000000
  ---------------------------------------------------
  free energy    TOTEN  =       -20.89928047 eV

  energy without entropy =      -20.89917685  energy(sigma->0) =      -20.89922866


--------------------------------------------------------------------------------------------------------




--------------------------------------- Iteration      1(  13)  ---------------------------------------


    POTLOK:  cpu time    0.0315: real time    0.0650
    SETDIJ:  cpu time    0.0855: real time    0.0856
     EDDAV:  cpu time    1.9252: real time    1.9255
       DOS:  cpu time    0.0031: real time    0.0045
    CHARGE:  cpu time    0.2646: real time    0.2651
    MIXING:  cpu time    0.0063: real time    0.0069
    --------------------------------------------
      LOOP:  cpu time    2.3163: real time    2.3533

 eigenvalue-minimisations  :  6112
 total energy-change (2. order) :-0.2029465E-05  (-0.2809611E-05)
 number of electron      37.0000000 magnetization
 augmentation part        5.9290792 magnetization

 Broyden mixing:
  rms(total) = 0.28600E-02    rms(broyden)= 0.28600E-02
  rms(prec ) = 0.29557E-02
  weight for this iteration     100.00

 eigenvalues of (default mixing * dielectric matrix)
  average eigenvalue GAMMA=   1.4492
  2.6106  1.9450  1.6833  1.6833  0.7508  0.9677  0.9765  0.9765

 Free energy of the ion-electron system (eV)
  ---------------------------------------------------
  alpha Z        PSCENC =       254.58059502
  Ewald energy   TEWEN  =     -3314.93804849
  -Hartree energ DENC   =      -652.77098157
  -exchange      EXHF   =         0.00000000
  -V(xc)+E(xc)   XCENC  =        69.69502449
  PAW double counting   =      4469.67034488    -4404.67713323
  entropy T*S    EENTRO =        -0.00010407
  eigenvalues    EBANDS =      -117.13240216
  atomic energy  EATOM  =      3674.67342263
  Solvation  Ediel_sol  =         0.00000000
  ---------------------------------------------------
  free energy    TOTEN  =       -20.89928250 eV

  energy without entropy =      -20.89917843  energy(sigma->0) =      -20.89923046


--------------------------------------------------------------------------------------------------------




--------------------------------------- Iteration      1(  14)  ---------------------------------------


    POTLOK:  cpu time    0.0306: real time    0.0757
    SETDIJ:  cpu time    0.0832: real time    0.0841
     EDDAV:  cpu time    1.8221: real time    1.8227
       DOS:  cpu time    0.0030: real time    0.0061
    CHARGE:  cpu time    0.2633: real time    0.2635
    MIXING:  cpu time    0.0065: real time    0.0075
    --------------------------------------------
      LOOP:  cpu time    2.2087: real time    2.2585

 eigenvalue-minimisations  :  5672
 total energy-change (2. order) : 0.2898532E-06  (-0.1305924E-06)
 number of electron      37.0000000 magnetization
 augmentation part        5.9291484 magnetization

 Broyden mixing:
  rms(total) = 0.15574E-02    rms(broyden)= 0.15574E-02
  rms(prec ) = 0.16243E-02
  weight for this iteration     100.00

 eigenvalues of (default mixing * dielectric matrix)
  average eigenvalue GAMMA=   1.4805
  2.5297  2.2843  2.2843  1.4547  0.9989  0.9989  0.7523  1.1205  0.9007

 Free energy of the ion-electron system (eV)
  ---------------------------------------------------
  alpha Z        PSCENC =       254.58059502
  Ewald energy   TEWEN  =     -3314.93804849
  -Hartree energ DENC   =      -652.77481261
  -exchange      EXHF   =         0.00000000
  -V(xc)+E(xc)   XCENC  =        69.69533107
  PAW double counting   =      4469.44623527    -4404.45117243
  entropy T*S    EENTRO =        -0.00010397
  eigenvalues    EBANDS =      -117.13072870
  atomic energy  EATOM  =      3674.67342263
  Solvation  Ediel_sol  =         0.00000000
  ---------------------------------------------------
  free energy    TOTEN  =       -20.89928221 eV

  energy without entropy =      -20.89917824  energy(sigma->0) =      -20.89923022


--------------------------------------------------------------------------------------------------------




--------------------------------------- Iteration      1(  15)  ---------------------------------------


    POTLOK:  cpu time    0.0307: real time    0.0892
    SETDIJ:  cpu time    0.0841: real time    0.0847
     EDDAV:  cpu time    1.9967: real time    1.9978
       DOS:  cpu time    0.0029: real time    0.0036
    CHARGE:  cpu time    0.2646: real time    0.2658
    MIXING:  cpu time    0.0067: real time    0.0071
    --------------------------------------------
      LOOP:  cpu time    2.3857: real time    2.4507

 eigenvalue-minimisations  :  6416
 total energy-change (2. order) : 0.2586444E-06  (-0.7933829E-07)
 number of electron      37.0000000 magnetization
 augmentation part        5.9290915 magnetization

 Broyden mixing:
  rms(total) = 0.58116E-04    rms(broyden)= 0.57574E-04
  rms(prec ) = 0.99040E-04
  weight for this iteration     100.00

 eigenvalues of (default mixing * dielectric matrix)
  average eigenvalue GAMMA=   1.4498
  2.4991  2.3946  2.1462  1.6488  1.0197  1.0197  0.7497  1.0490  0.9856  0.9856

 Free energy of the ion-electron system (eV)
  ---------------------------------------------------
  alpha Z        PSCENC =       254.58059502
  Ewald energy   TEWEN  =     -3314.93804849
  -Hartree energ DENC   =      -652.77568125
  -exchange      EXHF   =         0.00000000
  -V(xc)+E(xc)   XCENC  =        69.69552016
  PAW double counting   =      4469.33828876    -4404.34217176
  entropy T*S    EENTRO =        -0.00010387
  eigenvalues    EBANDS =      -117.13110315
  atomic energy  EATOM  =      3674.67342263
  Solvation  Ediel_sol  =         0.00000000
  ---------------------------------------------------
  free energy    TOTEN  =       -20.89928195 eV

  energy without entropy =      -20.89917808  energy(sigma->0) =      -20.89923001


--------------------------------------------------------------------------------------------------------




--------------------------------------- Iteration      1(  16)  ---------------------------------------


    POTLOK:  cpu time    0.0302: real time    0.0708
    SETDIJ:  cpu time    0.0837: real time    0.0872
     EDDAV:  cpu time    1.3066: real time    1.3075
       DOS:  cpu time    0.0032: real time    0.0096
    --------------------------------------------
      LOOP:  cpu time    1.4238: real time    1.4748

 eigenvalue-minimisations  :  3504
 total energy-change (2. order) : 0.1209264E-07  (-0.4355235E-08)
 number of electron      37.0000000 magnetization
 augmentation part        5.9290915 magnetization

 Free energy of the ion-electron system (eV)
  ---------------------------------------------------
  alpha Z        PSCENC =       254.58059502
  Ewald energy   TEWEN  =     -3314.93804849
  -Hartree energ DENC   =      -652.77641456
  -exchange      EXHF   =         0.00000000
  -V(xc)+E(xc)   XCENC  =        69.69553169
  PAW double counting   =      4469.31434059    -4404.31793387
  entropy T*S    EENTRO =        -0.00010388
  eigenvalues    EBANDS =      -117.13067107
  atomic energy  EATOM  =      3674.67342263
  Solvation  Ediel_sol  =         0.00000000
  ---------------------------------------------------
  free energy    TOTEN  =       -20.89928194 eV

  energy without entropy =      -20.89917805  energy(sigma->0) =      -20.89922999


--------------------------------------------------------------------------------------------------------




 average (electrostatic) potential at core
  the test charge radii are     1.1985  1.0856  1.2059
  (the norm of the test charge is              1.0000)
       1 -54.1840       2-100.3529       3 -64.0887



 E-fermi :  10.7456     XC(G=0): -11.9202     alpha+bet :-16.6696


 k-point     1 :       0.0000    0.0000    0.0000
  band No.  band energies     occupation
      1     -28.8287      2.00000
      2     -12.5877      2.00000
      3     -12.5877      2.00000
      4     -12.5395      2.00000
      5     -12.5395      2.00000
      6     -12.5395      2.00000
      7      -7.1289      2.00000
      8      -7.1289      2.00000
      9      -7.1289      2.00000
     10      -2.5084      2.00000
     11       5.7139      2.00000
     12       5.7139      2.00000
     13       5.7284      2.00000
     14       5.7284      2.00000
     15       5.7284      2.00000
     16       9.3672      2.00000
     17       9.3672      2.00000
     18       9.3672      2.00000
     19       9.6126      2.00000
     20      10.9183      0.00000
     21      10.9183      0.00000
     22      10.9183      0.00000
     23      11.9432      0.00000
     24      13.2243      0.00000

 k-point     2 :       0.0769   -0.0000    0.0000
  band No.  band energies     occupation
      1     -28.8278      2.00000
      2     -12.5895      2.00000
      3     -12.5895      2.00000
      4     -12.5399      2.00000
      5     -12.5392      2.00000
      6     -12.5392      2.00000
      7      -7.1710      2.00000
      8      -7.1227      2.00000
      9      -7.1227      2.00000
     10      -2.4011      2.00000
     11       5.4424      2.00000
     12       5.4424      2.00000
     13       5.5916      2.00000
     14       5.9847      2.00000
     15       5.9847      2.00000
     16       8.5973      2.00000
     17       9.2765      2.00000
     18       9.2765      2.00000
     19      10.1363      2.00000
     20      11.0331      0.00000
     21      11.0331      0.00000
     22      11.0981      0.00000
     23      12.2623      0.00000
     24      13.2292      0.00000

 k-point     3 :       0.1538    0.0000   -0.0000
  band No.  band energies     occupation
      1     -28.8252      2.00000
      2     -12.5943      2.00000
      3     -12.5943      2.00000
      4     -12.5412      2.00000
      5     -12.5383      2.00000
      6     -12.5383      2.00000
      7      -7.2784      2.00000
      8      -7.1056      2.00000
      9      -7.1056      2.00000
     10      -2.1105      2.00000
     11       5.1975      2.00000
     12       5.1975      2.00000
     13       5.2320      2.00000
     14       6.1678      2.00000
     15       6.1678      2.00000
     16       7.8059      2.00000
     17       9.0999      2.00000
     18       9.0999      2.00000
     19      10.1977      2.00000
     20      11.3040      0.00000
     21      11.3040      0.00000
     22      11.8491      0.00000
     23      12.8697      0.00000
     24      13.2324      0.00000

 k-point     4 :       0.2308    0.0000   -0.0000
  band No.  band energies     occupation
      1     -28.8215      2.00000
      2     -12.6010      2.00000
      3     -12.6010      2.00000
      4     -12.5433      2.00000
      5     -12.5371      2.00000
      6     -12.5371      2.00000
      7      -7.4106      2.00000
      8      -7.0816      2.00000
      9      -7.0816      2.00000
     10      -1.7153      2.00000
     11       4.7694      2.00000
     12       5.0167      2.00000
     13       5.0167      2.00000
     14       6.2117      2.00000
     15       6.2117      2.00000
     16       7.1880      2.00000
     17       8.9740      2.00000
     18       8.9740      2.00000
     19      10.1928      2.00000
     20      11.6329      0.00000
     21      11.6329      0.00000
     22      12.6435      0.00000
     23      13.2141      0.00000
     24      13.2149      0.00000

 k-point     5 :       0.3077    0.0000   -0.0000
  band No.  band energies     occupation
      1     -28.8175      2.00000
      2     -12.6082      2.00000
      3     -12.6082      2.00000
      4     -12.5459      2.00000
      5     -12.5358      2.00000
      6     -12.5358      2.00000
      7      -7.5313      2.00000
      8      -7.0562      2.00000
      9      -7.0562      2.00000
     10      -1.3115      2.00000
     11       4.3321      2.00000
[...]
  212              fftbas_plan_mpi                       0.060747                     12   6
  213                dfftw_execute                         0.025856                   36   7
  214                map_backward                          0.004193                   12   7
  215                  map_gather                            0.000720                  6   8
  216                  m_alltoallv_z                         0.002070                  6   8
  217                  map_scatter                           0.001124                  6   8
  218                map_forward                           0.027503                   12   7
  219                  map_gather                            0.015710                  6   8
  220                  m_alltoallv_z                         0.005168                  6   8
  221                  map_scatter                           0.006322                  6   8
  222            M_sumb_d                              0.002173                        6   5
  223          M_sumb_d                              0.000028                          1   4
  224        setdij_                               1.434710                           20   3
  225          fft3d_mpi                             0.222502                         40   4
  226            fftbas_plan_mpi                       0.203774                       40   5
  227              dfftw_execute                         0.084900                    120   6
  228              map_backward                          0.013445                     40   6
  229                map_gather                            0.002718                   20   7
  230                m_alltoallv_z                         0.005882                   20   7
  231                map_scatter                           0.003887                   20   7
  232              map_forward                           0.094587                     40   6
  233                map_gather                            0.054947                   20   7
  234                m_alltoallv_z                         0.017822                   20   7
  235                map_scatter                           0.020809                   20   7
  236          M_sumb_d                              0.008546                         20   4
  237        set_dd_magatom                        0.000003                            1   3
  238        set_dd_paw                            0.015725                            1   3
  239          set_rsgf_all                          0.000004                          1   4
  240          M_sumb_d                              0.015580                          8   4
  241        strkin                                0.001090                            1   3
  242          M_sumb_d                              0.000529                          1   4
  243        strelo                                0.002712                            1   3
  244          M_sumb_d                              0.000544                          2   4
  245        strenl                                0.998476                            1   3
  246          spher                                 0.731619                         19   4
  247          phase                                 0.011604                        189   4
  248          proj1                                 0.230679                       1134   4
  249            crexp_mul_wave                        0.030455                     3402   5
  250            M_sumb_d                              0.071205                     1134   5
  251          M_sumb_d                              0.003027                          1   4
  252        M_sumb_d                              0.000289                            6   3
  253        fft3d_mpi                             0.014897                           11   3
  254          fftbas_plan_mpi                       0.013908                         11   4
  255            dfftw_execute                         0.005034                       33   5
  256            map_forward                           0.002688                       10   5
  257              map_gather                            0.000584                      5   6
  258              m_alltoallv_z                         0.001236                      5   6
  259              map_scatter                           0.000631                      5   6
  260            map_backward                          0.003586                       12   5
  261              map_gather                            0.000762                      6   6
  262              m_alltoallv_z                         0.001449                      6   6
  263              map_scatter                           0.001090                      6   6
  264        ggaall_grid                           0.001568                            1   3
  265        forhar                                0.006144                            2   3
  266          M_sumb_d                              0.000183                          2   4
  267        strehar                               0.002779                            1   3
  268          M_sumb_d                              0.000236                          1   4
  269        chggra                                0.006066                            1   3
  270          fft3d_mpi                             0.003943                          3   4
  271            fftbas_plan_mpi                       0.003674                        3   5
  272              dfftw_execute                         0.001315                      9   6
  273              map_backward                          0.000606                      2   6
  274                map_gather                            0.000117                    1   7
  275                m_alltoallv_z                         0.000248                    1   7
  276                map_scatter                           0.000189                    1   7
  277              map_forward                           0.000998                      4   6
  278                map_gather                            0.000203                    2   7
  279                m_alltoallv_z                         0.000457                    2   7
  280                map_scatter                           0.000249                    2   7
  281          M_sumb_d                              0.000119                          3   4
  282        brmix                                 0.005123                            1   3
  283          M_sumb_d                              0.000239                          6   4
  284          brpre                                 0.000049                          1   4
  285          setg0                                 0.001313                          1   4
  286          broyd                                 0.002411                          1   4
  287            M_sumb_d                              0.000723                       18   5
  288            brget                                 0.000300                       64   5
  289            brsav                                 0.000071                       16   5
  290          M_bcast_z                             0.000147                          1   4
  291          M_bcast_d                             0.000070                          1   4
  292        M_bcast_d                             0.000307                            2   3
  293      potlok                                0.026867                              1   2
  294        fft3d_mpi                             0.018520                           13   3
  295          fftbas_plan_mpi                       0.017202                         13   4
  296            dfftw_execute                         0.005797                       39   5
  297            map_forward                           0.004405                       14   5
  298              map_gather                            0.000789                      8   6
  299              m_alltoallv_z                         0.002208                      8   6
  300              map_scatter                           0.001046                      8   6
  301            map_backward                          0.003906                       12   5
  302              map_gather                            0.000871                      6   6
  303              m_alltoallv_z                         0.001659                      6   6
  304              map_scatter                           0.001085                      6   6
  305        ggaall_grid                           0.001525                            1   3
  306        M_sumb_d                              0.000311                            6   3
  307        M_bcast_d                             0.000096                            1   3
  308      potlok_metagga                        0.000004                              1   2
  309      set_dd_magatom                        0.000003                              1   2
  310      set_dd_paw                            0.000466                              1   2
  311        set_rsgf_all                          0.000004                            1   3
  312        M_sumb_d                              0.000261                            8   3
  313      densta                                0.002322                              1   2
  314        M_sumb_d                              0.000848                           39   3
  315      lprj_proall                           0.000008                              1   2

 Flat profile
 ============

             routine name                   CPU           calls
 ---------------------------------------------------------------
 total_time                             14.656471           1
 eddav                                   5.234961          16
 dfftw_execute                           4.805343       49884
 fftbas_plan_mpi                         3.370686       16630
 M_sumb_d                                2.666282       46310
 setdij_                                 2.503325          40
 set_charge                              2.030348          12
 elmin                                   1.915229           1
 m_alltoallv_z                           1.861224       16653
 pdssyex_zheevx                          1.481919         336
 M_alltoall_d                            1.162177       55426
 orth1                                   0.907755       11331
 proj1                                   0.888335        6784
 spher                                   0.819995          20
 gemm                                    0.790635       22620
 vhamil                                  0.768889        7540
 fftwav_mpi                              0.643698        8800
 map_forward                             0.638017       17878
 map_gather                              0.610348       16653
 map_scatter                             0.551579       16653
 vnlac0                                  0.502041        7540
 redis_pw                                0.463339       21318
 M_bcast_z                               0.461865        6321
 hamiltmu                                0.416088        3770
 redis_proj                              0.414334       26863
 w1_copy                                 0.315070       22620
 map_backward                            0.269631       15378
 fft3d_mpi                               0.266948       16628
 work_mul_crexp                          0.261602       22620
 fftext_mpi                              0.242831        7540
 crpa_reader                             0.230303           1
 crexp_mul_wave                          0.193821       20352
 eccp                                    0.182619        2016
 kinhamil                                0.152847        7540
 overl                                   0.151246       13085
 M_bcast_d                               0.123926        3802
 overl1                                  0.096181        7540
 potlok                                  0.082186          13
 pw_charge                               0.076220        1260
 apply_precond                           0.074165        5524
 setup_precond                           0.067659        2016
 w1_projall                              0.060446        2762
 lincom                                  0.059301         357
 force_and_stress                        0.058121           1
 fornl                                   0.044098           1
 phase                                   0.035386         568
 truncate_high_frequency_w1              0.032561        9556
 soft_charge                             0.032052          12
 densta                                  0.025428          17
 ggaall_grid                             0.021620          14
 strenl                                  0.021548           1
 brmix                                   0.019244          12
 setg0                                   0.014113          13
 broyd                                   0.008455          12
 brgrid                                  0.008236           1
 forhar                                  0.005961           2
 depsum                                  0.005303          12
 forloc                                  0.002888           1
 strehar                                 0.002543           1
 set_dd_paw                              0.002398          14
 strelo                                  0.002168           1
 orthch                                  0.002081           1
 brget                                   0.002028         432
 chggra                                  0.002004           1
 choleski                                0.001697          21
 proj                                    0.001521          21
 brsav                                   0.000808         128
 brpre                                   0.000724          12
 strkin                                  0.000561           1
 fordep                                  0.000124           1
 set_rsgf_all                            0.000065          14
 vectorpot                               0.000064          13
 potlok_metagga                          0.000051          13
 set_dd_magatom                          0.000049          14
 set_kineden                             0.000042          11
 rotate_active_occupied_orbital          0.000015           1
 lprj_proall                             0.000008           1
 redis_pw_over_bands                     0.000003           1
 ---------------------------------------------------------------
  summed up times    53.8258550167084

 Accumulative profile
 ====================

             routine name                   CPU           calls
 ---------------------------------------------------------------
 total_time                             53.825855           1
 elmin                                  34.904378           1
 eddav                                  28.554359          16
 fft3d_mpi                              12.336641       16628
 fftbas_plan_mpi                        12.106828       16630
 hamiltmu                                8.836200        3770
 fftwav_mpi                              6.996493        8800
 kinhamil                                5.523719        7540
 fftext_mpi                              5.370872        7540
 dfftw_execute                           4.805343       49884
 force_and_stress                        3.315608           1
 set_charge                              3.262289          12
 setdij_                                 2.996855          40
 M_sumb_d                                2.666282       46310
 map_forward                             2.316385       17878
 vnlac0                                  2.031323        7540
 m_alltoallv_z                           1.861224       16653
 map_backward                            1.614414       15378
 proj1                                   1.540557        6784
 pdssyex_zheevx                          1.481919         336
 w1_projall                              1.345039        2762
 M_alltoall_d                            1.162177       55426
 redis_pw                                1.114678       21318
 soft_charge                             1.071908          12
 strenl                                  0.998476           1
 redis_proj                              0.925173       26863
 orth1                                   0.907755       11331
 spher                                   0.819995          20
 gemm                                    0.790635       22620
 vhamil                                  0.768889        7540
 map_gather                              0.610348       16653
 map_scatter                             0.551579       16653
 M_bcast_z                               0.461865        6321
 fordep                                  0.439565           1
 potlok                                  0.336283          13
 w1_copy                                 0.315070       22620
 eccp                                    0.299231        2016
 work_mul_crexp                          0.261602       22620
 crpa_reader                             0.230303           1
 crexp_mul_wave                          0.193821       20352
 overl                                   0.151246       13085
 set_dd_paw                              0.150298          14
 M_bcast_d                               0.123926        3802
 setup_precond                           0.113889        2016
 overl1                                  0.096181        7540
 pw_charge                               0.076220        1260
 apply_precond                           0.074165        5524
 brmix                                   0.061641          12
 lincom                                  0.059301         357
 fornl                                   0.058685           1
 densta                                  0.038647          17
 phase                                   0.035386         568
 truncate_high_frequency_w1              0.032561        9556
 orthch                                  0.031516           1
 proj                                    0.026808          21
 ggaall_grid                             0.021620          14
 broyd                                   0.016328          12
 setg0                                   0.014113          13
 depsum                                  0.008554          12
 brgrid                                  0.008236           1
 forhar                                  0.006144           2
 chggra                                  0.006066           1
 forloc                                  0.004328           1
 strehar                                 0.002779           1
 strelo                                  0.002712           1
 brget                                   0.002028         432
 choleski                                0.001697          21
 strkin                                  0.001090           1
 brsav                                   0.000808         128
 brpre                                   0.000724          12
 set_rsgf_all                            0.000065          14
 vectorpot                               0.000064          13
 potlok_metagga                          0.000051          13
 set_dd_magatom                          0.000049          14
 set_kineden                             0.000042          11
 rotate_active_occupied_orbital          0.000015           1
 lprj_proall                             0.000008           1
 redis_pw_over_bands                     0.000003           1
 ---------------------------------------------------------------

Profiling took   1.313533  1.603298  0.005781  0.004361 seconds
Profiling took   1.276956 seconds
