<?xml version="1.0" encoding="ISO-8859-1"?>
<modeling>
 <generator>
  <i name="program" type="string">vasp </i>
  <i name="version" type="string">6.0.8  </i>
  <i name="subversion" type="string">29Jun18 (build Jun 13 2019 12:54:44) complex                          parallel </i>
  <i name="platform" type="string">IFC18_CrayMPICH </i>
  <i name="date" type="string">2021 12 05 </i>
  <i name="time" type="string">14:21:47 </i>
 </generator>
 <incar>
  <i type="int" name="KPAR">     4</i>
  <i type="int" name="NPAR">     4</i>
  <i type="int" name="ISTART">     0</i>
  <i type="string" name="PREC"> ACC</i>
  <i type="string" name="ALGO"> Normal</i>
  <i type="logical" name="ADDGRID"> T  </i>
  <i type="int" name="ISPIN">     1</i>
  <i type="int" name="NELMIN">     5</i>
  <i type="int" name="IBRION">    -1</i>
  <i name="EDIFF">      0.00000010</i>
  <i type="int" name="NSW">     0</i>
  <i type="int" name="ISIF">     3</i>
  <i name="ENCUT">    700.00000000</i>
  <i type="logical" name="LREAL"> F  </i>
  <i type="int" name="ISMEAR">     0</i>
  <i name="SIGMA">      0.01000000</i>
  <i type="logical" name="LWAVE"> F  </i>
  <i type="logical" name="LCHARG"> F  </i>
  <i type="logical" name="LVTOT"> F  </i>
  <i type="string" name="ALGO"> Normal</i>
  <i type="string" name="GGA"> PS</i>
  <i name="EDIFF">      0.00000010</i>
  <i type="int" name="ISPIN">     1</i>
 </incar>
 <structure name="primitive_cell" >
  <crystal>
   <varray name="basis" >
    <v>       0.00000000       3.23148734       3.23148734 </v>
    <v>       3.23148734       0.00000000       3.23148734 </v>
    <v>       3.23148734       3.23148734       0.00000000 </v>
   </varray>
   <i name="volume">     67.48968034 </i>
   <varray name="rec_basis" >
    <v>      -0.15472751       0.15472751       0.15472751 </v>
    <v>       0.15472751      -0.15472751       0.15472751 </v>
    <v>       0.15472751       0.15472751      -0.15472751 </v>
   </varray>
  </crystal>
  <varray name="positions" >
   <v>       0.25000000       0.25000000       0.25000000 </v>
   <v>       0.75000000       0.75000000       0.75000000 </v>
   <v>       0.00000000       0.00000000       0.00000000 </v>
  </varray>
 </structure>
 <varray name="primitive_index" >
  <v type="int" >        1 </v>
  <v type="int" >        2 </v>
  <v type="int" >        3 </v>
 </varray>
 <kpoints>
  <generation param="Gamma">
   <v type="int" name="divisions">      13       13       13 </v>
   <v name="usershift">      0.00000000       0.00000000       0.00000000 </v>
   <v name="genvec1">      0.07692308       0.00000000      -0.00000000 </v>
   <v name="genvec2">      0.00000000       0.07692308       0.00000000 </v>
   <v name="genvec3">     -0.00000000      -0.00000000       0.07692308 </v>
   <v name="shift">      0.00000000       0.00000000       0.00000000 </v>
  </generation>
  <varray name="kpointlist" >
   <v>       0.00000000       0.00000000       0.00000000 </v>
   <v>       0.07692308      -0.00000000       0.00000000 </v>
   <v>       0.15384615       0.00000000      -0.00000000 </v>
   <v>       0.23076923       0.00000000      -0.00000000 </v>
   <v>       0.30769231       0.00000000      -0.00000000 </v>
   <v>       0.38461538      -0.00000000       0.00000000 </v>
   <v>       0.46153846      -0.00000000       0.00000000 </v>
   <v>       0.07692308       0.07692308      -0.00000000 </v>
   <v>       0.15384615       0.07692308      -0.00000000 </v>
   <v>       0.23076923       0.07692308      -0.00000000 </v>
   <v>       0.30769231       0.07692308       0.00000000 </v>
   <v>       0.38461538       0.07692308      -0.00000000 </v>
   <v>       0.46153846       0.07692308      -0.00000000 </v>
   <v>      -0.46153846       0.07692308      -0.00000000 </v>
   <v>      -0.38461538       0.07692308       0.00000000 </v>
   <v>      -0.30769231       0.07692308      -0.00000000 </v>
   <v>      -0.23076923       0.07692308       0.00000000 </v>
   <v>      -0.15384615       0.07692308       0.00000000 </v>
   <v>      -0.07692308       0.07692308      -0.00000000 </v>
   <v>       0.15384615       0.15384615      -0.00000000 </v>
   <v>       0.23076923       0.15384615      -0.00000000 </v>
   <v>       0.30769231       0.15384615       0.00000000 </v>
   <v>       0.38461538       0.15384615       0.00000000 </v>
   <v>       0.46153846       0.15384615      -0.00000000 </v>
   <v>      -0.46153846       0.15384615       0.00000000 </v>
   <v>      -0.38461538       0.15384615      -0.00000000 </v>
   <v>      -0.30769231       0.15384615      -0.00000000 </v>
   <v>      -0.23076923       0.15384615      -0.00000000 </v>
   <v>      -0.15384615       0.15384615       0.00000000 </v>
   <v>       0.23076923       0.23076923      -0.00000000 </v>
   <v>       0.30769231       0.23076923      -0.00000000 </v>
   <v>       0.38461538       0.23076923       0.00000000 </v>
   <v>       0.46153846       0.23076923       0.00000000 </v>
   <v>      -0.46153846       0.23076923      -0.00000000 </v>
   <v>      -0.38461538       0.23076923       0.00000000 </v>
   <v>      -0.30769231       0.23076923       0.00000000 </v>
   <v>      -0.23076923       0.23076923       0.00000000 </v>
   <v>       0.30769231       0.30769231      -0.00000000 </v>
   <v>       0.38461538       0.30769231      -0.00000000 </v>
   <v>       0.46153846       0.30769231      -0.00000000 </v>
   <v>      -0.46153846       0.30769231      -0.00000000 </v>
   <v>      -0.38461538       0.30769231      -0.00000000 </v>
   <v>      -0.30769231       0.30769231       0.00000000 </v>
   <v>       0.38461538       0.38461538      -0.00000000 </v>
   <v>       0.46153846       0.38461538      -0.00000000 </v>
   <v>      -0.46153846       0.38461538       0.00000000 </v>
   <v>      -0.38461538       0.38461538      -0.00000000 </v>
   <v>       0.46153846       0.46153846      -0.00000000 </v>
   <v>      -0.46153846       0.46153846      -0.00000000 </v>
   <v>       0.23076923       0.15384615       0.07692308 </v>
   <v>       0.30769231       0.15384615       0.07692308 </v>
   <v>       0.38461538       0.15384615       0.07692308 </v>
   <v>       0.46153846       0.15384615       0.07692308 </v>
   <v>      -0.46153846       0.15384615       0.07692308 </v>
   <v>       0.30769231       0.23076923       0.07692308 </v>
   <v>       0.38461538       0.23076923       0.07692308 </v>
   <v>       0.46153846       0.23076923       0.07692308 </v>
   <v>      -0.46153846       0.23076923       0.07692308 </v>
   <v>      -0.38461538       0.23076923       0.07692308 </v>
   <v>      -0.30769231       0.23076923       0.07692308 </v>
   <v>      -0.23076923       0.23076923       0.07692308 </v>
   <v>      -0.15384615       0.23076923       0.07692308 </v>
   <v>       0.38461538       0.30769231       0.07692308 </v>
   <v>       0.46153846       0.30769231       0.07692308 </v>
   <v>      -0.46153846       0.30769231       0.07692308 </v>
   <v>      -0.38461538       0.30769231       0.07692308 </v>
   <v>      -0.30769231       0.30769231       0.07692308 </v>
   <v>      -0.23076923       0.30769231       0.07692308 </v>
   <v>       0.46153846       0.38461538       0.07692308 </v>
   <v>      -0.46153846       0.38461538       0.07692308 </v>
   <v>      -0.38461538       0.38461538       0.07692308 </v>
   <v>      -0.30769231       0.38461538       0.07692308 </v>
   <v>      -0.46153846       0.46153846       0.07692308 </v>
   <v>      -0.38461538       0.46153846       0.07692308 </v>
   <v>       0.46153846       0.30769231       0.15384615 </v>
   <v>      -0.46153846       0.30769231       0.15384615 </v>
   <v>      -0.38461538       0.30769231       0.15384615 </v>
   <v>      -0.46153846       0.38461538       0.15384615 </v>
   <v>      -0.38461538       0.38461538       0.15384615 </v>
   <v>      -0.30769231       0.38461538       0.15384615 </v>
   <v>      -0.23076923       0.38461538       0.15384615 </v>
   <v>      -0.38461538       0.46153846       0.15384615 </v>
   <v>      -0.30769231       0.46153846       0.15384615 </v>
   <v>      -0.30769231       0.46153846       0.23076923 </v>
  </varray>
  <varray name="weights" >
   <v>       0.00045517 </v>
   <v>       0.00364133 </v>
   <v>       0.00364133 </v>
   <v>       0.00364133 </v>
   <v>       0.00364133 </v>
   <v>       0.00364133 </v>
   <v>       0.00364133 </v>
   <v>       0.00273100 </v>
   <v>       0.01092399 </v>
   <v>       0.01092399 </v>
   <v>       0.01092399 </v>
   <v>       0.01092399 </v>
   <v>       0.01092399 </v>
   <v>       0.01092399 </v>
   <v>       0.01092399 </v>
   <v>       0.01092399 </v>
   <v>       0.01092399 </v>
   <v>       0.01092399 </v>
   <v>       0.00546199 </v>
   <v>       0.00273100 </v>
   <v>       0.01092399 </v>
   <v>       0.01092399 </v>
   <v>       0.01092399 </v>
   <v>       0.01092399 </v>
   <v>       0.01092399 </v>
   <v>       0.01092399 </v>
   <v>       0.01092399 </v>
   <v>       0.01092399 </v>
   <v>       0.00546199 </v>
   <v>       0.00273100 </v>
   <v>       0.01092399 </v>
   <v>       0.01092399 </v>
   <v>       0.01092399 </v>
   <v>       0.01092399 </v>
   <v>       0.01092399 </v>
   <v>       0.01092399 </v>
   <v>       0.00546199 </v>
   <v>       0.00273100 </v>
   <v>       0.01092399 </v>
   <v>       0.01092399 </v>
   <v>       0.01092399 </v>
   <v>       0.01092399 </v>
   <v>       0.00546199 </v>
   <v>       0.00273100 </v>
   <v>       0.01092399 </v>
   <v>       0.01092399 </v>
   <v>       0.00546199 </v>
   <v>       0.00273100 </v>
   <v>       0.00546199 </v>
   <v>       0.01092399 </v>
   <v>       0.02184797 </v>
   <v>       0.02184797 </v>
   <v>       0.02184797 </v>
   <v>       0.02184797 </v>
   <v>       0.01092399 </v>
   <v>       0.02184797 </v>
   <v>       0.02184797 </v>
   <v>       0.02184797 </v>
   <v>       0.02184797 </v>
   <v>       0.02184797 </v>
   <v>       0.02184797 </v>
   <v>       0.01092399 </v>
   <v>       0.01092399 </v>
   <v>       0.02184797 </v>
   <v>       0.02184797 </v>
   <v>       0.02184797 </v>
   <v>       0.02184797 </v>
   <v>       0.01092399 </v>
   <v>       0.01092399 </v>
   <v>       0.02184797 </v>
   <v>       0.02184797 </v>
   <v>       0.01092399 </v>
   <v>       0.01092399 </v>
   <v>       0.01092399 </v>
   <v>       0.01092399 </v>
   <v>       0.02184797 </v>
   <v>       0.02184797 </v>
   <v>       0.01092399 </v>
   <v>       0.02184797 </v>
   <v>       0.02184797 </v>
   <v>       0.01092399 </v>
   <v>       0.01092399 </v>
   <v>       0.01092399 </v>
   <v>       0.01092399 </v>
  </varray>
 </kpoints>
 <parameters>
  <separator name="general" >
   <i type="string" name="SYSTEM">unknown system</i>
   <i type="logical" name="LCOMPAT"> F  </i>
  </separator>
  <separator name="electronic" >
   <i type="string" name="PREC">acc</i>
   <i name="ENMAX">    700.00000000</i>
   <i name="ENAUG">    535.43100000</i>
   <i name="EDIFF">      0.00000010</i>
   <i type="int" name="IALGO">    38</i>
   <i type="int" name="IWAVPR">    10</i>
   <i type="int" name="NBANDS">    24</i>
   <i type="int" name="NBANDSLOW">    -1</i>
   <i type="int" name="NBANDSHIGH">    -1</i>
   <i name="NELECT">     37.00000000</i>
   <i type="int" name="TURBO">     0</i>
   <i type="int" name="IRESTART">     0</i>
   <i type="int" name="NREBOOT">     0</i>
   <i type="int" name="NMIN">     0</i>
   <i name="EREF">      0.00000000</i>
   <separator name="electronic smearing" >
    <i type="int" name="ISMEAR">     0</i>
    <i name="SIGMA">      0.01000000</i>
    <i name="KSPACING">      0.50000000</i>
    <i type="logical" name="KGAMMA"> T  </i>
    <i type="logical" name="KBLOWUP"> T  </i>
   </separator>
   <separator name="electronic projectors" >
    <i type="logical" name="LREAL"> F  </i>
    <v name="ROPT">      0.00000000      0.00000000      0.00000000</v>
    <i type="int" name="LMAXPAW">  -100</i>
    <i type="int" name="LMAXMIX">     2</i>
    <i type="logical" name="NLSPLINE"> F  </i>
   </separator>
   <separator name="electronic startup" >
    <i type="int" name="ISTART">     0</i>
    <i type="int" name="ICHARG">     2</i>
    <i type="int" name="INIWAV">     1</i>
   </separator>
   <separator name="electronic spin" >
    <i type="int" name="ISPIN">     1</i>
    <i type="logical" name="LNONCOLLINEAR"> F  </i>
    <v name="MAGMOM">      1.00000000      1.00000000      1.00000000</v>
    <i name="NUPDOWN">     -1.00000000</i>
    <i type="logical" name="LSORBIT"> F  </i>
    <v name="SAXIS">      0.00000000      0.00000000      1.00000000</v>
    <i type="logical" name="LSPIRAL"> F  </i>
    <v name="QSPIRAL">      0.00000000      0.00000000      0.00000000</v>
    <i type="logical" name="LZEROZ"> F  </i>
   </separator>
   <separator name="electronic exchange-correlation" >
    <i type="logical" name="LASPH"> F  </i>
    <i type="logical" name="LMETAGGA"> F  </i>
   </separator>
   <separator name="electronic convergence" >
    <i type="int" name="NELM">    60</i>
    <i type="int" name="NELMDL">    -5</i>
    <i type="int" name="NELMIN">     5</i>
    <i name="ENINI">    700.00000000</i>
    <separator name="electronic convergence detail" >
     <i type="logical" name="LDIAG"> T  </i>
     <i type="logical" name="LSUBROT"> F  </i>
     <i name="WEIMIN">      0.00000000</i>
     <i name="EBREAK">      0.00000000</i>
     <i name="DEPER">      0.30000000</i>
     <i type="int" name="NRMM">     4</i>
     <i name="TIME">      0.40000000</i>
    </separator>
   </separator>
   <separator name="electronic mixer" >
    <i name="AMIX">      0.40000000</i>
    <i name="BMIX">      1.00000000</i>
    <i name="AMIN">      0.10000000</i>
    <i name="AMIX_MAG">      1.60000000</i>
    <i name="BMIX_MAG">      1.00000000</i>
    <separator name="electronic mixer details" >
     <i type="int" name="IMIX">     4</i>
     <i type="logical" name="MIXFIRST"> F  </i>
     <i type="int" name="MAXMIX">   -45</i>
     <i name="WC">    100.00000000</i>
     <i type="int" name="INIMIX">     1</i>
     <i type="int" name="MIXPRE">     1</i>
     <i type="int" name="MREMOVE">     5</i>
    </separator>
   </separator>
   <separator name="electronic dipolcorrection" >
    <i type="logical" name="LDIPOL"> F  </i>
    <i type="logical" name="LMONO"> F  </i>
    <i type="int" name="IDIPOL">     0</i>
    <i name="EPSILON">      1.00000000</i>
    <v name="DIPOL">   -100.00000000   -100.00000000   -100.00000000</v>
    <i name="EFIELD">      0.00000000</i>
   </separator>
  </separator>
  <separator name="grids" >
   <i type="int" name="NGX">    40</i>
   <i type="int" name="NGY">    40</i>
   <i type="int" name="NGZ">    40</i>
   <i type="int" name="NGXF">    80</i>
   <i type="int" name="NGYF">    80</i>
   <i type="int" name="NGZF">    80</i>
   <i type="logical" name="ADDGRID"> T  </i>
  </separator>
  <separator name="ionic" >
   <i type="int" name="NSW">     0</i>
   <i type="int" name="IBRION">    -1</i>
   <i type="int" name="MDALGO">     0</i>
   <i type="int" name="ISIF">     3</i>
   <i name="PSTRESS">      0.00000000</i>
   <i name="EDIFFG">      0.00000100</i>
   <i type="int" name="NFREE">     0</i>
   <i name="POTIM">      0.50000000</i>
   <i name="SMASS">     -3.00000000</i>
   <i name="SCALEE">      1.00000000</i>
  </separator>
  <separator name="ionic md" >
   <i name="TEBEG">      0.00010000</i>
   <i name="TEEND">      0.00010000</i>
   <i type="int" name="NBLOCK">     1</i>
   <i type="int" name="KBLOCK">     1</i>
   <i type="int" name="NPACO">   256</i>
   <i name="APACO">     16.00000000</i>
  </separator>
  <separator name="symmetry" >
   <i type="int" name="ISYM">     2</i>
   <i name="SYMPREC">      0.00001000</i>
  </separator>
  <separator name="dos" >
   <i type="int" name="LORBIT">     0</i>
   <v name="RWIGS">     -1.00000000     -1.00000000     -1.00000000</v>
   <i type="int" name="NEDOS">   301</i>
   <i name="EMIN">     10.00000000</i>
   <i name="EMAX">    -10.00000000</i>
   <i name="EFERMI">      0.00000000</i>
  </separator>
  <separator name="writing" >
   <i type="int" name="NWRITE">     2</i>
   <i type="logical" name="LWAVE"> F  </i>
   <i type="logical" name="LDOWNSAMPLE"> F  </i>
   <i type="logical" name="LCHARG"> F  </i>
   <i type="logical" name="LPARD"> F  </i>
   <i type="logical" name="LVTOT"> F  </i>
   <i type="logical" name="LVHAR"> F  </i>
   <i type="logical" name="LELF"> F  </i>
   <i type="logical" name="LOPTICS"> F  </i>
   <v name="STM">      0.00000000      0.00000000      0.00000000      0.00000000      0.00000000      0.00000000      0.00000000</v>
  </separator>
  <separator name="performance" >
   <i type="int" name="NPAR">     4</i>
   <i type="int" name="NSIM">     4</i>
   <i type="int" name="NBLK">    -1</i>
   <i type="logical" name="LPLANE"> T  </i>
   <i type="logical" name="LSCALAPACK"> T  </i>
   <i type="logical" name="LSCAAWARE"> F  </i>
   <i type="logical" name="LSCALU"> F  </i>
   <i type="logical" name="LASYNC"> F  </i>
   <i type="logical" name="LORBITALREAL"> F  </i>
  </separator>
  <separator name="miscellaneous" >
   <i type="int" name="IDIOT">     3</i>
   <i type="int" name="PHON_NSTRUCT">    -1</i>
   <i type="logical" name="LMUSIC"> F  </i>
   <v name="POMASS">    232.03900000    208.98000000    195.08000000</v>
   <v name="DARWINR">      0.00000000      0.00000000      0.00000000</v>
   <v name="DARWINV">      1.00000000      1.00000000      1.00000000</v>
   <i type="logical" name="LCORR"> T  </i>
  </separator>
  <i type="logical" name="GGA_COMPAT"> T  </i>
  <i type="logical" name="LBERRY"> F  </i>
  <i type="int" name="ICORELEVEL">     0</i>
  <i type="logical" name="LDAU"> F  </i>
  <i type="int" name="I_CONSTRAINED_M">     0</i>
  <separator name="electronic exchange-correlation" >
   <i type="string" name="GGA">PS</i>
   <i type="int" name="VOSKOWN">     0</i>
   <i type="logical" name="LHFCALC"> F  </i>
   <i type="string" name="PRECFOCK"></i>
   <i type="logical" name="LSYMGRAD"> F  </i>
   <i type="logical" name="LHFONE"> F  </i>
   <i type="logical" name="LRHFCALC"> F  </i>
   <i type="logical" name="LTHOMAS"> F  </i>
   <i type="logical" name="LMODELHF"> F  </i>
   <i type="logical" name="LFOCKACE"> F  </i>
   <i name="ENCUT4O">     -1.00000000</i>
   <i type="int" name="EXXOEP">     0</i>
   <i type="int" name="FOURORBIT">     0</i>
   <i name="AEXX">      0.00000000</i>
   <i name="HFALPHA">      0.00000000</i>
   <i name="MCALPHA">      0.00000000</i>
   <i name="ALDAX">      1.00000000</i>
   <i name="AGGAX">      1.00000000</i>
   <i name="ALDAC">      1.00000000</i>
   <i name="AGGAC">      1.00000000</i>
   <i type="int" name="NKREDX">     1</i>
   <i type="int" name="NKREDY">     1</i>
   <i type="int" name="NKREDZ">     1</i>
   <i type="logical" name="SHIFTRED"> F  </i>
   <i type="logical" name="ODDONLY"> F  </i>
   <i type="logical" name="EVENONLY"> F  </i>
   <i type="int" name="LMAXFOCK">     0</i>
   <i type="int" name="NMAXFOCKAE">     0</i>
   <i type="logical" name="LFOCKAEDFT"> F  </i>
   <i name="HFSCREEN">      0.00000000</i>
   <i name="HFSCREENC">      0.00000000</i>
   <i type="int" name="NBANDSGWLOW">     0</i>
  </separator>
  <separator name="vdW DFT" >
   <i type="logical" name="LUSE_VDW"> F  </i>
   <i name="Zab_VDW">     -0.84910000</i>
   <i name="PARAM1">      0.12340000</i>
   <i name="PARAM2">      1.00000000</i>
   <i name="PARAM3">      0.00000000</i>
  </separator>
  <separator name="model GW" >
   <i type="int" name="MODEL_GW">     0</i>
   <i name="MODEL_EPS0">     13.49793607</i>
   <i name="MODEL_ALPHA">      1.00000000</i>
  </separator>
  <separator name="linear response parameters" >
   <i type="logical" name="LEPSILON"> F  </i>
   <i type="logical" name="LRPA"> F  </i>
   <i type="logical" name="LNABLA"> F  </i>
   <i type="logical" name="LVEL"> F  </i>
   <i type="int" name="KINTER">     0</i>
   <i name="CSHIFT">      0.10000000</i>
   <i name="OMEGAMAX">     -1.00000000</i>
   <i name="DEG_THRESHOLD">      0.00200000</i>
   <i name="RTIME">     -0.10000000</i>
   <i name="WPLASMAI">      0.00000000</i>
   <v name="DFIELD">      0.00000000      0.00000000      0.00000000</v>
   <v name="WPLASMA">      0.00000000      0.00000000      0.00000000      0.00000000      0.00000000      0.00000000      0.00000000      0.00000000      0.00000000</v>
  </separator>
  <separator name="orbital magnetization" >
   <i type="logical" name="NUCIND"> F  </i>
   <v name="MAGPOS">      0.00000000      0.00000000      0.00000000</v>
   <i type="logical" name="LNICSALL"> T  </i>
   <i type="logical" name="ORBITALMAG"> F  </i>
   <i type="logical" name="LMAGBLOCH"> F  </i>
   <i type="logical" name="LCHIMAG"> F  </i>
   <i type="logical" name="LGAUGE"> T  </i>
   <i type="int" name="MAGATOM">     0</i>
   <v name="MAGDIPOL">      0.00000000      0.00000000      0.00000000</v>
   <v name="AVECCONST">      0.00000000      0.00000000      0.00000000</v>
  </separator>
  <separator name="response functions" >
   <i type="logical" name="LFINITE_TEMPERATURE"> F  </i>
   <i type="logical" name="LADDER"> F  </i>
   <i type="logical" name="LRPAFORCE"> F  </i>
   <i type="logical" name="LFXC"> F  </i>
   <i type="logical" name="LHARTREE"> T  </i>
   <i type="int" name="IBSE">     0</i>
   <v type="int" name="KPOINT">    -1     0     0     0</v>
   <i type="logical" name="LTCTC"> F  </i>
   <i type="logical" name="LTCTE"> F  </i>
   <i type="logical" name="LTETE"> F  </i>
   <i type="logical" name="LTRIPLET"> F  </i>
   <i type="logical" name="LFXCEPS"> F  </i>
   <i type="logical" name="LFXHEG"> F  </i>
   <i type="int" name="NATURALO">     2</i>
   <i type="logical" name="L2ORDER"> F  </i>
   <i type="logical" name="LDMP1"> F  </i>
   <i type="logical" name="LMP2LT"> F  </i>
   <i type="logical" name="LSMP2LT"> F  </i>
   <i type="logical" name="LUSEW"> F  </i>
   <i name="ENCUTGW">     -2.00000000</i>
   <i name="ENCUTGWSOFT">     -2.00000000</i>
   <i name="ENCUTLF">     -1.00000000</i>
   <i type="int" name="LMAXMP2">    -1</i>
   <i name="SCISSOR">      0.00000000</i>
   <i type="int" name="NOMEGA">     0</i>
   <i type="int" name="NOMEGAR">     0</i>
   <i type="int" name="NBANDSGW">    -1</i>
   <i type="int" name="NBANDSO">    -1</i>
   <i type="int" name="NBANDSV">    -1</i>
   <i type="int" name="NELM">     1</i>
   <i type="int" name="NELMHF">     1</i>
   <i type="int" name="DIM">     3</i>
   <i type="int" name="IESPILON">     4</i>
   <i type="int" name="ANTIRES">     0</i>
   <i name="OMEGAMAX">    -30.00000000</i>
   <i name="OMEGAMIN">    -30.00000000</i>
   <i name="OMEGATL">   -200.00000000</i>
   <i type="int" name="OMEGAGRID">   145</i>
   <i name="CSHIFT">     -0.10000000</i>
   <i type="logical" name="LSELFENERGY"> F  </i>
   <i type="logical" name="LSPECTRAL"> F  </i>
   <i type="logical" name="LSPECTRALGW"> F  </i>
   <i type="logical" name="LSINGLES"> F  </i>
   <i type="logical" name="LFERMIGW"> F  </i>
   <i type="logical" name="ODDONLYGW"> F  </i>
   <i type="logical" name="EVENONLYGW"> F  </i>
   <i type="int" name="NKREDLFX">     1</i>
   <i type="int" name="NKREDLFY">     1</i>
   <i type="int" name="NKREDLFZ">     1</i>
   <i type="int" name="MAXMEM">  2800</i>
   <i type="int" name="TELESCOPE">     0</i>
   <i type="int" name="NTAUPAR">     1</i>
   <i type="int" name="NOMEGAPAR">    -1</i>
   <i name="LAMBDA">      1.00000000</i>
  </separator>
  <separator name="External order field" >
   <i name="OFIELD_KAPPA">      0.00000000</i>
   <v name="OFIELD_K">      0.00000000      0.00000000      0.00000000</v>
   <i name="OFIELD_Q6_NEAR">      0.00000000</i>
   <i name="OFIELD_Q6_FAR">      0.00000000</i>
   <i name="OFIELD_A">      0.00000000</i>
  </separator>
 </parameters>
 <atominfo>
  <atoms>       3 </atoms>
  <types>       3 </types>
  <array name="atoms" >
   <dimension dim="1">ion</dimension>
   <field type="string">element</field>
   <field type="int">atomtype</field>
   <set>
    <rc><c>Th</c><c>   1</c></rc>
    <rc><c>Bi</c><c>   2</c></rc>
    <rc><c>Pt</c><c>   3</c></rc>
   </set>
  </array>
  <array name="atomtypes" >
   <dimension dim="1">type</dimension>
   <field type="int">atomspertype</field>
   <field type="string">element</field>
   <field>mass</field>
   <field>valence</field>
   <field type="string">pseudopotential</field>
   <set>
    <rc><c>   1</c><c>Th</c><c>    232.03900000</c><c>     12.00000000</c><c>  PAW_PBE Th 07Sep2000                  </c></rc>
    <rc><c>   1</c><c>Bi</c><c>    208.98000000</c><c>     15.00000000</c><c>  PAW_PBE Bi_d 06Sep2000                </c></rc>
    <rc><c>   1</c><c>Pt</c><c>    195.08000000</c><c>     10.00000000</c><c>  PAW_PBE Pt 04Feb2005                  </c></rc>
   </set>
  </array>
 </atominfo>
 <structure name="initialpos" >
  <crystal>
   <varray name="basis" >
    <v>       0.00000000       3.23148734       3.23148734 </v>
    <v>       3.23148734       0.00000000       3.23148734 </v>
    <v>       3.23148734       3.23148734       0.00000000 </v>
   </varray>
   <i name="volume">     67.48968034 </i>
   <varray name="rec_basis" >
    <v>      -0.15472751       0.15472751       0.15472751 </v>
    <v>       0.15472751      -0.15472751       0.15472751 </v>
    <v>       0.15472751       0.15472751      -0.15472751 </v>
   </varray>
  </crystal>
  <varray name="positions" >
   <v>       0.25000000       0.25000000       0.25000000 </v>
   <v>       0.75000000       0.75000000       0.75000000 </v>
   <v>       0.00000000       0.00000000       0.00000000 </v>
  </varray>
 </structure>
 <calculation>
  <scstep>
   <time name="dav">    1.43    1.43</time>
   <time name="total">    1.57    1.66</time>
   <energy>
    <i name="alphaZ">    254.58059502 </i>
    <i name="ewald">  -3314.93804849 </i>
    <i name="hartreedc">   -679.70371969 </i>
    <i name="XCdc">     70.36471210 </i>
    <i name="pawpsdc">   3147.30828992 </i>
    <i name="pawaedc">  -3070.62761383 </i>
    <i name="eentropy">     -0.00025050 </i>
    <i name="bandstr">    373.25872459 </i>
    <i name="atom">   3674.67342263 </i>
    <i name="e_fr_energy">    454.91611176 </i>
    <i name="e_wo_entrp">    454.91636226 </i>
    <i name="e_0_energy">    454.91623701 </i>
   </energy>
  </scstep>
  <scstep>
   <time name="dav">    1.45    1.48</time>
   <time name="total">    1.45    1.49</time>
   <energy>
    <i name="e_fr_energy">     48.13312923 </i>
    <i name="e_wo_entrp">     48.13333227 </i>
    <i name="e_0_energy">     48.13323075 </i>
   </energy>
  </scstep>
  <scstep>
   <time name="dav">    1.81    1.84</time>
   <time name="total">    1.81    1.84</time>
   <energy>
    <i name="e_fr_energy">    -17.50050309 </i>
    <i name="e_wo_entrp">    -17.50005444 </i>
    <i name="e_0_energy">    -17.50027877 </i>
   </energy>
  </scstep>
  <scstep>
   <time name="dav">    2.23    2.25</time>
   <time name="total">    2.23    2.25</time>
   <energy>
    <i name="e_fr_energy">    -21.75803528 </i>
    <i name="e_wo_entrp">    -21.75768634 </i>
    <i name="e_0_energy">    -21.75786081 </i>
   </energy>
  </scstep>
  <scstep>
   <time name="dav">    1.81    1.85</time>
   <time name="total">    2.15    2.19</time>
   <energy>
    <i name="e_fr_energy">    -21.85546536 </i>
    <i name="e_wo_entrp">    -21.85516151 </i>
    <i name="e_0_energy">    -21.85531344 </i>
   </energy>
  </scstep>
  <scstep>
   <time name="dav">    1.69    1.69</time>
   <time name="total">    2.11    2.14</time>
   <energy>
    <i name="e_fr_energy">    -21.09713287 </i>
    <i name="e_wo_entrp">    -21.09693454 </i>
    <i name="e_0_energy">    -21.09703371 </i>
   </energy>
  </scstep>
  <scstep>
   <time name="dav">    1.89    1.89</time>
   <time name="total">    2.29    2.32</time>
   <energy>
    <i name="e_fr_energy">    -20.93331729 </i>
    <i name="e_wo_entrp">    -20.93317611 </i>
    <i name="e_0_energy">    -20.93324670 </i>
   </energy>
  </scstep>
  <scstep>
   <time name="dav">    1.78    1.78</time>
   <time name="total">    2.17    2.21</time>
   <energy>
    <i name="e_fr_energy">    -20.90704257 </i>
    <i name="e_wo_entrp">    -20.90693963 </i>
    <i name="e_0_energy">    -20.90699110 </i>
   </energy>
  </scstep>
  <scstep>
   <time name="dav">    1.87    1.87</time>
   <time name="total">    2.27    2.31</time>
   <energy>
    <i name="e_fr_energy">    -20.90210077 </i>
    <i name="e_wo_entrp">    -20.90198232 </i>
    <i name="e_0_energy">    -20.90204154 </i>
   </energy>
  </scstep>
  <scstep>
   <time name="dav">    1.90    1.90</time>
   <time name="total">    2.28    2.32</time>
   <energy>
    <i name="e_fr_energy">    -20.89927310 </i>
    <i name="e_wo_entrp">    -20.89917161 </i>
    <i name="e_0_energy">    -20.89922235 </i>
   </energy>
  </scstep>
  <scstep>
   <time name="dav">    1.77    1.78</time>
   <time name="total">    2.17    2.21</time>
   <energy>
    <i name="e_fr_energy">    -20.89931411 </i>
    <i name="e_wo_entrp">    -20.89921203 </i>
    <i name="e_0_energy">    -20.89926307 </i>
   </energy>
  </scstep>
  <scstep>
   <time name="dav">    1.95    1.95</time>
   <time name="total">    2.33    2.40</time>
   <energy>
    <i name="e_fr_energy">    -20.89928047 </i>
    <i name="e_wo_entrp">    -20.89917685 </i>
    <i name="e_0_energy">    -20.89922866 </i>
   </energy>
  </scstep>
  <scstep>
   <time name="dav">    1.93    1.93</time>
   <time name="total">    2.32    2.35</time>
   <energy>
    <i name="e_fr_energy">    -20.89928250 </i>
    <i name="e_wo_entrp">    -20.89917843 </i>
    <i name="e_0_energy">    -20.89923046 </i>
   </energy>
  </scstep>
  <scstep>
   <time name="dav">    1.82    1.82</time>
   <time name="total">    2.21    2.26</time>
   <energy>
    <i name="e_fr_energy">    -20.89928221 </i>
    <i name="e_wo_entrp">    -20.89917824 </i>
    <i name="e_0_energy">    -20.89923022 </i>
   </energy>
  </scstep>
  <scstep>
   <time name="dav">    2.00    2.00</time>
   <time name="total">    2.39    2.45</time>
   <energy>
    <i name="e_fr_energy">    -20.89928195 </i>
    <i name="e_wo_entrp">    -20.89917808 </i>
    <i name="e_0_energy">    -20.89923001 </i>
   </energy>
  </scstep>
  <scstep>
   <time name="dav">    1.31    1.31</time>
   <time name="total">    1.42    1.47</time>
   <energy>
    <i name="alphaZ">    254.58059502 </i>
    <i name="ewald">  -3314.93804849 </i>
    <i name="hartreedc">   -652.77641456 </i>
    <i name="XCdc">     69.69553169 </i>
    <i name="pawpsdc">   4469.31434059 </i>
    <i name="pawaedc">  -4404.31793387 </i>
    <i name="eentropy">     -0.00010388 </i>
    <i name="bandstr">   -117.13067107 </i>
    <i name="atom">   3674.67342263 </i>
    <i name="e_fr_energy">    -20.89928194 </i>
    <i name="e_wo_entrp">    -20.89917805 </i>
    <i name="e_0_energy">    -20.89922999 </i>
   </energy>
  </scstep>
  <structure>
   <crystal>
    <varray name="basis" >
     <v>       0.00000000       3.23148734       3.23148734 </v>
     <v>       3.23148734       0.00000000       3.23148734 </v>
     <v>       3.23148734       3.23148734       0.00000000 </v>
    </varray>
    <i name="volume">     67.48968034 </i>
    <varray name="rec_basis" >
     <v>      -0.15472751       0.15472751       0.15472751 </v>
     <v>       0.15472751      -0.15472751       0.15472751 </v>
     <v>       0.15472751       0.15472751      -0.15472751 </v>
    </varray>
   </crystal>
   <varray name="positions" >
    <v>       0.25000000       0.25000000       0.25000000 </v>
    <v>       0.75000000       0.75000000       0.75000000 </v>
    <v>       0.00000000       0.00000000       0.00000000 </v>
   </varray>
  </structure>
  <varray name="forces" >
   <v>      -0.00000000      -0.00000000      -0.00000000 </v>
   <v>      -0.00000000      -0.00000000      -0.00000000 </v>
   <v>       0.00000000       0.00000000       0.00000000 </v>
  </varray>
  <varray name="stress" >
   <v>     278.84911244       0.00000000      -0.00000000 </v>
   <v>       0.00000000     278.84911244      -0.00000000 </v>
   <v>      -0.00000000       0.00000000     278.84911244 </v>
  </varray>
  <energy>
   <i name="e_fr_energy">    -20.89928194 </i>
   <i name="e_wo_entrp">    -20.89922999 </i>
   <i name="e_0_energy">     -0.00010388 </i>
  </energy>
  <time name="totalsc">   36.75   38.44</time>
  <eigenvalues>
   <array>
    <dimension dim="1">band</dimension>
    <dimension dim="2">kpoint</dimension>
    <dimension dim="3">spin</dimension>
    <field>eigene</field>
    <field>occ</field>
    <set>
     <set comment="spin 1">
      <set comment="kpoint 1">
       <r>  -28.8287    1.0000 </r>
       <r>  -12.5877    1.0000 </r>
       <r>  -12.5877    1.0000 </r>
       <r>  -12.5395    1.0000 </r>
       <r>  -12.5395    1.0000 </r>
       <r>  -12.5395    1.0000 </r>
       <r>   -7.1289    1.0000 </r>
       <r>   -7.1289    1.0000 </r>
       <r>   -7.1289    1.0000 </r>
       <r>   -2.5084    1.0000 </r>
       <r>    5.7139    1.0000 </r>
       <r>    5.7139    1.0000 </r>
       <r>    5.7284    1.0000 </r>
       <r>    5.7284    1.0000 </r>
       <r>    5.7284    1.0000 </r>
       <r>    9.3672    1.0000 </r>
       <r>    9.3672    1.0000 </r>
       <r>    9.3672    1.0000 </r>
       <r>    9.6126    1.0000 </r>
       <r>   10.9183    0.0000 </r>
       <r>   10.9183    0.0000 </r>
       <r>   10.9183    0.0000 </r>
       <r>   11.9432    0.0000 </r>
       <r>   13.2243    0.0000 </r>
      </set>
      <set comment="kpoint 2">
       <r>  -28.8278    1.0000 </r>
       <r>  -12.5895    1.0000 </r>
       <r>  -12.5895    1.0000 </r>
       <r>  -12.5399    1.0000 </r>
       <r>  -12.5392    1.0000 </r>
       <r>  -12.5392    1.0000 </r>
       <r>   -7.1710    1.0000 </r>
       <r>   -7.1227    1.0000 </r>
       <r>   -7.1227    1.0000 </r>
       <r>   -2.4011    1.0000 </r>
       <r>    5.4424    1.0000 </r>
       <r>    5.4424    1.0000 </r>
       <r>    5.5916    1.0000 </r>
       <r>    5.9847    1.0000 </r>
       <r>    5.9847    1.0000 </r>
       <r>    8.5973    1.0000 </r>
       <r>    9.2765    1.0000 </r>
       <r>    9.2765    1.0000 </r>
       <r>   10.1363    1.0000 </r>
       <r>   11.0331    0.0000 </r>
       <r>   11.0331    0.0000 </r>
       <r>   11.0981    0.0000 </r>
       <r>   12.2623    0.0000 </r>
       <r>   13.2292    0.0000 </r>
      </set>
      <set comment="kpoint 3">
       <r>  -28.8252    1.0000 </r>
       <r>  -12.5943    1.0000 </r>
       <r>  -12.5943    1.0000 </r>
       <r>  -12.5412    1.0000 </r>
       <r>  -12.5383    1.0000 </r>
       <r>  -12.5383    1.0000 </r>
       <r>   -7.2784    1.0000 </r>
       <r>   -7.1056    1.0000 </r>
       <r>   -7.1056    1.0000 </r>
       <r>   -2.1105    1.0000 </r>
       <r>    5.1975    1.0000 </r>
       <r>    5.1975    1.0000 </r>
       <r>    5.2320    1.0000 </r>
       <r>    6.1678    1.0000 </r>
       <r>    6.1678    1.0000 </r>
       <r>    7.8059    1.0000 </r>
       <r>    9.0999    1.0000 </r>
       <r>    9.0999    1.0000 </r>
       <r>   10.1977    1.0000 </r>
       <r>   11.3040    0.0000 </r>
       <r>   11.3040    0.0000 </r>
       <r>   11.8491    0.0000 </r>
       <r>   12.8697    0.0000 </r>
       <r>   13.2324    0.0000 </r>
      </set>
      <set comment="kpoint 4">
       <r>  -28.8215    1.0000 </r>
       <r>  -12.6010    1.0000 </r>
       <r>  -12.6010    1.0000 </r>
       <r>  -12.5433    1.0000 </r>
       <r>  -12.5371    1.0000 </r>
       <r>  -12.5371    1.0000 </r>
       <r>   -7.4106    1.0000 </r>
       <r>   -7.0816    1.0000 </r>
       <r>   -7.0816    1.0000 </r>
       <r>   -1.7153    1.0000 </r>
       <r>    4.7694    1.0000 </r>
       <r>    5.0167    1.0000 </r>
       <r>    5.0167    1.0000 </r>
       <r>    6.2117    1.0000 </r>
       <r>    6.2117    1.0000 </r>
       <r>    7.1880    1.0000 </r>
       <r>    8.9740    1.0000 </r>
       <r>    8.9740    1.0000 </r>
       <r>   10.1928    1.0000 </r>
       <r>   11.6329    0.0000 </r>
       <r>   11.6329    0.0000 </r>
       <r>   12.6435    0.0000 </r>
       <r>   13.2141    0.0000 </r>
       <r>   13.2149    0.0000 </r>
      </set>
      <set comment="kpoint 5">
       <r>  -28.8175    1.0000 </r>
       <r>  -12.6082    1.0000 </r>
       <r>  -12.6082    1.0000 </r>
       <r>  -12.5459    1.0000 </r>
       <r>  -12.5358    1.0000 </r>
       <r>  -12.5358    1.0000 </r>
       <r>   -7.5313    1.0000 </r>
       <r>   -7.0562    1.0000 </r>
       <r>   -7.0562    1.0000 </r>
       <r>   -1.3115    1.0000 </r>
       <r>    4.3321    1.0000 </r>
       <r>    4.9135    1.0000 </r>
       <r>    4.9135    1.0000 </r>
       <r>    6.1154    1.0000 </r>
       <r>    6.1154    1.0000 </r>
       <r>    6.7588    1.0000 </r>
       <r>    8.9435    1.0000 </r>
       <r>    8.9435    1.0000 </r>
       <r>   10.2765    1.0000 </r>
       <r>   11.9604    0.0000 </r>
       <r>   11.9604    0.0000 </r>
       <r>   13.1439    0.0000 </r>
       <r>   13.1810    0.0000 </r>
       <r>   13.1811    0.0000 </r>
      </set>
      <set comment="kpoint 6">
       <r>  -28.8143    1.0000 </r>
       <r>  -12.6141    1.0000 </r>
       <r>  -12.6141    1.0000 </r>
       <r>  -12.5484    1.0000 </r>
       <r>  -12.5346    1.0000 </r>
       <r>  -12.5346    1.0000 </r>
       <r>   -7.6189    1.0000 </r>
       <r>   -7.0353    1.0000 </r>
       <r>   -7.0353    1.0000 </r>
       <r>   -0.9896    1.0000 </r>
       <r>    4.0122    1.0000 </r>
       <r>    4.8810    1.0000 </r>
       <r>    4.8810    1.0000 </r>
       <r>    5.9528    1.0000 </r>
       <r>    5.9528    1.0000 </r>
       <r>    6.4995    1.0000 </r>
       <r>    8.9697    1.0000 </r>
       <r>    8.9697    1.0000 </r>
       <r>   10.4521    1.0000 </r>
       <r>   12.2310    0.0000 </r>
       <r>   12.2310    0.0000 </r>
       <r>   13.1482    0.0000 </r>
       <r>   13.1482    0.0000 </r>
       <r>   13.2599    0.0000 </r>
      </set>
      <set comment="kpoint 7">
       <r>  -28.8124    1.0000 </r>
       <r>  -12.6174    1.0000 </r>
       <r>  -12.6174    1.0000 </r>
       <r>  -12.5500    1.0000 </r>
       <r>  -12.5340    1.0000 </r>
       <r>  -12.5340    1.0000 </r>
       <r>   -7.6640    1.0000 </r>
       <r>   -7.0236    1.0000 </r>
       <r>   -7.0236    1.0000 </r>
       <r>   -0.8143    1.0000 </r>
       <r>    3.8497    1.0000 </r>
       <r>    4.8870    1.0000 </r>
       <r>    4.8870    1.0000 </r>
       <r>    5.8293    1.0000 </r>
       <r>    5.8293    1.0000 </r>
       <r>    6.3813    1.0000 </r>
       <r>    8.9978    1.0000 </r>
       <r>    8.9978    1.0000 </r>
       <r>   10.6380    1.0000 </r>
       <r>   12.3859    0.0000 </r>
       <r>   12.3859    0.0000 </r>
       <r>   13.0104    0.0000 </r>
       <r>   13.1256    0.0000 </r>
       <r>   13.1256    0.0000 </r>
      </set>
      <set comment="kpoint 8">
       <r>  -28.8275    1.0000 </r>
       <r>  -12.5926    1.0000 </r>
       <r>  -12.5871    1.0000 </r>
       <r>  -12.5402    1.0000 </r>
       <r>  -12.5390    1.0000 </r>
       <r>  -12.5390    1.0000 </r>
       <r>   -7.1634    1.0000 </r>
       <r>   -7.1315    1.0000 </r>
       <r>   -7.1315    1.0000 </r>
       <r>   -2.3681    1.0000 </r>
       <r>    5.1461    1.0000 </r>
       <r>    5.7312    1.0000 </r>
       <r>    5.7380    1.0000 </r>
       <r>    5.7380    1.0000 </r>
       <r>    6.0417    1.0000 </r>
       <r>    8.6059    1.0000 </r>
       <r>    9.1337    1.0000 </r>
       <r>    9.1337    1.0000 </r>
       <r>   10.4297    1.0000 </r>
       <r>   10.7114    1.0000 </r>
       <r>   11.2330    0.0000 </r>
       <r>   11.2330    0.0000 </r>
       <r>   12.3198    0.0000 </r>
       <r>   13.1845    0.0000 </r>
      </set>
      <set comment="kpoint 9">
       <r>  -28.8254    1.0000 </r>
       <r>  -12.5980    1.0000 </r>
       <r>  -12.5883    1.0000 </r>
       <r>  -12.5413    1.0000 </r>
       <r>  -12.5384    1.0000 </r>
       <r>  -12.5382    1.0000 </r>
       <r>   -7.2429    1.0000 </r>
       <r>   -7.1277    1.0000 </r>
       <r>   -7.1144    1.0000 </r>
       <r>   -2.1476    1.0000 </r>
       <r>    4.8208    1.0000 </r>
       <r>    5.4997    1.0000 </r>
       <r>    5.5605    1.0000 </r>
       <r>    5.9624    1.0000 </r>
       <r>    6.1911    1.0000 </r>
       <r>    8.0463    1.0000 </r>
       <r>    8.9557    1.0000 </r>
       <r>    8.9687    1.0000 </r>
       <r>   10.5827    1.0000 </r>
       <r>   10.8270    0.0000 </r>
       <r>   11.5208    0.0000 </r>
       <r>   11.7506    0.0000 </r>
       <r>   12.7570    0.0000 </r>
       <r>   13.1454    0.0000 </r>
      </set>
      <set comment="kpoint 10">
       <r>  -28.8221    1.0000 </r>
       <r>  -12.6044    1.0000 </r>
       <r>  -12.5928    1.0000 </r>
       <r>  -12.5429    1.0000 </r>
       <r>  -12.5375    1.0000 </r>
       <r>  -12.5370    1.0000 </r>
       <r>   -7.3647    1.0000 </r>
       <r>   -7.1122    1.0000 </r>
       <r>   -7.0877    1.0000 </r>
       <r>   -1.8036    1.0000 </r>
       <r>    4.5304    1.0000 </r>
       <r>    5.2262    1.0000 </r>
       <r>    5.3088    1.0000 </r>
       <r>    6.0558    1.0000 </r>
       <r>    6.3002    1.0000 </r>
       <r>    7.4438    1.0000 </r>
       <r>    8.8142    1.0000 </r>
       <r>    8.8544    1.0000 </r>
       <r>   10.4866    1.0000 </r>
       <r>   11.2455    0.0000 </r>
       <r>   11.8159    0.0000 </r>
       <r>   12.4521    0.0000 </r>
       <r>   13.1157    0.0000 </r>
       <r>   13.2197    0.0000 </r>
      </set>
      <set comment="kpoint 11">
       <r>  -28.8183    1.0000 </r>
       <r>  -12.6103    1.0000 </r>
       <r>  -12.5996    1.0000 </r>
       <r>  -12.5451    1.0000 </r>
       <r>  -12.5365    1.0000 </r>
       <r>  -12.5356    1.0000 </r>
       <r>   -7.4860    1.0000 </r>
       <r>   -7.0888    1.0000 </r>
       <r>   -7.0632    1.0000 </r>
       <r>   -1.4266    1.0000 </r>
       <r>    4.2777    1.0000 </r>
       <r>    4.9431    1.0000 </r>
       <r>    5.1724    1.0000 </r>
       <r>    6.0028    1.0000 </r>
       <r>    6.2832    1.0000 </r>
       <r>    6.9600    1.0000 </r>
       <r>    8.7508    1.0000 </r>
       <r>    8.8570    1.0000 </r>
       <r>   10.4359    1.0000 </r>
       <r>   11.7010    0.0000 </r>
       <r>   12.0880    0.0000 </r>
       <r>   12.9721    0.0000 </r>
       <r>   13.0986    0.0000 </r>
       <r>   13.2497    0.0000 </r>
      </set>
      <set comment="kpoint 12">
       <r>  -28.8148    1.0000 </r>
       <r>  -12.6144    1.0000 </r>
       <r>  -12.6069    1.0000 </r>
       <r>  -12.5474    1.0000 </r>
       <r>  -12.5355    1.0000 </r>
       <r>  -12.5344    1.0000 </r>
       <r>   -7.5812    1.0000 </r>
       <r>   -7.0627    1.0000 </r>
       <r>   -7.0467    1.0000 </r>
       <r>   -1.1060    1.0000 </r>
       <r>    4.0726    1.0000 </r>
       <r>    4.8098    1.0000 </r>
       <r>    5.0755    1.0000 </r>
       <r>    5.8841    1.0000 </r>
       <r>    6.1575    1.0000 </r>
       <r>    6.6274    1.0000 </r>
       <r>    8.7714    1.0000 </r>
       <r>    8.9099    1.0000 </r>
       <r>   10.4987    1.0000 </r>
       <r>   12.0756    0.0000 </r>
       <r>   12.3098    0.0000 </r>
       <r>   13.0793    0.0000 </r>
       <r>   13.0919    0.0000 </r>
       <r>   13.3288    0.0000 </r>
      </set>
      <set comment="kpoint 13">
       <r>  -28.8125    1.0000 </r>
       <r>  -12.6158    1.0000 </r>
       <r>  -12.6132    1.0000 </r>
       <r>  -12.5491    1.0000 </r>
       <r>  -12.5348    1.0000 </r>
       <r>  -12.5337    1.0000 </r>
       <r>   -7.6379    1.0000 </r>
       <r>   -7.0416    1.0000 </r>
       <r>   -7.0398    1.0000 </r>
       <r>   -0.9049    1.0000 </r>
       <r>    3.9465    1.0000 </r>
       <r>    4.8187    1.0000 </r>
       <r>    4.9761    1.0000 </r>
       <r>    5.8221    1.0000 </r>
       <r>    5.9901    1.0000 </r>
       <r>    6.4475    1.0000 </r>
       <r>    8.8178    1.0000 </r>
       <r>    8.9508    1.0000 </r>
       <r>   10.6491    1.0000 </r>
       <r>   12.2631    0.0000 </r>
       <r>   12.4392    0.0000 </r>
       <r>   13.0233    0.0000 </r>
       <r>   13.0878    0.0000 </r>
       <r>   13.2629    0.0000 </r>
      </set>
      <set comment="kpoint 14">
       <r>  -28.8119    1.0000 </r>
       <r>  -12.6170    1.0000 </r>
       <r>  -12.6142    1.0000 </r>
       <r>  -12.5495    1.0000 </r>
       <r>  -12.5344    1.0000 </r>
       <r>  -12.5337    1.0000 </r>
       <r>   -7.6520    1.0000 </r>
       <r>   -7.0488    1.0000 </r>
       <r>   -7.0253    1.0000 </r>
       <r>   -0.8508    1.0000 </r>
       <r>    3.9133    1.0000 </r>
       <r>    4.8554    1.0000 </r>
       <r>    4.9140    1.0000 </r>
       <r>    5.8625    1.0000 </r>
       <r>    5.8863    1.0000 </r>
       <r>    6.4064    1.0000 </r>
       <r>    8.8333    1.0000 </r>
       <r>    8.9547    1.0000 </r>
       <r>   10.7305    0.9840 </r>
       <r>   12.2860    0.0000 </r>
       <r>   12.4319    0.0000 </r>
       <r>   13.0209    0.0000 </r>
       <r>   13.0911    0.0000 </r>
       <r>   13.1931    0.0000 </r>
      </set>
      <set comment="kpoint 15">
       <r>  -28.8131    1.0000 </r>
       <r>  -12.6175    1.0000 </r>
       <r>  -12.6100    1.0000 </r>
       <r>  -12.5485    1.0000 </r>
       <r>  -12.5347    1.0000 </r>
       <r>  -12.5344    1.0000 </r>
       <r>   -7.6231    1.0000 </r>
       <r>   -7.0663    1.0000 </r>
       <r>   -7.0225    1.0000 </r>
       <r>   -0.9494    1.0000 </r>
       <r>    3.9806    1.0000 </r>
       <r>    4.7540    1.0000 </r>
       <r>    5.0363    1.0000 </r>
       <r>    5.8380    1.0000 </r>
       <r>    6.0473    1.0000 </r>
       <r>    6.4957    1.0000 </r>
       <r>    8.7874    1.0000 </r>
       <r>    8.9336    1.0000 </r>
       <r>   10.6278    1.0000 </r>
       <r>   12.2657    0.0000 </r>
       <r>   12.3358    0.0000 </r>
       <r>   13.0442    0.0000 </r>
       <r>   13.1100    0.0000 </r>
       <r>   13.3016    0.0000 </r>
      </set>
      <set comment="kpoint 16">
       <r>  -28.8159    1.0000 </r>
       <r>  -12.6146    1.0000 </r>
       <r>  -12.6040    1.0000 </r>
       <r>  -12.5464    1.0000 </r>
       <r>  -12.5355    1.0000 </r>
       <r>  -12.5354    1.0000 </r>
       <r>   -7.5530    1.0000 </r>
       <r>   -7.0898    1.0000 </r>
       <r>   -7.0321    1.0000 </r>
       <r>   -1.1925    1.0000 </r>
       <r>    4.1667    1.0000 </r>
       <r>    4.7187    1.0000 </r>
       <r>    5.1630    1.0000 </r>
       <r>    5.9156    1.0000 </r>
       <r>    6.2301    1.0000 </r>
       <r>    6.7227    1.0000 </r>
       <r>    8.6871    1.0000 </r>
       <r>    8.9251    1.0000 </r>
       <r>   10.5076    1.0000 </r>
       <r>   11.9695    0.0000 </r>
       <r>   12.2202    0.0000 </r>
       <r>   13.0458    0.0000 </r>
       <r>   13.1369    0.0000 </r>
       <r>   13.3087    0.0000 </r>
      </set>
      <set comment="kpoint 17">
       <r>  -28.8196    1.0000 </r>
       <r>  -12.6089    1.0000 </r>
       <r>  -12.5976    1.0000 </r>
       <r>  -12.5440    1.0000 </r>
       <r>  -12.5368    1.0000 </r>
       <r>  -12.5365    1.0000 </r>
       <r>   -7.4486    1.0000 </r>
       <r>   -7.1136    1.0000 </r>
       <r>   -7.0520    1.0000 </r>
       <r>   -1.5417    1.0000 </r>
       <r>    4.4700    1.0000 </r>
       <r>    4.7736    1.0000 </r>
       <r>    5.3250    1.0000 </r>
       <r>    6.0035    1.0000 </r>
       <r>    6.3499    1.0000 </r>
       <r>    7.1024    1.0000 </r>
       <r>    8.5907    1.0000 </r>
       <r>    8.9791    1.0000 </r>
       <r>   10.4767    1.0000 </r>
       <r>   11.6110    0.0000 </r>
       <r>   11.9202    0.0000 </r>
       <r>   12.8472    0.0000 </r>
       <r>   13.1637    0.0000 </r>
       <r>   13.2009    0.0000 </r>
      </set>
      <set comment="kpoint 18">
       <r>  -28.8233    1.0000 </r>
       <r>  -12.6018    1.0000 </r>
       <r>  -12.5923    1.0000 </r>
       <r>  -12.5420    1.0000 </r>
       <r>  -12.5380    1.0000 </r>
       <r>  -12.5376    1.0000 </r>
       <r>   -7.3273    1.0000 </r>
       <r>   -7.1312    1.0000 </r>
       <r>   -7.0777    1.0000 </r>
       <r>   -1.9208    1.0000 </r>
       <r>    4.8399    1.0000 </r>
       <r>    4.9233    1.0000 </r>
       <r>    5.5480    1.0000 </r>
       <r>    5.9874    1.0000 </r>
       <r>    6.3429    1.0000 </r>
       <r>    7.6262    1.0000 </r>
       <r>    8.6045    1.0000 </r>
       <r>    9.1153    1.0000 </r>
       <r>   10.5279    1.0000 </r>
       <r>   11.2702    0.0000 </r>
       <r>   11.4611    0.0000 </r>
       <r>   12.3150    0.0000 </r>
       <r>   13.0956    0.0000 </r>
       <r>   13.2062    0.0000 </r>
      </set>
      <set comment="kpoint 19">
       <r>  -28.8263    1.0000 </r>
       <r>  -12.5948    1.0000 </r>
       <r>  -12.5893    1.0000 </r>
       <r>  -12.5406    1.0000 </r>
       <r>  -12.5388    1.0000 </r>
       <r>  -12.5386    1.0000 </r>
       <r>   -7.2223    1.0000 </r>
       <r>   -7.1349    1.0000 </r>
       <r>   -7.1033    1.0000 </r>
       <r>   -2.2358    1.0000 </r>
       <r>    5.1558    1.0000 </r>
       <r>    5.2059    1.0000 </r>
       <r>    5.7465    1.0000 </r>
       <r>    5.8666    1.0000 </r>
       <r>    6.2058    1.0000 </r>
       <r>    8.1910    1.0000 </r>
       <r>    8.8606    1.0000 </r>
       <r>    9.2614    1.0000 </r>
       <r>   10.4864    1.0000 </r>
       <r>   11.0218    0.0000 </r>
       <r>   11.0424    0.0000 </r>
       <r>   11.6922    0.0000 </r>
       <r>   12.6129    0.0000 </r>
       <r>   13.2148    0.0000 </r>
      </set>
      <set comment="kpoint 20">
       <r>  -28.8241    1.0000 </r>
       <r>  -12.6025    1.0000 </r>
       <r>  -12.5854    1.0000 </r>
       <r>  -12.5425    1.0000 </r>
       <r>  -12.5375    1.0000 </r>
       <r>  -12.5375    1.0000 </r>
       <r>   -7.2468    1.0000 </r>
       <r>   -7.1389    1.0000 </r>
       <r>   -7.1389    1.0000 </r>
       <r>   -2.0242    1.0000 </r>
       <r>    4.4699    1.0000 </r>
       <r>    5.7420    1.0000 </r>
       <r>    5.7420    1.0000 </r>
       <r>    5.7801    1.0000 </r>
       <r>    6.0925    1.0000 </r>
       <r>    8.0326    1.0000 </r>
       <r>    8.7944    1.0000 </r>
       <r>    8.7944    1.0000 </r>
       <r>   10.3418    1.0000 </r>
       <r>   11.2852    0.0000 </r>
       <r>   11.7960    0.0000 </r>
       <r>   11.7960    0.0000 </r>
       <r>   12.9005    0.0000 </r>
       <r>   13.0620    0.0000 </r>
      </set>
      <set comment="kpoint 21">
       <r>  -28.8214    1.0000 </r>
       <r>  -12.6067    1.0000 </r>
       <r>  -12.5862    1.0000 </r>
       <r>  -12.5440    1.0000 </r>
       <r>  -12.5367    1.0000 </r>
       <r>  -12.5364    1.0000 </r>
       <r>   -7.3294    1.0000 </r>
       <r>   -7.1368    1.0000 </r>
       <r>   -7.1244    1.0000 </r>
       <r>   -1.7847    1.0000 </r>
       <r>    4.2107    1.0000 </r>
       <r>    5.5257    1.0000 </r>
       <r>    5.5810    1.0000 </r>
       <r>    5.9095    1.0000 </r>
       <r>    6.1705    1.0000 </r>
       <r>    7.7214    1.0000 </r>
       <r>    8.6133    1.0000 </r>
       <r>    8.7164    1.0000 </r>
       <r>   10.4537    1.0000 </r>
       <r>   11.3714    0.0000 </r>
       <r>   12.0501    0.0000 </r>
       <r>   12.3041    0.0000 </r>
       <r>   12.9955    0.0000 </r>
       <r>   13.1849    0.0000 </r>
      </set>
      <set comment="kpoint 22">
       <r>  -28.8180    1.0000 </r>
       <r>  -12.6096    1.0000 </r>
       <r>  -12.5907    1.0000 </r>
       <r>  -12.5455    1.0000 </r>
       <r>  -12.5361    1.0000 </r>
       <r>  -12.5350    1.0000 </r>
       <r>   -7.4347    1.0000 </r>
       <r>   -7.1220    1.0000 </r>
       <r>   -7.1024    1.0000 </r>
       <r>   -1.5045    1.0000 </r>
       <r>    4.0774    1.0000 </r>
       <r>    5.1926    1.0000 </r>
       <r>    5.4324    1.0000 </r>
       <r>    5.9146    1.0000 </r>
       <r>    6.2569    1.0000 </r>
       <r>    7.3113    1.0000 </r>
       <r>    8.4598    1.0000 </r>
       <r>    8.7451    1.0000 </r>
       <r>   10.5922    1.0000 </r>
       <r>   11.5991    0.0000 </r>
       <r>   12.2641    0.0000 </r>
       <r>   12.8020    0.0000 </r>
       <r>   12.9675    0.0000 </r>
       <r>   13.2919    0.0000 </r>
      </set>
      <set comment="kpoint 23">
       <r>  -28.8146    1.0000 </r>
       <r>  -12.6106    1.0000 </r>
       <r>  -12.5976    1.0000 </r>
       <r>  -12.5469    1.0000 </r>
       <r>  -12.5358    1.0000 </r>
       <r>  -12.5337    1.0000 </r>
       <r>   -7.5244    1.0000 </r>
       <r>   -7.0980    1.0000 </r>
       <r>   -7.0911    1.0000 </r>
       <r>   -1.2575    1.0000 </r>
       <r>    4.0703    1.0000 </r>
       <r>    4.9383    1.0000 </r>
       <r>    5.2826    1.0000 </r>
       <r>    5.8619    1.0000 </r>
       <r>    6.2501    1.0000 </r>
       <r>    6.9238    1.0000 </r>
       <r>    8.4209    1.0000 </r>
       <r>    8.8178    1.0000 </r>
       <r>   10.6091    1.0000 </r>
       <r>   11.9893    0.0000 </r>
       <r>   12.4358    0.0000 </r>
       <r>   12.9831    0.0000 </r>
       <r>   12.9948    0.0000 </r>
       <r>   13.3553    0.0000 </r>
      </set>
      <set comment="kpoint 24">
       <r>  -28.8122    1.0000 </r>
       <r>  -12.6096    1.0000 </r>
       <r>  -12.6054    1.0000 </r>
       <r>  -12.5478    1.0000 </r>
       <r>  -12.5357    1.0000 </r>
       <r>  -12.5330    1.0000 </r>
       <r>   -7.5825    1.0000 </r>
       <r>   -7.0944    1.0000 </r>
       <r>   -7.0702    1.0000 </r>
       <r>   -1.0881    1.0000 </r>
       <r>    4.1307    1.0000 </r>
       <r>    4.8296    1.0000 </r>
       <r>    5.0942    1.0000 </r>
       <r>    5.8697    1.0000 </r>
       <r>    6.1572    1.0000 </r>
       <r>    6.6502    1.0000 </r>
       <r>    8.4453    1.0000 </r>
       <r>    8.8617    1.0000 </r>
       <r>   10.6873    1.0000 </r>
       <r>   12.1681    0.0000 </r>
       <r>   12.5463    0.0000 </r>
       <r>   13.0020    0.0000 </r>
       <r>   13.0145    0.0000 </r>
       <r>   13.3688    0.0000 </r>
      </set>
      <set comment="kpoint 25">
       <r>  -28.8111    1.0000 </r>
       <r>  -12.6121    1.0000 </r>
       <r>  -12.6069    1.0000 </r>
       <r>  -12.5480    1.0000 </r>
       <r>  -12.5358    1.0000 </r>
       <r>  -12.5329    1.0000 </r>
       <r>   -7.6041    1.0000 </r>
       <r>   -7.1104    1.0000 </r>
       <r>   -7.0447    1.0000 </r>
       <r>   -1.0064    1.0000 </r>
       <r>    4.1605    1.0000 </r>
       <r>    4.8803    1.0000 </r>
       <r>    4.8876    1.0000 </r>
       <r>    5.9749    1.0000 </r>
       <r>    6.0219    1.0000 </r>
       <r>    6.5460    1.0000 </r>
       <r>    8.4569    1.0000 </r>
       <r>    8.8552    1.0000 </r>
       <r>   10.8263    0.0000 </r>
       <r>   12.0745    0.0000 </r>
       <r>   12.5545    0.0000 </r>
       <r>   13.0354    0.0000 </r>
       <r>   13.0814    0.0000 </r>
       <r>   13.3037    0.0000 </r>
      </set>
      <set comment="kpoint 26">
       <r>  -28.8116    1.0000 </r>
       <r>  -12.6164    1.0000 </r>
       <r>  -12.6030    1.0000 </r>
       <r>  -12.5472    1.0000 </r>
       <r>  -12.5360    1.0000 </r>
       <r>  -12.5336    1.0000 </r>
       <r>   -7.5899    1.0000 </r>
       <r>   -7.1336    1.0000 </r>
       <r>   -7.0273    1.0000 </r>
       <r>   -1.0146    1.0000 </r>
       <r>    4.1357    1.0000 </r>
       <r>    4.7154    1.0000 </r>
       <r>    5.0391    1.0000 </r>
       <r>    5.9112    1.0000 </r>
       <r>    6.1451    1.0000 </r>
       <r>    6.6175    1.0000 </r>
       <r>    8.3960    1.0000 </r>
       <r>    8.8225    1.0000 </r>
       <r>   10.8736    0.0000 </r>
       <r>   12.1237    0.0000 </r>
       <r>   12.4138    0.0000 </r>
       <r>   13.0544    0.0000 </r>
       <r>   13.0978    0.0000 </r>
       <r>   13.3230    0.0000 </r>
      </set>
      <set comment="kpoint 27">
       <r>  -28.8137    1.0000 </r>
       <r>  -12.6174    1.0000 </r>
       <r>  -12.5987    1.0000 </r>
       <r>  -12.5457    1.0000 </r>
       <r>  -12.5362    1.0000 </r>
       <r>  -12.5347    1.0000 </r>
       <r>   -7.5436    1.0000 </r>
       <r>   -7.1558    1.0000 </r>
       <r>   -7.0221    1.0000 </r>
       <r>   -1.1261    1.0000 </r>
       <r>    4.1300    1.0000 </r>
       <r>    4.6180    1.0000 </r>
       <r>    5.2472    1.0000 </r>
       <r>    5.8640    1.0000 </r>
       <r>    6.3228    1.0000 </r>
       <r>    6.8374    1.0000 </r>
       <r>    8.2508    1.0000 </r>
       <r>    8.8114    1.0000 </r>
       <r>   10.8513    0.0000 </r>
       <r>   12.1330    0.0000 </r>
       <r>   12.2238    0.0000 </r>
       <r>   13.0465    0.0000 </r>
       <r>   13.0807    0.0000 </r>
       <r>   13.3814    0.0000 </r>
      </set>
      <set comment="kpoint 28">
       <r>  -28.8169    1.0000 </r>
       <r>  -12.6147    1.0000 </r>
       <r>  -12.5949    1.0000 </r>
       <r>  -12.5443    1.0000 </r>
       <r>  -12.5365    1.0000 </r>
       <r>  -12.5359    1.0000 </r>
       <r>   -7.4730    1.0000 </r>
       <r>   -7.1675    1.0000 </r>
       <r>   -7.0305    1.0000 </r>
       <r>   -1.3460    1.0000 </r>
       <r>    4.2358    1.0000 </r>
       <r>    4.6178    1.0000 </r>
       <r>    5.4743    1.0000 </r>
       <r>    5.8552    1.0000 </r>
       <r>    6.4395    1.0000 </r>
       <r>    7.1711    1.0000 </r>
       <r>    8.0851    1.0000 </r>
       <r>    8.8693    1.0000 </r>
       <r>   10.8580    0.0000 </r>
       <r>   11.7833    0.0000 </r>
       <r>   12.0808    0.0000 </r>
       <r>   12.9685    0.0000 </r>
       <r>   13.1113    0.0000 </r>
       <r>   13.3313    0.0000 </r>
      </set>
      <set comment="kpoint 29">
       <r>  -28.8203    1.0000 </r>
       <r>  -12.6092    1.0000 </r>
       <r>  -12.5925    1.0000 </r>
       <r>  -12.5431    1.0000 </r>
       <r>  -12.5371    1.0000 </r>
       <r>  -12.5369    1.0000 </r>
       <r>   -7.3941    1.0000 </r>
       <r>   -7.1597    1.0000 </r>
       <r>   -7.0505    1.0000 </r>
       <r>   -1.6372    1.0000 </r>
       <r>    4.4863    1.0000 </r>
       <r>    4.7220    1.0000 </r>
       <r>    5.6845    1.0000 </r>
       <r>    5.8193    1.0000 </r>
       <r>    6.4459    1.0000 </r>
       <r>    7.4923    1.0000 </r>
       <r>    8.1209    1.0000 </r>
       <r>    8.9992    1.0000 </r>
       <r>   10.8281    0.0000 </r>
       <r>   11.4593    0.0000 </r>
       <r>   11.7196    0.0000 </r>
       <r>   12.7463    0.0000 </r>
       <r>   13.1461    0.0000 </r>
       <r>   13.1847    0.0000 </r>
      </set>
      <set comment="kpoint 30">
       <r>  -28.8194    1.0000 </r>
       <r>  -12.6074    1.0000 </r>
       <r>  -12.5829    1.0000 </r>
       <r>  -12.5458    1.0000 </r>
       <r>  -12.5353    1.0000 </r>
       <r>  -12.5353    1.0000 </r>
       <r>   -7.3418    1.0000 </r>
       <r>   -7.1497    1.0000 </r>
       <r>   -7.1497    1.0000 </r>
       <r>   -1.6817    1.0000 </r>
       <r>    4.0197    1.0000 </r>
       <r>    5.6895    1.0000 </r>
       <r>    5.6895    1.0000 </r>
       <r>    5.8516    1.0000 </r>
       <r>    5.9261    1.0000 </r>
       <r>    7.7252    1.0000 </r>
       <r>    8.6577    1.0000 </r>
       <r>    8.6577    1.0000 </r>
       <r>   10.1923    1.0000 </r>
       <r>   11.8077    0.0000 </r>
       <r>   12.2568    0.0000 </r>
       <r>   12.2568    0.0000 </r>
       <r>   12.8814    0.0000 </r>
       <r>   13.2649    0.0000 </r>
      </set>
      <set comment="kpoint 31">
       <r>  -28.8167    1.0000 </r>
       <r>  -12.6062    1.0000 </r>
       <r>  -12.5837    1.0000 </r>
       <r>  -12.5475    1.0000 </r>
       <r>  -12.5344    1.0000 </r>
       <r>  -12.5339    1.0000 </r>
       <r>   -7.4060    1.0000 </r>
       <r>   -7.1483    1.0000 </r>
       <r>   -7.1450    1.0000 </r>
       <r>   -1.5432    1.0000 </r>
       <r>    3.9981    1.0000 </r>
       <r>    5.4192    1.0000 </r>
       <r>    5.5840    1.0000 </r>
       <r>    5.8911    1.0000 </r>
       <r>    6.0024    1.0000 </r>
       <r>    7.5413    1.0000 </r>
       <r>    8.5205    1.0000 </r>
       <r>    8.7052    1.0000 </r>
       <r>   10.3603    1.0000 </r>
       <r>   11.8613    0.0000 </r>
       <r>   12.4181    0.0000 </r>
       <r>   12.6143    0.0000 </r>
       <r>   12.8156    0.0000 </r>
       <r>   13.3366    0.0000 </r>
      </set>
      <set comment="kpoint 32">
       <r>  -28.8138    1.0000 </r>
       <r>  -12.6035    1.0000 </r>
       <r>  -12.5884    1.0000 </r>
       <r>  -12.5484    1.0000 </r>
       <r>  -12.5342    1.0000 </r>
       <r>  -12.5327    1.0000 </r>
       <r>   -7.4742    1.0000 </r>
       <r>   -7.1425    1.0000 </r>
       <r>   -7.1330    1.0000 </r>
       <r>   -1.4135    1.0000 </r>
       <r>    4.1386    1.0000 </r>
       <r>    5.1164    1.0000 </r>
       <r>    5.4215    1.0000 </r>
       <r>    5.9018    1.0000 </r>
       <r>    6.1127    1.0000 </r>
       <r>    7.2545    1.0000 </r>
       <r>    8.3162    1.0000 </r>
       <r>    8.7899    1.0000 </r>
       <r>   10.5670    1.0000 </r>
       <r>   12.0198    0.0000 </r>
       <r>   12.5445    0.0000 </r>
       <r>   12.8382    0.0000 </r>
       <r>   12.8956    0.0000 </r>
       <r>   13.3797    0.0000 </r>
      </set>
      <set comment="kpoint 33">
       <r>  -28.8114    1.0000 </r>
       <r>  -12.6001    1.0000 </r>
       <r>  -12.5956    1.0000 </r>
       <r>  -12.5484    1.0000 </r>
       <r>  -12.5350    1.0000 </r>
       <r>  -12.5319    1.0000 </r>
       <r>   -7.5194    1.0000 </r>
       <r>   -7.1575    1.0000 </r>
       <r>   -7.1073    1.0000 </r>
       <r>   -1.3107    1.0000 </r>
       <r>    4.3662    1.0000 </r>
       <r>    4.9293    1.0000 </r>
       <r>    5.2063    1.0000 </r>
       <r>    5.9506    1.0000 </r>
       <r>    6.1529    1.0000 </r>
       <r>    6.9514    1.0000 </r>
       <r>    8.1892    1.0000 </r>
       <r>    8.8244    1.0000 </r>
       <r>   10.6664    1.0000 </r>
       <r>   12.1582    0.0000 </r>
       <r>   12.6389    0.0000 </r>
       <r>   12.9239    0.0000 </r>
       <r>   12.9606    0.0000 </r>
       <r>   13.3932    0.0000 </r>
      </set>
      <set comment="kpoint 34">
       <r>  -28.8101    1.0000 </r>
       <r>  -12.6038    1.0000 </r>
       <r>  -12.5968    1.0000 </r>
       <r>  -12.5473    1.0000 </r>
       <r>  -12.5364    1.0000 </r>
       <r>  -12.5318    1.0000 </r>
       <r>   -7.5349    1.0000 </r>
       <r>   -7.1876    1.0000 </r>
       <r>   -7.0769    1.0000 </r>
       <r>   -1.2304    1.0000 </r>
       <r>    4.5271    1.0000 </r>
       <r>    4.8845    1.0000 </r>
       <r>    4.9711    1.0000 </r>
       <r>    6.0624    1.0000 </r>
       <r>    6.1043    1.0000 </r>
       <r>    6.7770    1.0000 </r>
       <r>    8.1051    1.0000 </r>
       <r>    8.7884    1.0000 </r>
       <r>   10.8103    0.0000 </r>
       <r>   12.0215    0.0000 </r>
       <r>   12.6782    0.0000 </r>
       <r>   12.9925    0.0000 </r>
       <r>   13.0432    0.0000 </r>
       <r>   13.3615    0.0000 </r>
      </set>
      <set comment="kpoint 35">
       <r>  -28.8102    1.0000 </r>
       <r>  -12.6111    1.0000 </r>
       <r>  -12.5944    1.0000 </r>
       <r>  -12.5453    1.0000 </r>
       <r>  -12.5378    1.0000 </r>
       <r>  -12.5324    1.0000 </r>
       <r>   -7.5258    1.0000 </r>
       <r>   -7.2203    1.0000 </r>
       <r>   -7.0485    1.0000 </r>
       <r>   -1.1699    1.0000 </r>
       <r>    4.4881    1.0000 </r>
       <r>    4.7627    1.0000 </r>
       <r>    4.9653    1.0000 </r>
       <r>    6.0080    1.0000 </r>
       <r>    6.2151    1.0000 </r>
       <r>    6.8249    1.0000 </r>
       <r>    8.0039    1.0000 </r>
       <r>    8.7238    1.0000 </r>
       <r>   11.0018    0.0000 </r>
       <r>   11.9024    0.0000 </r>
       <r>   12.6057    0.0000 </r>
       <r>   13.0154    0.0000 </r>
       <r>   13.1121    0.0000 </r>
       <r>   13.3330    0.0000 </r>
      </set>
      <set comment="kpoint 36">
       <r>  -28.8116    1.0000 </r>
       <r>  -12.6160    1.0000 </r>
       <r>  -12.5933    1.0000 </r>
       <r>  -12.5438    1.0000 </r>
       <r>  -12.5384    1.0000 </r>
       <r>  -12.5335    1.0000 </r>
       <r>   -7.5055    1.0000 </r>
       <r>   -7.2358    1.0000 </r>
       <r>   -7.0286    1.0000 </r>
       <r>   -1.1485    1.0000 </r>
       <r>    4.3146    1.0000 </r>
       <r>    4.6191    1.0000 </r>
       <r>    5.1252    1.0000 </r>
       <r>    5.9325    1.0000 </r>
       <r>    6.3621    1.0000 </r>
       <r>    7.0361    1.0000 </r>
       <r>    7.8569    1.0000 </r>
       <r>    8.6933    1.0000 </r>
       <r>   11.1074    0.0000 </r>
       <r>   11.9670    0.0000 </r>
       <r>   12.3838    0.0000 </r>
       <r>   13.0365    0.0000 </r>
       <r>   13.1439    0.0000 </r>
       <r>   13.3447    0.0000 </r>
      </set>
      <set comment="kpoint 37">
       <r>  -28.8140    1.0000 </r>
       <r>  -12.6173    1.0000 </r>
       <r>  -12.5935    1.0000 </r>
       <r>  -12.5439    1.0000 </r>
       <r>  -12.5374    1.0000 </r>
       <r>  -12.5348    1.0000 </r>
       <r>   -7.4882    1.0000 </r>
       <r>   -7.2166    1.0000 </r>
       <r>   -7.0220    1.0000 </r>
       <r>   -1.2022    1.0000 </r>
       <r>    4.1874    1.0000 </r>
       <r>    4.5662    1.0000 </r>
       <r>    5.3289    1.0000 </r>
       <r>    5.8788    1.0000 </r>
       <r>    6.4475    1.0000 </r>
       <r>    7.2328    1.0000 </r>
       <r>    7.7833    1.0000 </r>
       <r>    8.7449    1.0000 </r>
       <r>   11.0728    0.0000 </r>
       <r>   12.0572    0.0000 </r>
       <r>   12.0759    0.0000 </r>
       <r>   13.0694    0.0000 </r>
       <r>   13.0919    0.0000 </r>
       <r>   13.4089    0.0000 </r>
      </set>
      <set comment="kpoint 38">
       <r>  -28.8146    1.0000 </r>
       <r>  -12.6008    1.0000 </r>
       <r>  -12.5803    1.0000 </r>
       <r>  -12.5495    1.0000 </r>
       <r>  -12.5327    1.0000 </r>
       <r>  -12.5327    1.0000 </r>
       <r>   -7.4227    1.0000 </r>
       <r>   -7.1618    1.0000 </r>
       <r>   -7.1618    1.0000 </r>
       <r>   -1.5557    1.0000 </r>
       <r>    4.0956    1.0000 </r>
       <r>    5.5699    1.0000 </r>
       <r>    5.5699    1.0000 </r>
       <r>    5.6752    1.0000 </r>
       <r>    5.9310    1.0000 </r>
       <r>    7.4862    1.0000 </r>
       <r>    8.7746    1.0000 </r>
       <r>    8.7746    1.0000 </r>
       <r>   10.1899    1.0000 </r>
       <r>   12.1423    0.0000 </r>
       <r>   12.5349    0.0000 </r>
       <r>   12.5349    0.0000 </r>
       <r>   12.6822    0.0000 </r>
       <r>   13.3807    0.0000 </r>
      </set>
      <set comment="kpoint 39">
       <r>  -28.8124    1.0000 </r>
       <r>  -12.5946    1.0000 </r>
       <r>  -12.5813    1.0000 </r>
       <r>  -12.5507    1.0000 </r>
       <r>  -12.5319    1.0000 </r>
       <r>  -12.5315    1.0000 </r>
       <r>   -7.4607    1.0000 </r>
       <r>   -7.1686    1.0000 </r>
       <r>   -7.1596    1.0000 </r>
       <r>   -1.5503    1.0000 </r>
       <r>    4.3508    1.0000 </r>
       <r>    5.2815    1.0000 </r>
       <r>    5.4641    1.0000 </r>
       <r>    5.7975    1.0000 </r>
       <r>    5.9637    1.0000 </r>
       <r>    7.2963    1.0000 </r>
       <r>    8.6805    1.0000 </r>
       <r>    8.8819    1.0000 </r>
       <r>   10.3737    1.0000 </r>
       <r>   12.2014    0.0000 </r>
       <r>   12.6103    0.0000 </r>
       <r>   12.6678    0.0000 </r>
       <r>   12.7512    0.0000 </r>
       <r>   13.4108    0.0000 </r>
      </set>
      <set comment="kpoint 40">
       <r>  -28.8105    1.0000 </r>
       <r>  -12.5892    1.0000 </r>
       <r>  -12.5863    1.0000 </r>
       <r>  -12.5508    1.0000 </r>
       <r>  -12.5325    1.0000 </r>
       <r>  -12.5307    1.0000 </r>
       <r>   -7.4841    1.0000 </r>
       <r>   -7.1934    1.0000 </r>
       <r>   -7.1425    1.0000 </r>
       <r>   -1.5219    1.0000 </r>
       <r>    4.6660    1.0000 </r>
       <r>    5.0693    1.0000 </r>
       <r>    5.2933    1.0000 </r>
       <r>    5.9505    1.0000 </r>
       <r>    6.0156    1.0000 </r>
       <r>    7.0390    1.0000 </r>
       <r>    8.3969    1.0000 </r>
       <r>    8.9123    1.0000 </r>
       <r>   10.5602    1.0000 </r>
       <r>   12.2570    0.0000 </r>
       <r>   12.6719    0.0000 </r>
       <r>   12.7977    0.0000 </r>
       <r>   12.8843    0.0000 </r>
       <r>   13.3877    0.0000 </r>
      </set>
      <set comment="kpoint 41">
       <r>  -28.8092    1.0000 </r>
       <r>  -12.5941    1.0000 </r>
       <r>  -12.5860    1.0000 </r>
       <r>  -12.5492    1.0000 </r>
       <r>  -12.5345    1.0000 </r>
       <r>  -12.5306    1.0000 </r>
       <r>   -7.4788    1.0000 </r>
       <r>   -7.2420    1.0000 </r>
       <r>   -7.1142    1.0000 </r>
       <r>   -1.4599    1.0000 </r>
       <r>    4.7964    1.0000 </r>
       <r>    5.0844    1.0000 </r>
       <r>    5.0927    1.0000 </r>
       <r>    6.0491    1.0000 </r>
       <r>    6.1094    1.0000 </r>
       <r>    6.8311    1.0000 </r>
       <r>    8.1030    1.0000 </r>
       <r>    8.8369    1.0000 </r>
       <r>   10.6918    1.0000 </r>
       <r>   12.1444    0.0000 </r>
       <r>   12.7280    0.0000 </r>
       <r>   12.9453    0.0000 </r>
       <r>   12.9545    0.0000 </r>
       <r>   13.3613    0.0000 </r>
      </set>
      <set comment="kpoint 42">
       <r>  -28.8090    1.0000 </r>
       <r>  -12.6029    1.0000 </r>
       <r>  -12.5859    1.0000 </r>
       <r>  -12.5461    1.0000 </r>
       <r>  -12.5372    1.0000 </r>
       <r>  -12.5312    1.0000 </r>
       <r>   -7.4533    1.0000 </r>
       <r>   -7.2973    1.0000 </r>
       <r>   -7.0808    1.0000 </r>
       <r>   -1.3611    1.0000 </r>
       <r>    4.7962    1.0000 </r>
       <r>    4.8783    1.0000 </r>
       <r>    5.0723    1.0000 </r>
       <r>    6.0396    1.0000 </r>
       <r>    6.2270    1.0000 </r>
       <r>    6.8720    1.0000 </r>
       <r>    7.8538    1.0000 </r>
       <r>    8.7230    1.0000 </r>
       <r>   10.8896    0.0000 </r>
       <r>   11.9586    0.0000 </r>
       <r>   12.7349    0.0000 </r>
       <r>   12.9997    0.0000 </r>
       <r>   13.0153    0.0000 </r>
       <r>   13.3648    0.0000 </r>
      </set>
      <set comment="kpoint 43">
       <r>  -28.8099    1.0000 </r>
       <r>  -12.6108    1.0000 </r>
       <r>  -12.5887    1.0000 </r>
       <r>  -12.5428    1.0000 </r>
       <r>  -12.5399    1.0000 </r>
       <r>  -12.5322    1.0000 </r>
       <r>   -7.4580    1.0000 </r>
       <r>   -7.3010    1.0000 </r>
       <r>   -7.0499    1.0000 </r>
       <r>   -1.2433    1.0000 </r>
       <r>    4.6387    1.0000 </r>
       <r>    4.7129    1.0000 </r>
       <r>    5.0058    1.0000 </r>
       <r>    5.9919    1.0000 </r>
       <r>    6.3258    1.0000 </r>
       <r>    7.0666    1.0000 </r>
       <r>    7.7040    1.0000 </r>
       <r>    8.6576    1.0000 </r>
       <r>   11.1085    0.0000 </r>
       <r>   11.8536    0.0000 </r>
       <r>   12.6202    0.0000 </r>
       <r>   13.0130    0.0000 </r>
       <r>   13.0821    0.0000 </r>
       <r>   13.3381    0.0000 </r>
      </set>
      <set comment="kpoint 44">
       <r>  -28.8109    1.0000 </r>
       <r>  -12.5859    1.0000 </r>
       <r>  -12.5782    1.0000 </r>
       <r>  -12.5525    1.0000 </r>
       <r>  -12.5303    1.0000 </r>
       <r>  -12.5303    1.0000 </r>
       <r>   -7.4789    1.0000 </r>
       <r>   -7.1722    1.0000 </r>
       <r>   -7.1722    1.0000 </r>
       <r>   -1.6460    1.0000 </r>
       <r>    4.6906    1.0000 </r>
       <r>    5.4375    1.0000 </r>
       <r>    5.4375    1.0000 </r>
       <r>    5.4633    1.0000 </r>
       <r>    6.0000    1.0000 </r>
       <r>    7.1232    1.0000 </r>
       <r>    9.0369    1.0000 </r>
       <r>    9.0369    1.0000 </r>
       <r>   10.2860    1.0000 </r>
       <r>   12.3877    0.0000 </r>
       <r>   12.5129    0.0000 </r>
       <r>   12.6824    0.0000 </r>
       <r>   12.6824    0.0000 </r>
       <r>   13.3743    0.0000 </r>
      </set>
      <set comment="kpoint 45">
       <r>  -28.8095    1.0000 </r>
       <r>  -12.5796    1.0000 </r>
       <r>  -12.5796    1.0000 </r>
       <r>  -12.5531    1.0000 </r>
       <r>  -12.5301    1.0000 </r>
       <r>  -12.5296    1.0000 </r>
       <r>   -7.4920    1.0000 </r>
       <r>   -7.1877    1.0000 </r>
       <r>   -7.1680    1.0000 </r>
       <r>   -1.6814    1.0000 </r>
       <r>    5.0122    1.0000 </r>
       <r>    5.2548    1.0000 </r>
       <r>    5.3475    1.0000 </r>
       <r>    5.6403    1.0000 </r>
       <r>    6.0364    1.0000 </r>
       <r>    6.8557    1.0000 </r>
       <r>    8.9296    1.0000 </r>
       <r>    9.1047    1.0000 </r>
       <r>   10.4254    1.0000 </r>
       <r>   12.4337    0.0000 </r>
       <r>   12.5425    0.0000 </r>
       <r>   12.7417    0.0000 </r>
       <r>   12.7945    0.0000 </r>
       <r>   13.2917    0.0000 </r>
      </set>
      <set comment="kpoint 46">
       <r>  -28.8087    1.0000 </r>
       <r>  -12.5851    1.0000 </r>
       <r>  -12.5772    1.0000 </r>
       <r>  -12.5520    1.0000 </r>
       <r>  -12.5316    1.0000 </r>
       <r>  -12.5295    1.0000 </r>
       <r>   -7.4783    1.0000 </r>
       <r>   -7.2323    1.0000 </r>
       <r>   -7.1481    1.0000 </r>
       <r>   -1.6436    1.0000 </r>
       <r>    4.9214    1.0000 </r>
       <r>    5.2036    1.0000 </r>
       <r>    5.4803    1.0000 </r>
       <r>    5.8600    1.0000 </r>
       <r>    6.1009    1.0000 </r>
       <r>    6.6035    1.0000 </r>
       <r>    8.5389    1.0000 </r>
       <r>    9.0104    1.0000 </r>
       <r>   10.5497    1.0000 </r>
       <r>   12.3491    0.0000 </r>
       <r>   12.6834    0.0000 </r>
       <r>   12.8560    0.0000 </r>
       <r>   12.8588    0.0000 </r>
       <r>   13.3127    0.0000 </r>
      </set>
      <set comment="kpoint 47">
       <r>  -28.8085    1.0000 </r>
       <r>  -12.5935    1.0000 </r>
       <r>  -12.5796    1.0000 </r>
       <r>  -12.5492    1.0000 </r>
       <r>  -12.5343    1.0000 </r>
       <r>  -12.5301    1.0000 </r>
       <r>   -7.4429    1.0000 </r>
       <r>   -7.2939    1.0000 </r>
       <r>   -7.1167    1.0000 </r>
       <r>   -1.5315    1.0000 </r>
       <r>    4.8379    1.0000 </r>
       <r>    5.0357    1.0000 </r>
       <r>    5.4342    1.0000 </r>
       <r>    6.0047    1.0000 </r>
       <r>    6.1779    1.0000 </r>
       <r>    6.6456    1.0000 </r>
       <r>    8.1067    1.0000 </r>
       <r>    8.8409    1.0000 </r>
       <r>   10.6944    1.0000 </r>
       <r>   12.1559    0.0000 </r>
       <r>   12.7467    0.0000 </r>
       <r>   12.9070    0.0000 </r>
       <r>   12.9981    0.0000 </r>
       <r>   13.3404    0.0000 </r>
      </set>
      <set comment="kpoint 48">
       <r>  -28.8088    1.0000 </r>
       <r>  -12.5769    1.0000 </r>
       <r>  -12.5736    1.0000 </r>
       <r>  -12.5543    1.0000 </r>
       <r>  -12.5289    1.0000 </r>
       <r>  -12.5289    1.0000 </r>
       <r>   -7.5075    1.0000 </r>
       <r>   -7.1783    1.0000 </r>
       <r>   -7.1783    1.0000 </r>
       <r>   -1.7617    1.0000 </r>
       <r>    5.2881    1.0000 </r>
       <r>    5.3548    1.0000 </r>
       <r>    5.3548    1.0000 </r>
       <r>    5.5539    1.0000 </r>
       <r>    6.0403    1.0000 </r>
       <r>    6.5693    1.0000 </r>
       <r>    9.2538    1.0000 </r>
       <r>    9.2538    1.0000 </r>
       <r>   10.3876    1.0000 </r>
       <r>   12.4158    0.0000 </r>
       <r>   12.5755    0.0000 </r>
       <r>   12.7506    0.0000 </r>
       <r>   12.7506    0.0000 </r>
       <r>   13.0611    0.0000 </r>
      </set>
      <set comment="kpoint 49">
       <r>  -28.8085    1.0000 </r>
       <r>  -12.5790    1.0000 </r>
       <r>  -12.5727    1.0000 </r>
       <r>  -12.5539    1.0000 </r>
       <r>  -12.5294    1.0000 </r>
       <r>  -12.5289    1.0000 </r>
       <r>   -7.5020    1.0000 </r>
       <r>   -7.1950    1.0000 </r>
       <r>   -7.1711    1.0000 </r>
       <r>   -1.7491    1.0000 </r>
       <r>    5.0861    1.0000 </r>
       <r>    5.3028    1.0000 </r>
       <r>    5.5808    1.0000 </r>
       <r>    5.7504    1.0000 </r>
       <r>    6.0643    1.0000 </r>
       <r>    6.3961    1.0000 </r>
       <r>    9.0513    1.0000 </r>
       <r>    9.2061    1.0000 </r>
       <r>   10.4483    1.0000 </r>
       <r>   12.5111    0.0000 </r>
       <r>   12.5332    0.0000 </r>
       <r>   12.7791    0.0000 </r>
       <r>   12.7943    0.0000 </r>
       <r>   13.1599    0.0000 </r>
      </set>
      <set comment="kpoint 50">
       <r>  -28.8230    1.0000 </r>
       <r>  -12.6038    1.0000 </r>
       <r>  -12.5887    1.0000 </r>
       <r>  -12.5425    1.0000 </r>
       <r>  -12.5376    1.0000 </r>
       <r>  -12.5374    1.0000 </r>
       <r>   -7.3087    1.0000 </r>
       <r>   -7.1443    1.0000 </r>
       <r>   -7.0934    1.0000 </r>
       <r>   -1.9114    1.0000 </r>
       <r>    4.5039    1.0000 </r>
       <r>    5.2486    1.0000 </r>
       <r>    5.7437    1.0000 </r>
       <r>    5.8399    1.0000 </r>
       <r>    6.2972    1.0000 </r>
       <r>    7.7851    1.0000 </r>
       <r>    8.4920    1.0000 </r>
       <r>    8.9834    1.0000 </r>
       <r>   10.7098    1.0000 </r>
       <r>   11.0309    0.0000 </r>
       <r>   11.6946    0.0000 </r>
       <r>   12.2727    0.0000 </r>
       <r>   13.0567    0.0000 </r>
       <r>   13.1087    0.0000 </r>
      </set>
      <set comment="kpoint 51">
       <r>  -28.8197    1.0000 </r>
       <r>  -12.6094    1.0000 </r>
       <r>  -12.5919    1.0000 </r>
       <r>  -12.5440    1.0000 </r>
       <r>  -12.5368    1.0000 </r>
       <r>  -12.5362    1.0000 </r>
       <r>   -7.4074    1.0000 </r>
       <r>   -7.1452    1.0000 </r>
       <r>   -7.0669    1.0000 </r>
       <r>   -1.5992    1.0000 </r>
       <r>    4.2654    1.0000 </r>
       <r>    4.9851    1.0000 </r>
       <r>    5.5536    1.0000 </r>
       <r>    5.8999    1.0000 </r>
       <r>    6.3658    1.0000 </r>
       <r>    7.3913    1.0000 </r>
       <r>    8.3144    1.0000 </r>
       <r>    8.9025    1.0000 </r>
       <r>   10.7136    1.0000 </r>
       <r>   11.4128    0.0000 </r>
       <r>   12.0036    0.0000 </r>
       <r>   12.7390    0.0000 </r>
       <r>   13.0642    0.0000 </r>
       <r>   13.2513    0.0000 </r>
      </set>
      <set comment="kpoint 52">
       <r>  -28.8161    1.0000 </r>
       <r>  -12.6134    1.0000 </r>
       <r>  -12.5972    1.0000 </r>
       <r>  -12.5456    1.0000 </r>
       <r>  -12.5362    1.0000 </r>
       <r>  -12.5349    1.0000 </r>
       <r>   -7.5046    1.0000 </r>
       <r>   -7.1308    1.0000 </r>
       <r>   -7.0473    1.0000 </r>
       <r>   -1.2982    1.0000 </r>
       <r>    4.1258    1.0000 </r>
       <r>    4.7990    1.0000 </r>
       <r>    5.3529    1.0000 </r>
       <r>    5.8771    1.0000 </r>
       <r>    6.3299    1.0000 </r>
       <r>    6.9785    1.0000 </r>
       <r>    8.3678    1.0000 </r>
       <r>    8.8579    1.0000 </r>
       <r>   10.6740    1.0000 </r>
       <r>   11.8363    0.0000 </r>
       <r>   12.2762    0.0000 </r>
       <r>   12.9614    0.0000 </r>
       <r>   13.0837    0.0000 </r>
       <r>   13.3258    0.0000 </r>
      </set>
      <set comment="kpoint 53">
       <r>  -28.8132    1.0000 </r>
       <r>  -12.6151    1.0000 </r>
[...]
       <r>   11.1950    0.0000 </r>
       <r>   11.6367    0.0000 </r>
       <r>   12.6906    0.0000 </r>
       <r>   12.9083    0.0000 </r>
       <r>   13.0899    0.0000 </r>
       <r>   13.2938    0.0000 </r>
      </set>
      <set comment="kpoint 81">
       <r>  -28.8093    1.0000 </r>
       <r>  -12.6060    1.0000 </r>
       <r>  -12.5834    1.0000 </r>
       <r>  -12.5446    1.0000 </r>
       <r>  -12.5399    1.0000 </r>
       <r>  -12.5303    1.0000 </r>
       <r>   -7.4446    1.0000 </r>
       <r>   -7.2824    1.0000 </r>
       <r>   -7.1006    1.0000 </r>
       <r>   -1.3549    1.0000 </r>
       <r>    4.6272    1.0000 </r>
       <r>    4.9379    1.0000 </r>
       <r>    5.2070    1.0000 </r>
       <r>    5.9823    1.0000 </r>
       <r>    6.2759    1.0000 </r>
       <r>    7.0406    1.0000 </r>
       <r>    7.4050    1.0000 </r>
       <r>    9.0263    1.0000 </r>
       <r>   11.2528    0.0000 </r>
       <r>   11.6029    0.0000 </r>
       <r>   12.6782    0.0000 </r>
       <r>   12.9063    0.0000 </r>
       <r>   13.1043    0.0000 </r>
       <r>   13.2902    0.0000 </r>
      </set>
      <set comment="kpoint 82">
       <r>  -28.8085    1.0000 </r>
       <r>  -12.5938    1.0000 </r>
       <r>  -12.5747    1.0000 </r>
       <r>  -12.5500    1.0000 </r>
       <r>  -12.5353    1.0000 </r>
       <r>  -12.5287    1.0000 </r>
       <r>   -7.4491    1.0000 </r>
       <r>   -7.2384    1.0000 </r>
       <r>   -7.1711    1.0000 </r>
       <r>   -1.5753    1.0000 </r>
       <r>    4.7309    1.0000 </r>
       <r>    5.3305    1.0000 </r>
       <r>    5.4936    1.0000 </r>
       <r>    5.8602    1.0000 </r>
       <r>    6.2279    1.0000 </r>
       <r>    6.6426    1.0000 </r>
       <r>    7.7595    1.0000 </r>
       <r>    9.3179    1.0000 </r>
       <r>   10.8363    0.0000 </r>
       <r>   12.0847    0.0000 </r>
       <r>   12.5844    0.0000 </r>
       <r>   12.7815    0.0000 </r>
       <r>   12.9666    0.0000 </r>
       <r>   13.3258    0.0000 </r>
      </set>
      <set comment="kpoint 83">
       <r>  -28.8082    1.0000 </r>
       <r>  -12.5990    1.0000 </r>
       <r>  -12.5746    1.0000 </r>
       <r>  -12.5475    1.0000 </r>
       <r>  -12.5382    1.0000 </r>
       <r>  -12.5287    1.0000 </r>
       <r>   -7.4159    1.0000 </r>
       <r>   -7.2822    1.0000 </r>
       <r>   -7.1607    1.0000 </r>
       <r>   -1.5196    1.0000 </r>
       <r>    4.6618    1.0000 </r>
       <r>    5.2788    1.0000 </r>
       <r>    5.5362    1.0000 </r>
       <r>    5.9193    1.0000 </r>
       <r>    6.3081    1.0000 </r>
       <r>    6.6749    1.0000 </r>
       <r>    7.3971    1.0000 </r>
       <r>    9.2944    1.0000 </r>
       <r>   11.0305    0.0000 </r>
       <r>   11.8748    0.0000 </r>
       <r>   12.6258    0.0000 </r>
       <r>   12.8089    0.0000 </r>
       <r>   13.0380    0.0000 </r>
       <r>   13.3431    0.0000 </r>
      </set>
      <set comment="kpoint 84">
       <r>  -28.8083    1.0000 </r>
       <r>  -12.6018    1.0000 </r>
       <r>  -12.5748    1.0000 </r>
       <r>  -12.5453    1.0000 </r>
       <r>  -12.5408    1.0000 </r>
       <r>  -12.5286    1.0000 </r>
       <r>   -7.4017    1.0000 </r>
       <r>   -7.2899    1.0000 </r>
       <r>   -7.1650    1.0000 </r>
       <r>   -1.4861    1.0000 </r>
       <r>    4.6211    1.0000 </r>
       <r>    5.3001    1.0000 </r>
       <r>    5.4842    1.0000 </r>
       <r>    5.9169    1.0000 </r>
       <r>    6.3529    1.0000 </r>
       <r>    6.8405    1.0000 </r>
       <r>    7.1006    1.0000 </r>
       <r>    9.3237    1.0000 </r>
       <r>   11.3187    0.0000 </r>
       <r>   11.5875    0.0000 </r>
       <r>   12.6066    0.0000 </r>
       <r>   12.8023    0.0000 </r>
       <r>   13.0961    0.0000 </r>
       <r>   13.2818    0.0000 </r>
      </set>
     </set>
    </set>
   </array>
  </eigenvalues>
  <separator name="orbital magnetization" >
   <v name="MAGDIPOLOUT">      0.00000000      0.00000000      0.00000000</v>
  </separator>
  <dos>
   <i name="efermi">     10.74562533 </i>
   <total>
    <array>
     <dimension dim="1">gridpoints</dimension>
     <dimension dim="2">spin</dimension>
     <field>energy</field>
     <field>total</field>
     <field>integrated</field>
     <set>
      <set comment="spin 1">
       <r>   -30.9407     0.0000     0.0000 </r>
       <r>   -30.7858     0.0000     0.0000 </r>
       <r>   -30.6310     0.0000     0.0000 </r>
       <r>   -30.4761     0.0000     0.0000 </r>
       <r>   -30.3212     0.0000     0.0000 </r>
       <r>   -30.1663     0.0000     0.0000 </r>
       <r>   -30.0114     0.0000     0.0000 </r>
       <r>   -29.8566     0.0000     0.0000 </r>
       <r>   -29.7017     0.0000     0.0000 </r>
       <r>   -29.5468     0.0000     0.0000 </r>
       <r>   -29.3919     0.0000     0.0000 </r>
       <r>   -29.2371     0.0000     0.0000 </r>
       <r>   -29.0822     0.0000     0.0000 </r>
       <r>   -28.9273     0.0000     0.0000 </r>
       <r>   -28.7724    12.9134     2.0000 </r>
       <r>   -28.6175     0.0000     2.0000 </r>
       <r>   -28.4627     0.0000     2.0000 </r>
       <r>   -28.3078     0.0000     2.0000 </r>
       <r>   -28.1529     0.0000     2.0000 </r>
       <r>   -27.9980     0.0000     2.0000 </r>
       <r>   -27.8432     0.0000     2.0000 </r>
       <r>   -27.6883     0.0000     2.0000 </r>
       <r>   -27.5334     0.0000     2.0000 </r>
       <r>   -27.3785     0.0000     2.0000 </r>
       <r>   -27.2236     0.0000     2.0000 </r>
       <r>   -27.0688     0.0000     2.0000 </r>
       <r>   -26.9139     0.0000     2.0000 </r>
       <r>   -26.7590     0.0000     2.0000 </r>
       <r>   -26.6041     0.0000     2.0000 </r>
       <r>   -26.4492     0.0000     2.0000 </r>
       <r>   -26.2944     0.0000     2.0000 </r>
       <r>   -26.1395     0.0000     2.0000 </r>
       <r>   -25.9846     0.0000     2.0000 </r>
       <r>   -25.8297     0.0000     2.0000 </r>
       <r>   -25.6749     0.0000     2.0000 </r>
       <r>   -25.5200     0.0000     2.0000 </r>
       <r>   -25.3651     0.0000     2.0000 </r>
       <r>   -25.2102     0.0000     2.0000 </r>
       <r>   -25.0553     0.0000     2.0000 </r>
       <r>   -24.9005     0.0000     2.0000 </r>
       <r>   -24.7456     0.0000     2.0000 </r>
       <r>   -24.5907     0.0000     2.0000 </r>
       <r>   -24.4358     0.0000     2.0000 </r>
       <r>   -24.2809     0.0000     2.0000 </r>
       <r>   -24.1261     0.0000     2.0000 </r>
       <r>   -23.9712     0.0000     2.0000 </r>
       <r>   -23.8163     0.0000     2.0000 </r>
       <r>   -23.6614     0.0000     2.0000 </r>
       <r>   -23.5066     0.0000     2.0000 </r>
       <r>   -23.3517     0.0000     2.0000 </r>
       <r>   -23.1968     0.0000     2.0000 </r>
       <r>   -23.0419     0.0000     2.0000 </r>
       <r>   -22.8870     0.0000     2.0000 </r>
       <r>   -22.7322     0.0000     2.0000 </r>
       <r>   -22.5773     0.0000     2.0000 </r>
       <r>   -22.4224     0.0000     2.0000 </r>
       <r>   -22.2675     0.0000     2.0000 </r>
       <r>   -22.1127     0.0000     2.0000 </r>
       <r>   -21.9578     0.0000     2.0000 </r>
       <r>   -21.8029     0.0000     2.0000 </r>
       <r>   -21.6480     0.0000     2.0000 </r>
       <r>   -21.4931     0.0000     2.0000 </r>
       <r>   -21.3383     0.0000     2.0000 </r>
       <r>   -21.1834     0.0000     2.0000 </r>
       <r>   -21.0285     0.0000     2.0000 </r>
       <r>   -20.8736     0.0000     2.0000 </r>
       <r>   -20.7187     0.0000     2.0000 </r>
       <r>   -20.5639     0.0000     2.0000 </r>
       <r>   -20.4090     0.0000     2.0000 </r>
       <r>   -20.2541     0.0000     2.0000 </r>
       <r>   -20.0992     0.0000     2.0000 </r>
       <r>   -19.9444     0.0000     2.0000 </r>
       <r>   -19.7895     0.0000     2.0000 </r>
       <r>   -19.6346     0.0000     2.0000 </r>
       <r>   -19.4797     0.0000     2.0000 </r>
       <r>   -19.3248     0.0000     2.0000 </r>
       <r>   -19.1700     0.0000     2.0000 </r>
       <r>   -19.0151     0.0000     2.0000 </r>
       <r>   -18.8602     0.0000     2.0000 </r>
       <r>   -18.7053     0.0000     2.0000 </r>
       <r>   -18.5504     0.0000     2.0000 </r>
       <r>   -18.3956     0.0000     2.0000 </r>
       <r>   -18.2407     0.0000     2.0000 </r>
       <r>   -18.0858     0.0000     2.0000 </r>
       <r>   -17.9309     0.0000     2.0000 </r>
       <r>   -17.7761     0.0000     2.0000 </r>
       <r>   -17.6212     0.0000     2.0000 </r>
       <r>   -17.4663     0.0000     2.0000 </r>
       <r>   -17.3114     0.0000     2.0000 </r>
       <r>   -17.1565     0.0000     2.0000 </r>
       <r>   -17.0017     0.0000     2.0000 </r>
       <r>   -16.8468     0.0000     2.0000 </r>
       <r>   -16.6919     0.0000     2.0000 </r>
       <r>   -16.5370     0.0000     2.0000 </r>
       <r>   -16.3822     0.0000     2.0000 </r>
       <r>   -16.2273     0.0000     2.0000 </r>
       <r>   -16.0724     0.0000     2.0000 </r>
       <r>   -15.9175     0.0000     2.0000 </r>
       <r>   -15.7626     0.0000     2.0000 </r>
       <r>   -15.6078     0.0000     2.0000 </r>
       <r>   -15.4529     0.0000     2.0000 </r>
       <r>   -15.2980     0.0000     2.0000 </r>
       <r>   -15.1431     0.0000     2.0000 </r>
       <r>   -14.9882     0.0000     2.0000 </r>
       <r>   -14.8334     0.0000     2.0000 </r>
       <r>   -14.6785     0.0000     2.0000 </r>
       <r>   -14.5236     0.0000     2.0000 </r>
       <r>   -14.3687     0.0000     2.0000 </r>
       <r>   -14.2139     0.0000     2.0000 </r>
       <r>   -14.0590     0.0000     2.0000 </r>
       <r>   -13.9041     0.0000     2.0000 </r>
       <r>   -13.7492     0.0000     2.0000 </r>
       <r>   -13.5943     0.0000     2.0000 </r>
       <r>   -13.4395     0.0000     2.0000 </r>
       <r>   -13.2846     0.0000     2.0000 </r>
       <r>   -13.1297     0.0000     2.0000 </r>
       <r>   -12.9748     0.0000     2.0000 </r>
       <r>   -12.8199     0.0000     2.0000 </r>
       <r>   -12.6651     0.0000     2.0000 </r>
       <r>   -12.5102    46.9376    11.9970 </r>
       <r>   -12.3553     0.0000    12.0000 </r>
       <r>   -12.2004     0.0000    12.0000 </r>
       <r>   -12.0456     0.0000    12.0000 </r>
       <r>   -11.8907     0.0000    12.0000 </r>
       <r>   -11.7358     0.0000    12.0000 </r>
       <r>   -11.5809     0.0000    12.0000 </r>
       <r>   -11.4260     0.0000    12.0000 </r>
       <r>   -11.2712     0.0000    12.0000 </r>
       <r>   -11.1163     0.0000    12.0000 </r>
       <r>   -10.9614     0.0000    12.0000 </r>
       <r>   -10.8065     0.0000    12.0000 </r>
       <r>   -10.6517     0.0000    12.0000 </r>
       <r>   -10.4968     0.0000    12.0000 </r>
       <r>   -10.3419     0.0000    12.0000 </r>
       <r>   -10.1870     0.0000    12.0000 </r>
       <r>   -10.0321     0.0000    12.0000 </r>
       <r>    -9.8773     0.0000    12.0000 </r>
       <r>    -9.7224     0.0000    12.0000 </r>
       <r>    -9.5675     0.0000    12.0000 </r>
       <r>    -9.4126     0.0000    12.0000 </r>
       <r>    -9.2577     0.0000    12.0000 </r>
       <r>    -9.1029     0.0000    12.0000 </r>
       <r>    -8.9480     0.0000    12.0000 </r>
       <r>    -8.7931     0.0000    12.0000 </r>
       <r>    -8.6382     0.0000    12.0000 </r>
       <r>    -8.4834     0.0000    12.0000 </r>
       <r>    -8.3285     0.0000    12.0000 </r>
       <r>    -8.1736     0.0000    12.0000 </r>
       <r>    -8.0187     0.0000    12.0000 </r>
       <r>    -7.8638     0.0000    12.0000 </r>
       <r>    -7.7090     0.0000    12.0000 </r>
       <r>    -7.5541     1.7273    12.3185 </r>
       <r>    -7.3992     5.2482    13.8015 </r>
       <r>    -7.2443     2.6758    14.3334 </r>
       <r>    -7.0894    10.4906    16.7654 </r>
       <r>    -6.9346     0.0000    18.0000 </r>
       <r>    -6.7797     0.0000    18.0000 </r>
       <r>    -6.6248     0.0000    18.0000 </r>
       <r>    -6.4699     0.0000    18.0000 </r>
       <r>    -6.3151     0.0000    18.0000 </r>
       <r>    -6.1602     0.0000    18.0000 </r>
       <r>    -6.0053     0.0000    18.0000 </r>
       <r>    -5.8504     0.0000    18.0000 </r>
       <r>    -5.6955     0.0000    18.0000 </r>
       <r>    -5.5407     0.0000    18.0000 </r>
       <r>    -5.3858     0.0000    18.0000 </r>
       <r>    -5.2309     0.0000    18.0000 </r>
       <r>    -5.0760     0.0000    18.0000 </r>
       <r>    -4.9212     0.0000    18.0000 </r>
       <r>    -4.7663     0.0000    18.0000 </r>
       <r>    -4.6114     0.0000    18.0000 </r>
       <r>    -4.4565     0.0000    18.0000 </r>
       <r>    -4.3016     0.0000    18.0000 </r>
       <r>    -4.1468     0.0000    18.0000 </r>
       <r>    -3.9919     0.0000    18.0000 </r>
       <r>    -3.8370     0.0000    18.0000 </r>
       <r>    -3.6821     0.0000    18.0000 </r>
       <r>    -3.5272     0.0000    18.0000 </r>
       <r>    -3.3724     0.0000    18.0000 </r>
       <r>    -3.2175     0.0000    18.0000 </r>
       <r>    -3.0626     0.0000    18.0000 </r>
       <r>    -2.9077     0.0000    18.0000 </r>
       <r>    -2.7529     0.0000    18.0000 </r>
       <r>    -2.5980     0.0000    18.0000 </r>
       <r>    -2.4431     0.0059    18.0009 </r>
       <r>    -2.2882     0.0353    18.0137 </r>
       <r>    -2.1333     0.1380    18.0460 </r>
       <r>    -1.9785     0.0353    18.0592 </r>
       <r>    -1.8236     0.0003    18.1029 </r>
       <r>    -1.6687     0.3582    18.2184 </r>
       <r>    -1.5138     1.5587    18.5646 </r>
       <r>    -1.3589     1.8248    19.0373 </r>
       <r>    -1.2041     1.5807    19.5093 </r>
       <r>    -1.0492     0.9875    19.8325 </r>
       <r>    -0.8943     0.5549    19.9694 </r>
       <r>    -0.7394     0.0470    20.0000 </r>
       <r>    -0.5846     0.0000    20.0000 </r>
       <r>    -0.4297     0.0000    20.0000 </r>
       <r>    -0.2748     0.0000    20.0000 </r>
       <r>    -0.1199     0.0000    20.0000 </r>
       <r>     0.0350     0.0000    20.0000 </r>
       <r>     0.1898     0.0000    20.0000 </r>
       <r>     0.3447     0.0000    20.0000 </r>
       <r>     0.4996     0.0000    20.0000 </r>
       <r>     0.6545     0.0000    20.0000 </r>
       <r>     0.8093     0.0000    20.0000 </r>
       <r>     0.9642     0.0000    20.0000 </r>
       <r>     1.1191     0.0000    20.0000 </r>
       <r>     1.2740     0.0000    20.0000 </r>
       <r>     1.4289     0.0000    20.0000 </r>
       <r>     1.5837     0.0000    20.0000 </r>
       <r>     1.7386     0.0000    20.0000 </r>
       <r>     1.8935     0.0000    20.0000 </r>
       <r>     2.0484     0.0000    20.0000 </r>
       <r>     2.2033     0.0000    20.0000 </r>
       <r>     2.3581     0.0000    20.0000 </r>
       <r>     2.5130     0.0000    20.0000 </r>
       <r>     2.6679     0.0000    20.0000 </r>
       <r>     2.8228     0.0000    20.0000 </r>
       <r>     2.9776     0.0000    20.0000 </r>
       <r>     3.1325     0.0000    20.0000 </r>
       <r>     3.2874     0.0000    20.0000 </r>
       <r>     3.4423     0.0000    20.0000 </r>
       <r>     3.5972     0.0000    20.0000 </r>
       <r>     3.7520     0.0000    20.0000 </r>
       <r>     3.9069     0.0727    20.0113 </r>
       <r>     4.0618     0.6219    20.1691 </r>
       <r>     4.2167     1.3000    20.6856 </r>
       <r>     4.3716     0.8527    20.9550 </r>
       <r>     4.5264     0.9167    21.1907 </r>
       <r>     4.6813     3.0296    21.6982 </r>
       <r>     4.8362     3.3722    22.5978 </r>
       <r>     4.9911     2.4616    23.3125 </r>
       <r>     5.1459     3.0602    24.0680 </r>
       <r>     5.3008     2.6794    24.8920 </r>
       <r>     5.4557     1.2415    25.4358 </r>
       <r>     5.6106     1.6340    25.8880 </r>
       <r>     5.7655     0.5577    26.0782 </r>
       <r>     5.9203     5.0857    27.0498 </r>
       <r>     6.0752     4.1212    28.3333 </r>
       <r>     6.2301     3.1574    29.1381 </r>
       <r>     6.3850     1.9335    29.9390 </r>
       <r>     6.5398     0.6383    30.1608 </r>
       <r>     6.6947     1.2637    30.4233 </r>
       <r>     6.8496     1.6155    30.8019 </r>
       <r>     7.0045     1.4102    31.2289 </r>
       <r>     7.1594     0.7819    31.4921 </r>
       <r>     7.3142     0.7011    31.6998 </r>
       <r>     7.4691     0.8467    31.9190 </r>
       <r>     7.6240     0.3180    32.0502 </r>
       <r>     7.7789     0.9978    32.2865 </r>
       <r>     7.9338     0.5307    32.5110 </r>
       <r>     8.0886     0.5610    32.7123 </r>
       <r>     8.2435     0.6546    33.1037 </r>
       <r>     8.3984     0.7363    33.3020 </r>
       <r>     8.5533     0.8278    33.5784 </r>
       <r>     8.7081     0.8176    33.7862 </r>
       <r>     8.8630     4.7520    34.7232 </r>
       <r>     9.0179     1.7130    35.5088 </r>
       <r>     9.1728     1.2604    35.8356 </r>
       <r>     9.3277     0.7471    35.9892 </r>
       <r>     9.4825     0.0000    36.0000 </r>
       <r>     9.6374     0.0059    36.0009 </r>
       <r>     9.7923     0.0000    36.0009 </r>
       <r>     9.9472     0.0000    36.0009 </r>
       <r>    10.1021     0.0000    36.0009 </r>
       <r>    10.2569     0.1647    36.0337 </r>
       <r>    10.4118     0.3567    36.1017 </r>
       <r>    10.5667     1.1716    36.4482 </r>
       <r>    10.7216     2.4669    36.9620 </r>
       <r>    10.8764     1.7255    37.3879 </r>
       <r>    11.0313     1.5006    37.7818 </r>
       <r>    11.1862     0.6644    38.0128 </r>
       <r>    11.3411     0.4113    38.1702 </r>
       <r>    11.4960     0.2116    38.2686 </r>
       <r>    11.6508     1.0746    38.4568 </r>
       <r>    11.8057     0.9669    38.7387 </r>
       <r>    11.9606     1.1573    39.2398 </r>
       <r>    12.1155     2.1454    39.8453 </r>
       <r>    12.2703     1.7781    40.3510 </r>
       <r>    12.4252     1.3948    40.8105 </r>
       <r>    12.5801     1.8634    41.2799 </r>
       <r>    12.7350     3.6333    42.3042 </r>
       <r>    12.8899     2.0689    43.0505 </r>
       <r>    13.0447     7.0527    44.7691 </r>
       <r>    13.1996     1.9032    46.1418 </r>
       <r>    13.3545     6.4881    47.3663 </r>
       <r>    13.5094     0.0000    48.0000 </r>
       <r>    13.6643     0.0000    48.0000 </r>
       <r>    13.8191     0.0000    48.0000 </r>
       <r>    13.9740     0.0000    48.0000 </r>
       <r>    14.1289     0.0000    48.0000 </r>
       <r>    14.2838     0.0000    48.0000 </r>
       <r>    14.4386     0.0000    48.0000 </r>
       <r>    14.5935     0.0000    48.0000 </r>
       <r>    14.7484     0.0000    48.0000 </r>
       <r>    14.9033     0.0000    48.0000 </r>
       <r>    15.0582     0.0000    48.0000 </r>
       <r>    15.2130     0.0000    48.0000 </r>
       <r>    15.3679     0.0000    48.0000 </r>
       <r>    15.5228     0.0000    48.0000 </r>
      </set>
     </set>
    </array>
   </total>
  </dos>
 </calculation>
 <structure name="finalpos" >
  <crystal>
   <varray name="basis" >
    <v>       0.00000000       3.23148734       3.23148734 </v>
    <v>       3.23148734       0.00000000       3.23148734 </v>
    <v>       3.23148734       3.23148734       0.00000000 </v>
   </varray>
   <i name="volume">     67.48968034 </i>
   <varray name="rec_basis" >
    <v>      -0.15472751       0.15472751       0.15472751 </v>
    <v>       0.15472751      -0.15472751       0.15472751 </v>
    <v>       0.15472751       0.15472751      -0.15472751 </v>
   </varray>
  </crystal>
  <varray name="positions" >
   <v>       0.25000000       0.25000000       0.25000000 </v>
   <v>       0.75000000       0.75000000       0.75000000 </v>
   <v>       0.00000000       0.00000000       0.00000000 </v>
  </varray>
 </structure>
</modeling>
