   2   2   0   0
  0.2277480E+02  0.4008666E-09  0.4008666E-09  0.4008666E-09  0.0000000E+00
   1.0000000000000000E-004
  CAR 
 unknown system                          
     21.53398233    -23.75348357  301     -0.81983133      1.00000000
    -23.753  0.0000E+00  0.0000E+00
    -23.603  0.0000E+00  0.0000E+00
    -23.452  0.0000E+00  0.0000E+00
    -23.301  0.0000E+00  0.0000E+00
    -23.150  0.0000E+00  0.0000E+00
    -22.999  0.0000E+00  0.0000E+00
    -22.848  0.0000E+00  0.0000E+00
    -22.697  0.0000E+00  0.0000E+00
    -22.546  0.0000E+00  0.0000E+00
    -22.395  0.0000E+00  0.0000E+00
    -22.244  0.0000E+00  0.0000E+00
    -22.093  0.0000E+00  0.0000E+00
    -21.942  0.0000E+00  0.0000E+00
    -21.791  0.0000E+00  0.0000E+00
    -21.640  0.3975E+02  0.6000E+01
    -21.489  0.0000E+00  0.6000E+01
    -21.338  0.0000E+00  0.6000E+01
    -21.187  0.0000E+00  0.6000E+01
    -21.036  0.0000E+00  0.6000E+01
    -20.885  0.0000E+00  0.6000E+01
    -20.734  0.0000E+00  0.6000E+01
    -20.583  0.0000E+00  0.6000E+01
    -20.432  0.0000E+00  0.6000E+01
    -20.281  0.0000E+00  0.6000E+01
    -20.130  0.0000E+00  0.6000E+01
    -19.980  0.0000E+00  0.6000E+01
    -19.829  0.0000E+00  0.6000E+01
    -19.678  0.0000E+00  0.6000E+01
    -19.527  0.0000E+00  0.6000E+01
    -19.376  0.0000E+00  0.6000E+01
    -19.225  0.0000E+00  0.6000E+01
    -19.074  0.0000E+00  0.6000E+01
    -18.923  0.0000E+00  0.6000E+01
    -18.772  0.0000E+00  0.6000E+01
    -18.621  0.0000E+00  0.6000E+01
    -18.470  0.0000E+00  0.6000E+01
    -18.319  0.0000E+00  0.6000E+01
    -18.168  0.0000E+00  0.6000E+01
    -18.017  0.0000E+00  0.6000E+01
    -17.866  0.0000E+00  0.6000E+01
    -17.715  0.0000E+00  0.6000E+01
    -17.564  0.0000E+00  0.6000E+01
    -17.413  0.0000E+00  0.6000E+01
    -17.262  0.0000E+00  0.6000E+01
    -17.111  0.0000E+00  0.6000E+01
    -16.960  0.0000E+00  0.6000E+01
    -16.809  0.0000E+00  0.6000E+01
    -16.658  0.0000E+00  0.6000E+01
    -16.507  0.0000E+00  0.6000E+01
    -16.357  0.0000E+00  0.6000E+01
    -16.206  0.0000E+00  0.6000E+01
    -16.055  0.0000E+00  0.6000E+01
    -15.904  0.0000E+00  0.6000E+01
    -15.753  0.0000E+00  0.6000E+01
    -15.602  0.0000E+00  0.6000E+01
    -15.451  0.0000E+00  0.6000E+01
    -15.300  0.0000E+00  0.6000E+01
    -15.149  0.0000E+00  0.6000E+01
    -14.998  0.0000E+00  0.6000E+01
    -14.847  0.0000E+00  0.6000E+01
    -14.696  0.0000E+00  0.6000E+01
    -14.545  0.0000E+00  0.6000E+01
    -14.394  0.0000E+00  0.6000E+01
    -14.243  0.0000E+00  0.6000E+01
    -14.092  0.0000E+00  0.6000E+01
    -13.941  0.0000E+00  0.6000E+01
    -13.790  0.0000E+00  0.6000E+01
    -13.639  0.0000E+00  0.6000E+01
    -13.488  0.0000E+00  0.6000E+01
    -13.337  0.1740E+01  0.6082E+01
    -13.186  0.5928E+01  0.6480E+01
    -13.035  0.9003E+01  0.8000E+01
    -12.884  0.0000E+00  0.8000E+01
    -12.734  0.0000E+00  0.8000E+01
    -12.583  0.0000E+00  0.8000E+01
    -12.432  0.0000E+00  0.8000E+01
    -12.281  0.0000E+00  0.8000E+01
    -12.130  0.0000E+00  0.8000E+01
    -11.979  0.0000E+00  0.8000E+01
    -11.828  0.0000E+00  0.8000E+01
    -11.677  0.0000E+00  0.8000E+01
    -11.526  0.0000E+00  0.8000E+01
    -11.375  0.0000E+00  0.8000E+01
    -11.224  0.0000E+00  0.8000E+01
    -11.073  0.0000E+00  0.8000E+01
    -10.922  0.0000E+00  0.8000E+01
    -10.771  0.0000E+00  0.8000E+01
    -10.620  0.0000E+00  0.8000E+01
    -10.469  0.0000E+00  0.8000E+01
    -10.318  0.0000E+00  0.8000E+01
    -10.167  0.0000E+00  0.8000E+01
    -10.016  0.0000E+00  0.8000E+01
     -9.865  0.0000E+00  0.8000E+01
     -9.714  0.0000E+00  0.8000E+01
     -9.563  0.0000E+00  0.8000E+01
     -9.412  0.0000E+00  0.8000E+01
     -9.261  0.0000E+00  0.8000E+01
     -9.111  0.0000E+00  0.8000E+01
     -8.960  0.0000E+00  0.8000E+01
     -8.809  0.0000E+00  0.8000E+01
     -8.658  0.0000E+00  0.8000E+01
     -8.507  0.0000E+00  0.8000E+01
     -8.356  0.0000E+00  0.8000E+01
     -8.205  0.0000E+00  0.8000E+01
     -8.054  0.0000E+00  0.8000E+01
     -7.903  0.0000E+00  0.8000E+01
     -7.752  0.0000E+00  0.8000E+01
     -7.601  0.0000E+00  0.8000E+01
     -7.450  0.0000E+00  0.8000E+01
     -7.299  0.0000E+00  0.8000E+01
     -7.148  0.0000E+00  0.8000E+01
     -6.997  0.0000E+00  0.8000E+01
     -6.846  0.0000E+00  0.8000E+01
     -6.695  0.0000E+00  0.8000E+01
     -6.544  0.0000E+00  0.8000E+01
     -6.393  0.0000E+00  0.8000E+01
     -6.242  0.0000E+00  0.8000E+01
     -6.091  0.0000E+00  0.8000E+01
     -5.940  0.0000E+00  0.8000E+01
     -5.789  0.0000E+00  0.8000E+01
     -5.638  0.0000E+00  0.8000E+01
     -5.488  0.0000E+00  0.8000E+01
     -5.337  0.0000E+00  0.8000E+01
     -5.186  0.0000E+00  0.8000E+01
     -5.035  0.0000E+00  0.8000E+01
     -4.884  0.0000E+00  0.8000E+01
     -4.733  0.0000E+00  0.8000E+01
     -4.582  0.0000E+00  0.8000E+01
     -4.431  0.0000E+00  0.8000E+01
     -4.280  0.0000E+00  0.8000E+01
     -4.129  0.0000E+00  0.8000E+01
     -3.978  0.0000E+00  0.8000E+01
     -3.827  0.0000E+00  0.8000E+01
     -3.676  0.0000E+00  0.8000E+01
     -3.525  0.0000E+00  0.8000E+01
     -3.374  0.0000E+00  0.8000E+01
     -3.223  0.0000E+00  0.8000E+01
     -3.072  0.0000E+00  0.8000E+01
     -2.921  0.0000E+00  0.8000E+01
     -2.770  0.0000E+00  0.8000E+01
     -2.619  0.6585E+00  0.8025E+01
     -2.468  0.1557E+01  0.8189E+01
     -2.317  0.5393E+01  0.8620E+01
     -2.166  0.4874E+01  0.9437E+01
     -2.015  0.9692E+00  0.9697E+01
     -1.865  0.1970E+01  0.9895E+01
     -1.714  0.2323E+01  0.1022E+02
     -1.563  0.2696E+01  0.1060E+02
     -1.412  0.5150E+01  0.1112E+02
     -1.261  0.7936E+01  0.1203E+02
     -1.110  0.8408E+01  0.1304E+02
     -0.959  0.4124E+01  0.1377E+02
     -0.808  0.7719E+00  0.1400E+02
     -0.657  0.0000E+00  0.1400E+02
     -0.506  0.0000E+00  0.1400E+02
     -0.355  0.0000E+00  0.1400E+02
     -0.204  0.0000E+00  0.1400E+02
     -0.053  0.0000E+00  0.1400E+02
      0.098  0.0000E+00  0.1400E+02
      0.249  0.0000E+00  0.1400E+02
      0.400  0.0000E+00  0.1400E+02
      0.551  0.0000E+00  0.1400E+02
      0.702  0.0000E+00  0.1400E+02
      0.853  0.0000E+00  0.1400E+02
      1.004  0.0000E+00  0.1400E+02
      1.155  0.0000E+00  0.1400E+02
      1.306  0.0000E+00  0.1400E+02
      1.457  0.0000E+00  0.1400E+02
      1.607  0.0000E+00  0.1400E+02
      1.758  0.0000E+00  0.1400E+02
      1.909  0.0000E+00  0.1400E+02
      2.060  0.0000E+00  0.1400E+02
      2.211  0.0000E+00  0.1400E+02
      2.362  0.0000E+00  0.1400E+02
      2.513  0.0000E+00  0.1400E+02
      2.664  0.0000E+00  0.1400E+02
      2.815  0.0000E+00  0.1400E+02
      2.966  0.0000E+00  0.1400E+02
      3.117  0.0000E+00  0.1400E+02
      3.268  0.0000E+00  0.1400E+02
      3.419  0.0000E+00  0.1400E+02
      3.570  0.0000E+00  0.1400E+02
      3.721  0.0000E+00  0.1400E+02
      3.872  0.0000E+00  0.1400E+02
      4.023  0.0000E+00  0.1400E+02
      4.174  0.0000E+00  0.1400E+02
      4.325  0.9749E-02  0.1400E+02
      4.476  0.3873E-01  0.1400E+02
      4.627  0.5571E-01  0.1401E+02
      4.778  0.7522E-01  0.1402E+02
      4.929  0.9101E-01  0.1403E+02
      5.080  0.1097E+00  0.1405E+02
      5.230  0.1300E+00  0.1407E+02
      5.381  0.1519E+00  0.1409E+02
      5.532  0.1771E+00  0.1411E+02
      5.683  0.2065E+00  0.1414E+02
      5.834  0.2393E+00  0.1418E+02
      5.985  0.2819E+00  0.1422E+02
      6.136  0.3414E+00  0.1426E+02
      6.287  0.4182E+00  0.1432E+02
      6.438  0.6259E+00  0.1439E+02
      6.589  0.7383E+00  0.1451E+02
      6.740  0.9242E+00  0.1463E+02
      6.891  0.1249E+01  0.1480E+02
      7.042  0.1245E+01  0.1498E+02
      7.193  0.1253E+01  0.1517E+02
      7.344  0.1318E+01  0.1536E+02
      7.495  0.1385E+01  0.1557E+02
      7.646  0.1370E+01  0.1578E+02
      7.797  0.1310E+01  0.1598E+02
      7.948  0.1181E+01  0.1617E+02
      8.099  0.7505E+00  0.1631E+02
      8.250  0.1034E+01  0.1644E+02
      8.401  0.3046E+01  0.1667E+02
      8.552  0.1500E+01  0.1695E+02
      8.703  0.1287E+01  0.1716E+02
      8.853  0.1952E+01  0.1741E+02
      9.004  0.2275E+01  0.1771E+02
      9.155  0.2424E+01  0.1808E+02
      9.306  0.2763E+01  0.1846E+02
      9.457  0.2178E+01  0.1884E+02
      9.608  0.1688E+01  0.1913E+02
      9.759  0.1239E+01  0.1935E+02
      9.910  0.1035E+01  0.1952E+02
     10.061  0.8482E+00  0.1966E+02
     10.212  0.8108E+00  0.1978E+02
     10.363  0.1088E+01  0.1991E+02
     10.514  0.1733E+01  0.2011E+02
     10.665  0.1632E+01  0.2036E+02
     10.816  0.1489E+01  0.2057E+02
     10.967  0.2244E+01  0.2084E+02
     11.118  0.1972E+01  0.2116E+02
     11.269  0.1261E+01  0.2138E+02
     11.420  0.1180E+01  0.2157E+02
     11.571  0.1128E+01  0.2174E+02
     11.722  0.9576E+00  0.2190E+02
     11.873  0.8601E+00  0.2204E+02
     12.024  0.7963E+00  0.2216E+02
     12.175  0.7400E+00  0.2228E+02
     12.326  0.8269E+00  0.2239E+02
     12.476  0.9122E+00  0.2252E+02
     12.627  0.8917E+00  0.2266E+02
     12.778  0.9847E+00  0.2280E+02
     12.929  0.1249E+01  0.2297E+02
     13.080  0.1745E+01  0.2320E+02
     13.231  0.1930E+01  0.2348E+02
     13.382  0.1568E+01  0.2375E+02
     13.533  0.1230E+01  0.2396E+02
     13.684  0.1039E+01  0.2413E+02
     13.835  0.9084E+00  0.2427E+02
     13.986  0.8845E+00  0.2441E+02
     14.137  0.8764E+00  0.2454E+02
     14.288  0.8904E+00  0.2467E+02
     14.439  0.9699E+00  0.2481E+02
     14.590  0.1945E+01  0.2500E+02
     14.741  0.1961E+01  0.2527E+02
     14.892  0.2128E+01  0.2560E+02
     15.043  0.1484E+01  0.2583E+02
     15.194  0.1523E+01  0.2606E+02
     15.345  0.9605E+00  0.2624E+02
     15.496  0.7161E+00  0.2636E+02
     15.647  0.9677E+00  0.2648E+02
     15.798  0.2315E+01  0.2674E+02
     15.949  0.2656E+01  0.2710E+02
     16.099  0.2008E+01  0.2745E+02
     16.250  0.1578E+01  0.2772E+02
     16.401  0.2266E+01  0.2799E+02
     16.552  0.1620E+01  0.2825E+02
     16.703  0.1712E+01  0.2849E+02
     16.854  0.1889E+01  0.2876E+02
     17.005  0.1797E+01  0.2904E+02
     17.156  0.1910E+01  0.2932E+02
     17.307  0.1993E+01  0.2961E+02
     17.458  0.1890E+01  0.2990E+02
     17.609  0.1835E+01  0.3019E+02
     17.760  0.1574E+01  0.3045E+02
     17.911  0.1368E+01  0.3065E+02
     18.062  0.1999E+01  0.3090E+02
     18.213  0.2360E+01  0.3124E+02
     18.364  0.1964E+01  0.3156E+02
     18.515  0.1227E+01  0.3181E+02
     18.666  0.4776E+00  0.3193E+02
     18.817  0.1384E+00  0.3197E+02
     18.968  0.8244E-01  0.3199E+02
     19.119  0.4401E-01  0.3199E+02
     19.270  0.1533E-01  0.3200E+02
     19.421  0.1090E-02  0.3200E+02
     19.572  0.0000E+00  0.3200E+02
     19.722  0.0000E+00  0.3200E+02
     19.873  0.0000E+00  0.3200E+02
     20.024  0.0000E+00  0.3200E+02
     20.175  0.0000E+00  0.3200E+02
     20.326  0.0000E+00  0.3200E+02
     20.477  0.0000E+00  0.3200E+02
     20.628  0.0000E+00  0.3200E+02
     20.779  0.0000E+00  0.3200E+02
     20.930  0.0000E+00  0.3200E+02
     21.081  0.0000E+00  0.3200E+02
     21.232  0.0000E+00  0.3200E+02
     21.383  0.0000E+00  0.3200E+02
     21.534  0.0000E+00  0.3200E+02
