       N       E                     dE             d eps       ncg     rms          rms(c)
DAV:   1     0.121914022856E+03    0.12191E+03   -0.52027E+03  5600   0.434E+02
DAV:   2     0.201260053650E+01   -0.11990E+03   -0.10707E+03  5688   0.179E+02
DAV:   3    -0.687027954131E+01   -0.88829E+01   -0.87691E+01  6768   0.393E+01
DAV:   4    -0.697736975773E+01   -0.10709E+00   -0.10705E+00  6424   0.435E+00
DAV:   5    -0.697810906025E+01   -0.73930E-03   -0.73929E-03  6648   0.374E-01    0.215E+00
DAV:   6    -0.678228405577E+01    0.19583E+00   -0.14006E-01  6936   0.143E+00    0.153E+00
DAV:   7    -0.677149643262E+01    0.10788E-01   -0.48721E-02  7632   0.755E-01    0.115E+00
DAV:   8    -0.677737158442E+01   -0.58752E-02   -0.10933E-02  6184   0.414E-01    0.536E-01
DAV:   9    -0.677698742081E+01    0.38416E-03   -0.49493E-04  6520   0.791E-02    0.210E-01
DAV:  10    -0.677704363102E+01   -0.56210E-04   -0.86389E-05  6432   0.354E-02    0.172E-02
DAV:  11    -0.677705002924E+01   -0.63982E-05   -0.58109E-06  6664   0.799E-03    0.124E-02
DAV:  12    -0.677705010662E+01   -0.77384E-07   -0.35054E-07  6440   0.312E-03
   1 F= -.67770501E+01 E0= -.67770501E+01  d E =0.000000E+00
