unknown system                          
            1
     0.000000    2.834555    2.834555
     2.834555    0.000000    2.834555
     2.834555    2.834555    0.000000
   Na   Cl
     1     1
Direct configuration=     1
   0.50000000  0.50000000  0.50000000
   0.00000000  0.00000000  0.00000000
