unknown system                          
            1
    -1.614984    1.614984    1.614984
     1.614984   -1.614984    1.614984
     1.614984    1.614984   -1.614984
   Ti
     1
Direct configuration=     1
   0.00000000  0.00000000  0.00000000
unknown system                          
            1
    -1.618763    1.618763    1.618763
     1.618763   -1.618763    1.618763
     1.618763    1.618763   -1.618763
   Ti
     1
Direct configuration=     2
   0.00000000  0.00000000  0.00000000
unknown system                          
            1
    -1.627600    1.627600    1.627600
     1.627600   -1.627600    1.627600
     1.627600    1.627600   -1.627600
   Ti
     1
Direct configuration=     3
   0.00000000  0.00000000  0.00000000
