   2   2   0   0
  0.3630479E+02  0.4682772E-09  0.4682772E-09  0.4682772E-09  0.0000000E+00
  1.000000000000000E-004
  CAR 
 unknown system                          
     10.96500514     -7.56117792  301      2.86269477      1.00000000
     -7.561  0.0000E+00  0.0000E+00
     -7.499  0.0000E+00  0.0000E+00
     -7.438  0.0000E+00  0.0000E+00
     -7.376  0.0000E+00  0.0000E+00
     -7.314  0.0000E+00  0.0000E+00
     -7.252  0.0000E+00  0.0000E+00
     -7.191  0.0000E+00  0.0000E+00
     -7.129  0.0000E+00  0.0000E+00
     -7.067  0.0000E+00  0.0000E+00
     -7.005  0.0000E+00  0.0000E+00
     -6.944  0.0000E+00  0.0000E+00
     -6.882  0.0000E+00  0.0000E+00
     -6.820  0.0000E+00  0.0000E+00
     -6.758  0.0000E+00  0.0000E+00
     -6.697  0.1379E+00  0.1032E-02
     -6.635  0.2590E+00  0.1305E-01
     -6.573  0.3631E+00  0.3199E-01
     -6.511  0.4363E+00  0.5655E-01
     -6.450  0.5185E+00  0.8622E-01
     -6.388  0.5938E+00  0.1205E+00
     -6.326  0.6750E+00  0.1597E+00
     -6.264  0.7552E+00  0.2039E+00
     -6.203  0.8434E+00  0.2532E+00
     -6.141  0.9410E+00  0.3082E+00
     -6.079  0.1050E+01  0.3696E+00
     -6.017  0.1178E+01  0.4382E+00
     -5.956  0.1339E+01  0.5158E+00
     -5.894  0.1534E+01  0.6043E+00
     -5.832  0.1845E+01  0.7077E+00
     -5.770  0.2602E+01  0.8394E+00
     -5.709  0.2679E+01  0.1003E+01
     -5.647  0.2659E+01  0.1168E+01
     -5.585  0.2733E+01  0.1334E+01
     -5.523  0.2804E+01  0.1505E+01
     -5.462  0.3036E+01  0.1684E+01
     -5.400  0.3830E+01  0.1888E+01
     -5.338  0.0000E+00  0.2000E+01
     -5.276  0.0000E+00  0.2000E+01
     -5.215  0.0000E+00  0.2000E+01
     -5.153  0.0000E+00  0.2000E+01
     -5.091  0.0000E+00  0.2000E+01
     -5.029  0.0000E+00  0.2000E+01
     -4.968  0.0000E+00  0.2000E+01
     -4.906  0.0000E+00  0.2000E+01
     -4.844  0.0000E+00  0.2000E+01
     -4.782  0.0000E+00  0.2000E+01
     -4.720  0.0000E+00  0.2000E+01
     -4.659  0.0000E+00  0.2000E+01
     -4.597  0.0000E+00  0.2000E+01
     -4.535  0.0000E+00  0.2000E+01
     -4.473  0.0000E+00  0.2000E+01
     -4.412  0.0000E+00  0.2000E+01
     -4.350  0.0000E+00  0.2000E+01
     -4.288  0.0000E+00  0.2000E+01
     -4.226  0.0000E+00  0.2000E+01
     -4.165  0.0000E+00  0.2000E+01
     -4.103  0.0000E+00  0.2000E+01
     -4.041  0.0000E+00  0.2000E+01
     -3.979  0.0000E+00  0.2000E+01
     -3.918  0.0000E+00  0.2000E+01
     -3.856  0.0000E+00  0.2000E+01
     -3.794  0.0000E+00  0.2000E+01
     -3.732  0.0000E+00  0.2000E+01
     -3.671  0.0000E+00  0.2000E+01
     -3.609  0.0000E+00  0.2000E+01
     -3.547  0.0000E+00  0.2000E+01
     -3.485  0.0000E+00  0.2000E+01
     -3.424  0.0000E+00  0.2000E+01
     -3.362  0.0000E+00  0.2000E+01
     -3.300  0.0000E+00  0.2000E+01
     -3.238  0.0000E+00  0.2000E+01
     -3.177  0.0000E+00  0.2000E+01
     -3.115  0.0000E+00  0.2000E+01
     -3.053  0.0000E+00  0.2000E+01
     -2.991  0.0000E+00  0.2000E+01
     -2.930  0.0000E+00  0.2000E+01
     -2.868  0.0000E+00  0.2000E+01
     -2.806  0.0000E+00  0.2000E+01
     -2.744  0.0000E+00  0.2000E+01
     -2.683  0.0000E+00  0.2000E+01
     -2.621  0.0000E+00  0.2000E+01
     -2.559  0.0000E+00  0.2000E+01
     -2.497  0.0000E+00  0.2000E+01
     -2.436  0.0000E+00  0.2000E+01
     -2.374  0.0000E+00  0.2000E+01
     -2.312  0.0000E+00  0.2000E+01
     -2.250  0.0000E+00  0.2000E+01
     -2.189  0.0000E+00  0.2000E+01
     -2.127  0.0000E+00  0.2000E+01
     -2.065  0.0000E+00  0.2000E+01
     -2.003  0.0000E+00  0.2000E+01
     -1.942  0.0000E+00  0.2000E+01
     -1.880  0.7986E+00  0.2023E+01
     -1.818  0.1949E+01  0.2100E+01
     -1.756  0.2594E+01  0.2254E+01
     -1.695  0.4050E+01  0.2437E+01
     -1.633  0.3121E+01  0.2717E+01
     -1.571  0.2113E+01  0.2873E+01
     -1.509  0.1636E+01  0.2987E+01
     -1.448  0.1380E+01  0.3080E+01
     -1.386  0.1166E+01  0.3158E+01
     -1.324  0.1012E+01  0.3225E+01
     -1.262  0.9126E+00  0.3284E+01
     -1.201  0.8209E+00  0.3338E+01
     -1.139  0.7389E+00  0.3386E+01
     -1.077  0.6620E+00  0.3429E+01
     -1.015  0.6160E+00  0.3468E+01
     -0.954  0.5721E+00  0.3505E+01
     -0.892  0.5297E+00  0.3539E+01
     -0.830  0.4856E+00  0.3570E+01
     -0.768  0.4424E+00  0.3599E+01
     -0.706  0.4180E+00  0.3626E+01
     -0.645  0.3946E+00  0.3651E+01
     -0.583  0.3709E+00  0.3674E+01
     -0.521  0.3462E+00  0.3696E+01
     -0.459  0.3228E+00  0.3717E+01
     -0.398  0.2964E+00  0.3736E+01
     -0.336  0.2794E+00  0.3754E+01
     -0.274  0.2654E+00  0.3771E+01
     -0.212  0.2515E+00  0.3787E+01
     -0.151  0.2376E+00  0.3802E+01
     -0.089  0.2233E+00  0.3816E+01
     -0.027  0.2070E+00  0.3829E+01
      0.035  0.1924E+00  0.3842E+01
      0.096  0.1793E+00  0.3853E+01
      0.158  0.1711E+00  0.3864E+01
      0.220  0.1626E+00  0.3874E+01
      0.282  0.1534E+00  0.3884E+01
      0.343  0.1442E+00  0.3893E+01
      0.405  0.8531E+00  0.3921E+01
      0.467  0.1577E+01  0.3995E+01
      0.529  0.2224E+01  0.4122E+01
      0.590  0.1966E+01  0.4255E+01
      0.652  0.1745E+01  0.4369E+01
      0.714  0.1678E+01  0.4476E+01
      0.776  0.1603E+01  0.4577E+01
      0.837  0.1506E+01  0.4673E+01
      0.899  0.1601E+01  0.4767E+01
      0.961  0.1672E+01  0.4871E+01
      1.023  0.1799E+01  0.4977E+01
      1.084  0.1879E+01  0.5091E+01
      1.146  0.2241E+01  0.5219E+01
      1.208  0.2548E+01  0.5367E+01
      1.270  0.2428E+01  0.5521E+01
      1.331  0.2420E+01  0.5671E+01
      1.393  0.2395E+01  0.5820E+01
      1.455  0.2330E+01  0.5966E+01
      1.517  0.2324E+01  0.6109E+01
      1.578  0.2289E+01  0.6252E+01
      1.640  0.2235E+01  0.6391E+01
      1.702  0.2201E+01  0.6528E+01
      1.764  0.2174E+01  0.6664E+01
      1.825  0.2144E+01  0.6797E+01
      1.887  0.2123E+01  0.6928E+01
      1.949  0.2120E+01  0.7060E+01
      2.011  0.2079E+01  0.7189E+01
      2.072  0.2054E+01  0.7317E+01
      2.134  0.1989E+01  0.7443E+01
      2.196  0.1506E+01  0.7550E+01
      2.258  0.1239E+01  0.7634E+01
      2.319  0.1068E+01  0.7705E+01
      2.381  0.9135E+00  0.7766E+01
      2.443  0.7967E+00  0.7819E+01
      2.505  0.6903E+00  0.7865E+01
      2.566  0.5789E+00  0.7904E+01
      2.628  0.4870E+00  0.7937E+01
      2.690  0.3925E+00  0.7965E+01
      2.752  0.2651E+00  0.7985E+01
      2.813  0.1630E+00  0.7997E+01
      2.875  0.1246E-05  0.8000E+01
      2.937  0.8290E-04  0.8000E+01
      2.999  0.2922E-03  0.8000E+01
      3.061  0.6291E-03  0.8000E+01
      3.122  0.1094E-02  0.8000E+01
      3.184  0.1686E-02  0.8000E+01
      3.246  0.2406E-02  0.8000E+01
      3.308  0.3253E-02  0.8000E+01
      3.369  0.4228E-02  0.8001E+01
      3.431  0.5331E-02  0.8001E+01
      3.493  0.7519E-02  0.8001E+01
      3.555  0.1289E-01  0.8002E+01
      3.616  0.1759E-01  0.8003E+01
      3.678  0.3545E-01  0.8004E+01
      3.740  0.7654E-01  0.8008E+01
      3.802  0.1317E+00  0.8014E+01
      3.863  0.1998E+00  0.8024E+01
      3.925  0.2519E+00  0.8038E+01
      3.987  0.3146E+00  0.8056E+01
      4.049  0.3951E+00  0.8078E+01
      4.110  0.4652E+00  0.8104E+01
      4.172  0.5134E+00  0.8135E+01
      4.234  0.5211E+00  0.8167E+01
      4.296  0.5667E+00  0.8200E+01
      4.357  0.7870E+00  0.8241E+01
      4.419  0.9912E+00  0.8296E+01
      4.481  0.1180E+01  0.8363E+01
      4.543  0.1430E+01  0.8444E+01
      4.604  0.1628E+01  0.8539E+01
      4.666  0.1823E+01  0.8645E+01
      4.728  0.2213E+01  0.8768E+01
      4.790  0.2962E+01  0.8927E+01
      4.851  0.3092E+01  0.9117E+01
      4.913  0.2348E+01  0.9289E+01
      4.975  0.1994E+01  0.9421E+01
      5.037  0.1730E+01  0.9537E+01
      5.098  0.1461E+01  0.9634E+01
      5.160  0.1300E+01  0.9720E+01
      5.222  0.1211E+01  0.9797E+01
      5.284  0.1121E+01  0.9869E+01
      5.345  0.9780E+00  0.9934E+01
      5.407  0.1180E+01  0.9997E+01
      5.469  0.1220E+01  0.1008E+02
      5.531  0.1272E+01  0.1016E+02
      5.592  0.1125E+01  0.1023E+02
      5.654  0.1080E+01  0.1030E+02
      5.716  0.1120E+01  0.1037E+02
      5.778  0.1209E+01  0.1044E+02
      5.839  0.1214E+01  0.1051E+02
      5.901  0.1164E+01  0.1059E+02
      5.963  0.1170E+01  0.1066E+02
      6.025  0.1190E+01  0.1073E+02
      6.086  0.1208E+01  0.1081E+02
      6.148  0.1329E+01  0.1088E+02
      6.210  0.1539E+01  0.1097E+02
      6.272  0.1869E+01  0.1107E+02
      6.333  0.3063E+01  0.1123E+02
      6.395  0.3138E+01  0.1143E+02
      6.457  0.2654E+01  0.1162E+02
      6.519  0.1926E+01  0.1176E+02
      6.580  0.1961E+01  0.1188E+02
      6.642  0.1771E+01  0.1199E+02
      6.704  0.1635E+01  0.1210E+02
      6.766  0.1507E+01  0.1220E+02
      6.827  0.1389E+01  0.1229E+02
      6.889  0.1357E+01  0.1237E+02
      6.951  0.1376E+01  0.1245E+02
      7.013  0.1635E+01  0.1255E+02
      7.075  0.1940E+01  0.1266E+02
      7.136  0.2358E+01  0.1279E+02
      7.198  0.2497E+01  0.1294E+02
      7.260  0.2404E+01  0.1309E+02
      7.322  0.2187E+01  0.1324E+02
      7.383  0.2088E+01  0.1337E+02
      7.445  0.2039E+01  0.1350E+02
      7.507  0.2032E+01  0.1362E+02
      7.569  0.1932E+01  0.1375E+02
      7.630  0.1725E+01  0.1386E+02
      7.692  0.1514E+01  0.1396E+02
      7.754  0.1429E+01  0.1405E+02
      7.816  0.1403E+01  0.1414E+02
      7.877  0.1301E+01  0.1422E+02
      7.939  0.1395E+01  0.1430E+02
      8.001  0.1254E+01  0.1438E+02
      8.063  0.1232E+01  0.1446E+02
      8.124  0.1236E+01  0.1454E+02
      8.186  0.1314E+01  0.1461E+02
      8.248  0.1528E+01  0.1470E+02
      8.310  0.1872E+01  0.1481E+02
      8.371  0.2208E+01  0.1494E+02
      8.433  0.1634E+01  0.1505E+02
      8.495  0.1362E+01  0.1515E+02
      8.557  0.1184E+01  0.1522E+02
      8.618  0.1100E+01  0.1530E+02
      8.680  0.1034E+01  0.1536E+02
      8.742  0.9665E+00  0.1542E+02
      8.804  0.9027E+00  0.1548E+02
      8.865  0.8339E+00  0.1553E+02
      8.927  0.7878E+00  0.1558E+02
      8.989  0.7464E+00  0.1563E+02
      9.051  0.7065E+00  0.1568E+02
      9.112  0.6683E+00  0.1572E+02
      9.174  0.6288E+00  0.1576E+02
      9.236  0.7604E+00  0.1580E+02
      9.298  0.4997E+00  0.1584E+02
      9.359  0.3233E+00  0.1586E+02
      9.421  0.2991E+00  0.1588E+02
      9.483  0.2777E+00  0.1590E+02
      9.545  0.2544E+00  0.1592E+02
      9.606  0.2357E+00  0.1593E+02
      9.668  0.2069E+00  0.1595E+02
      9.730  0.1909E+00  0.1596E+02
      9.792  0.1615E+00  0.1597E+02
      9.853  0.1269E+00  0.1598E+02
      9.915  0.9861E-01  0.1599E+02
      9.977  0.7659E-01  0.1599E+02
     10.039  0.6829E-01  0.1600E+02
     10.100  0.5723E-01  0.1600E+02
     10.162  0.0000E+00  0.1600E+02
     10.224  0.0000E+00  0.1600E+02
     10.286  0.0000E+00  0.1600E+02
     10.347  0.0000E+00  0.1600E+02
     10.409  0.0000E+00  0.1600E+02
     10.471  0.0000E+00  0.1600E+02
     10.533  0.0000E+00  0.1600E+02
     10.594  0.0000E+00  0.1600E+02
     10.656  0.0000E+00  0.1600E+02
     10.718  0.0000E+00  0.1600E+02
     10.780  0.0000E+00  0.1600E+02
     10.841  0.0000E+00  0.1600E+02
     10.903  0.0000E+00  0.1600E+02
     10.965  0.0000E+00  0.1600E+02
