    2    2    1    1
  0.3630479E+02  0.4682772E-09  0.4682772E-09  0.4682772E-09  0.0000000E+00
  1.000000000000000E-004
  CAR 
 unknown system                          
      8    165      8
 
  0.0000000E+00  0.0000000E+00  0.0000000E+00  0.2035416E-03
    1       -6.719079   1.000000
    2        2.857212   1.000000
    3        2.857212   1.000000
    4        2.857212   1.000000
    5        2.866608   0.000000
    6        5.802894   0.000000
    7        5.802894   0.000000
    8        5.802894   0.000000
 
  0.5882353E-01  0.0000000E+00  0.0000000E+00  0.1628333E-02
    1       -6.695337   1.000000
    2        2.145026   1.000000
    3        2.822903   1.000000
    4        2.822903   1.000000
    5        3.479658   0.000000
    6        5.850315   0.000000
    7        5.858372   0.000000
    8        5.858372   0.000000
 
  0.1176471E+00  0.0000000E+00  0.0000000E+00  0.1628333E-02
    1       -6.625210   1.000000
    2        1.402936   1.000000
    3        2.731181   1.000000
    4        2.731181   1.000000
    5        3.880334   0.000000
    6        6.005245   0.000000
    7        6.005245   0.000000
    8        6.071215   0.000000
 
  0.1764706E+00  0.0000000E+00  0.0000000E+00  0.1628333E-02
    1       -6.512506   1.000000
    2        0.677143   1.000000
    3        2.607095   1.000000
    4        2.607095   1.000000
    5        4.007151   0.000000
    6        6.193459   0.000000
    7        6.193460   0.000000
    8        6.550094   0.000000
 
  0.2352941E+00  0.0000000E+00  0.0000000E+00  0.1628333E-02
    1       -6.364443   1.000000
    2       -0.003428   1.000000
    3        2.475500   1.000000
    4        2.475500   1.000000
    5        3.961329   0.000000
    6        6.361955   0.000000
    7        6.361956   0.000000
    8        7.216928   0.000000
 
  0.2941176E+00  0.0000000E+00  0.0000000E+00  0.1628333E-02
    1       -6.193301   1.000000
    2       -0.612871   1.000000
    3        2.354699   1.000000
    4        2.354699   1.000000
    5        3.857361   0.000000
    6        6.466512   0.000000
    7        6.466512   0.000000
    8        7.968997   0.000000
 
  0.3529412E+00  0.0000000E+00  0.0000000E+00  0.1628333E-02
    1       -6.018804   1.000000
    2       -1.122591   1.000000
    3        2.256458   1.000000
    4        2.256459   1.000000
    5        3.753775   0.000000
    6        6.504137   0.000000
    7        6.504137   0.000000
    8        8.708152   0.000000
 
  0.4117647E+00  0.0000000E+00  0.0000000E+00  0.1628333E-02
    1       -5.869953   1.000000
    2       -1.497774   1.000000
    3        2.187796   1.000000
    4        2.187796   1.000000
    5        3.676010   0.000000
    6        6.503338   0.000000
    7        6.503338   0.000000
    8        9.176203   0.000000
 
  0.4705882E+00  0.0000000E+00  0.0000000E+00  0.1628333E-02
    1       -5.782022   1.000000
    2       -1.699712   1.000000
    3        2.152605   1.000000
    4        2.152605   1.000000
    5        3.635044   0.000000
    6        6.494606   0.000000
    7        6.494606   0.000000
    8        9.266516   0.000000
 
  0.5882353E-01  0.5882353E-01  0.0000000E+00  0.1221250E-02
    1       -6.687394   1.000000
    2        2.077002   1.000000
    3        2.753923   1.000000
    4        2.753923   1.000000
    5        3.643325   0.000000
    6        5.696323   0.000000
    7        5.956609   0.000000
    8        5.956609   0.000000
 
  0.1176471E+00  0.5882353E-01  0.0000000E+00  0.4884999E-02
    1       -6.632639   1.000000
    2        1.522339   1.000000
    3        2.636705   1.000000
    4        2.677056   1.000000
    5        4.019802   0.000000
    6        5.669335   0.000000
    7        6.140218   0.000000
    8        6.169285   0.000000
 
  0.1764706E+00  0.5882353E-01  0.0000000E+00  0.4884999E-02
    1       -6.533950   1.000000
    2        0.849880   1.000000
    3        2.498929   1.000000
    4        2.571641   1.000000
    5        4.221134   0.000000
    6        5.799119   0.000000
    7        6.357969   0.000000
    8        6.538935   0.000000
 
  0.2352941E+00  0.5882353E-01  0.0000000E+00  0.4884999E-02
    1       -6.397241   1.000000
    2        0.181960   1.000000
    3        2.364166   1.000000
    4        2.430995   1.000000
    5        4.226436   0.000000
    6        6.021873   0.000000
    7        6.548927   0.000000
    8        7.050399   0.000000
 
  0.2941176E+00  0.5882353E-01  0.0000000E+00  0.4884999E-02
    1       -6.232905   1.000000
    2       -0.436211   1.000000
    3        2.248600   1.000000
    4        2.280794   1.000000
    5        4.141689   0.000000
    6        6.218026   0.000000
    7        6.664250   0.000000
    8        7.645011   0.000000
 
  0.3529412E+00  0.5882353E-01  0.0000000E+00  0.4884999E-02
    1       -6.057855   1.000000
    2       -0.971289   1.000000
    3        2.141833   1.000000
    4        2.162133   1.000000
    5        4.040238   0.000000
    6        6.333323   0.000000
    7        6.694466   0.000000
    8        8.272859   0.000000
 
  0.4117647E+00  0.5882353E-01  0.0000000E+00  0.4884999E-02
    1       -5.897815   1.000000
    2       -1.388226   1.000000
    3        2.027426   1.000000
    4        2.110241   1.000000
    5        3.955358   0.000000
    6        6.386472   0.000000
    7        6.667920   0.000000
    8        8.863259   0.000000
 
  0.4705882E+00  0.5882353E-01  0.0000000E+00  0.4884999E-02
    1       -5.786684   1.000000
    2       -1.647784   1.000000
    3        1.945643   1.000000
    4        2.095357   1.000000
    5        3.901648   0.000000
    6        6.417704   0.000000
    7        6.620621   0.000000
    8        9.226753   0.000000
 
 -0.4705882E+00  0.5882353E-01  0.0000000E+00  0.4884999E-02
    1       -5.756105   1.000000
    2       -1.715488   1.000000
    3        1.901293   1.000000
    4        2.117676   1.000000
    5        3.885286   0.000000
    6        6.453764   0.000000
    7        6.575865   0.000000
    8        9.311300   0.000000
 
 -0.4117647E+00  0.5882353E-01  0.0000000E+00  0.4884999E-02
    1       -5.816310   1.000000
    2       -1.580549   1.000000
    3        1.897070   1.000000
    4        2.175511   1.000000
    5        3.907750   0.000000
    6        6.501359   0.000000
    7        6.539933   0.000000
    8        9.205974   0.000000
 
 -0.3529412E+00  0.5882353E-01  0.0000000E+00  0.4884999E-02
    1       -5.947838   1.000000
    2       -1.263809   1.000000
    3        1.934038   1.000000
    4        2.265224   1.000000
    5        3.966448   0.000000
    6        6.502373   0.000000
    7        6.547146   0.000000
    8        8.766389   0.000000
 
 -0.2941176E+00  0.5882353E-01  0.0000000E+00  0.4884999E-02
    1       -6.116353   1.000000
    2       -0.803399   1.000000
    3        2.011678   1.000000
    4        2.380704   1.000000
    5        4.052940   0.000000
    6        6.438463   0.000000
    7        6.554884   0.000000
    8        8.110107   0.000000
 
 -0.2352941E+00  0.5882353E-01  0.0000000E+00  0.4884999E-02
    1       -6.290203   1.000000
    2       -0.237995   1.000000
    3        2.127568   1.000000
    4        2.512268   1.000000
    5        4.146980   0.000000
    6        6.322819   0.000000
    7        6.466558   0.000000
    8        7.458164   0.000000
 
 -0.1764706E+00  0.5882353E-01  0.0000000E+00  0.4884999E-02
    1       -6.446768   1.000000
    2        0.397486   1.000000
    3        2.276843   1.000000
    4        2.645028   1.000000
    5        4.201631   0.000000
    6        6.157936   0.000000
    7        6.242069   0.000000
    8        6.906293   0.000000
 
 -0.1176471E+00  0.5882353E-01  0.0000000E+00  0.4884999E-02
    1       -6.571639   1.000000
    2        1.065132   1.000000
    3        2.452172   1.000000
    4        2.757525   1.000000
    5        4.122615   0.000000
    6        5.972546   0.000000
    7        5.987396   0.000000
    8        6.472621   0.000000
 
 -0.5882353E-01  0.5882353E-01  0.0000000E+00  0.2442499E-02
    1       -6.656078   1.000000
    2        1.701511   1.000000
    3        2.646588   1.000000
    4        2.823708   1.000000
    5        3.827226   0.000000
    6        5.837803   0.000000
    7        5.872187   0.000000
    8        6.121980   0.000000
 
  0.1176471E+00  0.1176471E+00  0.0000000E+00  0.1221250E-02
    1       -6.593549   1.000000
    2        1.313627   1.000000
    3        2.499669   1.000000
    4        2.499669   1.000000
    5        4.356793   0.000000
    6        5.462999   0.000000
    7        6.360950   0.000000
    8        6.360950   0.000000
 
  0.1764706E+00  0.1176471E+00  0.0000000E+00  0.4884999E-02
    1       -6.509934   1.000000
    2        0.836439   1.000000
    3        2.349169   1.000000
    4        2.361568   1.000000
    5        4.600370   0.000000
    6        5.435092   0.000000
    7        6.616597   0.000000
    8        6.669493   0.000000
 
  0.2352941E+00  0.1176471E+00  0.0000000E+00  0.4884999E-02
    1       -6.386647   1.000000
    2        0.261421   1.000000
    3        2.200802   1.000000
    4        2.208166   1.000000
    5        4.676898   0.000000
    6        5.584897   0.000000
    7        6.846586   0.000000
    8        7.030413   0.000000
 
  0.2941176E+00  0.1176471E+00  0.0000000E+00  0.4884999E-02
    1       -6.232430   1.000000
    2       -0.315081   1.000000
    3        2.014920   1.000000
    4        2.091938   1.000000
    5        4.630498   0.000000
    6        5.848590   0.000000
    7        6.995207   0.000000
    8        7.335811   0.000000
 
  0.3529412E+00  0.1176471E+00  0.0000000E+00  0.4884999E-02
    1       -6.061720   1.000000
    2       -0.840556   1.000000
    3        1.829891   1.000000
    4        2.009675   1.000000
    5        4.540811   0.000000
    6        6.092355   0.000000
    7        7.040886   0.000000
    8        7.656004   0.000000
 
  0.4117647E+00  0.1176471E+00  0.0000000E+00  0.4884999E-02
    1       -5.896905   1.000000
    2       -1.273433   1.000000
    3        1.666711   1.000000
    4        1.966356   1.000000
    5        4.453689   0.000000
    6        6.238370   0.000000
    7        7.007090   0.000000
    8        8.112492   0.000000
 
  0.4705882E+00  0.1176471E+00  0.0000000E+00  0.4884999E-02
    1       -5.769016   1.000000
    2       -1.572159   1.000000
    3        1.538361   1.000000
    4        1.963906   1.000000
    5        4.390022   0.000000
    6        6.315968   0.000000
    7        6.934217   0.000000
    8        8.676060   0.000000
 
 -0.4705882E+00  0.1176471E+00  0.0000000E+00  0.4884999E-02
    1       -5.711201   1.000000
    2       -1.698118   1.000000
    3        1.452799   1.000000
    4        2.001853   1.000000
    5        4.358987   0.000000
    6        6.378289   0.000000
    7        6.852298   0.000000
    8        9.165747   0.000000
 
 -0.4117647E+00  0.1176471E+00  0.0000000E+00  0.4884999E-02
    1       -5.741862   1.000000
    2       -1.631176   1.000000
    3        1.415320   1.000000
    4        2.077541   1.000000
    5        4.363341   0.000000
    6        6.450737   0.000000
    7        6.773389   0.000000
    8        9.185747   0.000000
 
 -0.3529412E+00  0.1176471E+00  0.0000000E+00  0.4884999E-02
    1       -5.850896   1.000000
    2       -1.383102   1.000000
    3        1.430022   1.000000
    4        2.185892   1.000000
    5        4.400684   0.000000
    6        6.530023   0.000000
    7        6.691872   0.000000
    8        8.677804   0.000000
 
 -0.2941176E+00  0.1176471E+00  0.0000000E+00  0.4884999E-02
    1       -6.007663   1.000000
    2       -0.990361   1.000000
    3        1.500829   1.000000
    4        2.318741   1.000000
    5        4.461802   0.000000
    6        6.578888   0.000000
    7        6.587475   0.000000
    8        8.053483   0.000000
 
 -0.2352941E+00  0.1176471E+00  0.0000000E+00  0.4884999E-02
    1       -6.179264   1.000000
    2       -0.497689   1.000000
    3        1.632605   1.000000
    4        2.463600   1.000000
    5        4.524159   0.000000
    6        6.439406   0.000000
    7        6.507119   0.000000
    8        7.539469   0.000000
 
 -0.1764706E+00  0.1176471E+00  0.0000000E+00  0.4884999E-02
    1       -6.340539   1.000000
    2        0.047731   1.000000
    3        1.832550   1.000000
    4        2.602010   1.000000
    5        4.536106   0.000000
    6        6.255574   0.000000
    7        6.261638   0.000000
    8        7.202848   0.000000
 
 -0.1176471E+00  0.1176471E+00  0.0000000E+00  0.2442499E-02
    1       -6.474756   1.000000
    2        0.590850   1.000000
    3        2.109314   1.000000
    4        2.709011   1.000000
    5        4.409401   0.000000
    6        6.030709   0.000000
    7        6.084367   0.000000
    8        6.881620   0.000000
 
  0.1764706E+00  0.1764706E+00  0.0000000E+00  0.1221250E-02
    1       -6.441696   1.000000
    2        0.584935   1.000000
    3        2.188222   1.000000
    4        2.188223   1.000000
    5        4.768212   0.000000
    6        5.345124   0.000000
    7        6.918770   0.000000
    8        6.918770   0.000000
 
  0.2352941E+00  0.1764706E+00  0.0000000E+00  0.4884999E-02
    1       -6.333158   1.000000
    2        0.167449   1.000000
    3        2.017721   1.000000
    4        2.039380   1.000000
    5        4.808368   0.000000
    6        5.411428   0.000000
    7        7.202839   0.000000
    8        7.204257   0.000000
 
  0.2941176E+00  0.1764706E+00  0.0000000E+00  0.4884999E-02
    1       -6.191678   1.000000
    2       -0.311646   1.000000
    3        1.805439   1.000000
    4        1.918042   1.000000
    5        4.853164   0.000000
    6        5.559005   0.000000
    7        7.306854   0.000000
    8        7.410044   0.000000
 
  0.3529412E+00  0.1764706E+00  0.0000000E+00  0.4884999E-02
    1       -6.029651   1.000000
    2       -0.782268   1.000000
    3        1.572617   1.000000
    4        1.833538   1.000000
    5        4.835006   0.000000
    6        5.852743   0.000000
    7        7.323329   0.000000
    8        7.497554   0.000000
 
  0.4117647E+00  0.1764706E+00  0.0000000E+00  0.4884999E-02
    1       -5.866377   1.000000
    2       -1.194284   1.000000
    3        1.353156   1.000000
    4        1.790952   1.000000
    5        4.779624   0.000000
    6        6.176429   0.000000
    7        7.464735   0.000000
    8        7.478811   0.000000
 
  0.4705882E+00  0.1764706E+00  0.0000000E+00  0.4884999E-02
    1       -5.729415   1.000000
    2       -1.502844   1.000000
    3        1.169932   1.000000
    4        1.792294   1.000000
    5        4.731448   0.000000
    6        6.378974   0.000000
    7        7.396615   0.000000
    8        7.865520   0.000000
 
 -0.4705882E+00  0.1764706E+00  0.0000000E+00  0.4884999E-02
    1       -5.650744   1.000000
    2       -1.666553   1.000000
    3        1.036470   1.000000
    4        1.837069   1.000000
    5        4.710020   0.000000
    6        6.477959   0.000000
    7        7.288285   0.000000
    8        8.461646   0.000000
 
 -0.4117647E+00  0.1764706E+00  0.0000000E+00  0.4884999E-02
    1       -5.653616   1.000000
    2       -1.658740   1.000000
    3        0.961910   1.000000
    4        1.922388   1.000000
    5        4.720195   0.000000
    6        6.554171   0.000000
    7        7.171342   0.000000
    8        8.950605   0.000000
 
 -0.3529412E+00  0.1764706E+00  0.0000000E+00  0.4884999E-02
    1       -5.736995   1.000000
    2       -1.482765   1.000000
    3        0.954492   1.000000
    4        2.042577   1.000000
    5        4.757462   0.000000
    6        6.639570   0.000000
    7        7.042916   0.000000
    8        8.569582   0.000000
 
 -0.2941176E+00  0.1764706E+00  0.0000000E+00  0.4884999E-02
    1       -5.876405   1.000000
    2       -1.172341   1.000000
    3        1.024237   1.000000
    4        2.188371   1.000000
    5        4.806771   0.000000
    6        6.716619   0.000000
    7        6.884354   0.000000
    8        7.926761   0.000000
 
 -0.2352941E+00  0.1764706E+00  0.0000000E+00  0.4884999E-02
    1       -6.040017   1.000000
    2       -0.777774   1.000000
    3        1.184989   1.000000
    4        2.345416   1.000000
    5        4.833590   0.000000
    6        6.677942   0.000000
    7        6.680199   0.000000
    8        7.460860   0.000000
 
 -0.1764706E+00  0.1764706E+00  0.0000000E+00  0.2442499E-02
    1       -6.200958   1.000000
    2       -0.354430   1.000000
    3        1.453022   1.000000
    4        2.492606   1.000000
    5        4.767771   0.000000
    6        6.436851   0.000000
    7        6.450802   0.000000
    8        7.314697   0.000000
 
  0.2352941E+00  0.2352941E+00  0.0000000E+00  0.1221250E-02
    1       -6.239855   1.000000
    2       -0.098217   1.000000
    3        1.882327   1.000000
    4        1.882327   1.000000
    5        4.662696   0.000000
    6        5.443249   0.000000
    7        7.562448   0.000000
    8        7.562449   0.000000
 
  0.2941176E+00  0.2352941E+00  0.0000000E+00  0.4884999E-02
    1       -6.113061   1.000000
    2       -0.460316   1.000000
    3        1.702188   1.000000
    4        1.753270   1.000000
    5        4.651822   0.000000
    6        5.438246   0.000000
    7        7.712717   0.000000
    8        7.852206   0.000000
 
  0.3529412E+00  0.2352941E+00  0.0000000E+00  0.4884999E-02
    1       -5.963493   1.000000
    2       -0.845600   1.000000
    3        1.455178   1.000000
    4        1.662193   1.000000
    5        4.737582   0.000000
    6        5.541822   0.000000
    7        7.625298   0.000000
    8        8.014034   0.000000
 
  0.4117647E+00  0.2352941E+00  0.0000000E+00  0.4884999E-02
    1       -5.807892   1.000000
    2       -1.201501   1.000000
    3        1.185995   1.000000
    4        1.614665   1.000000
    5        4.772214   0.000000
    6        5.882990   0.000000
    7        7.525417   0.000000
    8        8.038353   0.000000
 
  0.4705882E+00  0.2352941E+00  0.0000000E+00  0.4884999E-02
    1       -5.670337   1.000000
    2       -1.484478   1.000000
    3        0.940523   1.000000
    4        1.613088   1.000000
    5        4.767839   0.000000
    6        6.369711   0.000000
    7        7.514349   0.000000
    8        7.965706   0.000000
 
 -0.4705882E+00  0.2352941E+00  0.0000000E+00  0.4884999E-02
    1       -5.579845   1.000000
    2       -1.655063   1.000000
    3        0.747875   1.000000
    4        1.657286   1.000000
    5        4.776014   0.000000
    6        6.771667   0.000000
    7        7.749418   0.000000
    8        7.841691   0.000000
 
 -0.4117647E+00  0.2352941E+00  0.0000000E+00  0.4884999E-02
    1       -5.560827   1.000000
    2       -1.685640   1.000000
    3        0.626530   1.000000
    4        1.744598   1.000000
    5        4.813604   0.000000
    6        6.943961   0.000000
    7        7.689485   0.000000
    8        8.293233   0.000000
 
 -0.3529412E+00  0.2352941E+00  0.0000000E+00  0.4884999E-02
    1       -5.618724   1.000000
    2       -1.575062   1.000000
    3        0.592016   1.000000
    4        1.869434   1.000000
    5        4.876200   0.000000
    6        7.031531   0.000000
    7        7.506184   0.000000
    8        8.433387   0.000000
 
 -0.2941176E+00  0.2352941E+00  0.0000000E+00  0.4884999E-02
    1       -5.736470   1.000000
    2       -1.353913   1.000000
    3        0.661839   1.000000
    4        2.022350   1.000000
    5        4.941205   0.000000
    6        7.114112   0.000000
    7        7.271916   0.000000
    8        7.806943   0.000000
 
 -0.2352941E+00  0.2352941E+00  0.0000000E+00  0.2442499E-02
    1       -5.885770   1.000000
    2       -1.072162   1.000000
    3        0.855654   1.000000
    4        2.188428   1.000000
    5        4.956930   0.000000
    6        6.982005   0.000000
    7        7.038157   0.000000
    8        7.388702   0.000000
 
  0.2941176E+00  0.2941176E+00  0.0000000E+00  0.1221250E-02
    1       -6.002055   1.000000
    2       -0.721345   1.000000
    3        1.615324   1.000000
    4        1.615325   1.000000
    5        4.469497   0.000000
    6        5.304389   0.000000
    7        8.251834   0.000000
    8        8.251836   0.000000
 
  0.3529412E+00  0.2941176E+00  0.0000000E+00  0.4884999E-02
    1       -5.868151   1.000000
    2       -1.024557   1.000000
    3        1.441076   1.000000
    4        1.515184   1.000000
    5        4.484984   0.000000
    6        5.224893   0.000000
    7        8.320817   0.000000
    8        8.528850   0.000000
 
  0.4117647E+00  0.2941176E+00  0.0000000E+00  0.4884999E-02
    1       -5.726176   1.000000
    2       -1.314093   1.000000
    3        1.178267   1.000000
    4        1.459153   1.000000
    5        4.593670   0.000000
    6        5.349931   0.000000
    7        8.195785   0.000000
    8        8.636341   0.000000
 
  0.4705882E+00  0.2941176E+00  0.0000000E+00  0.4884999E-02
    1       -5.597022   1.000000
    2       -1.548923   1.000000
    3        0.891358   1.000000
    4        1.450204   1.000000
    5        4.644531   0.000000
    6        5.774670   0.000000
    7        8.070366   0.000000
    8        8.598827   0.000000
 
 -0.4705882E+00  0.2941176E+00  0.0000000E+00  0.4884999E-02
    1       -5.505944   1.000000
    2       -1.696551   1.000000
    3        0.639170   1.000000
    4        1.488660   1.000000
    5        4.676711   0.000000
    6        6.391082   0.000000
    7        7.986150   0.000000
    8        8.469713   0.000000
 
 -0.4117647E+00  0.2941176E+00  0.0000000E+00  0.4884999E-02
    1       -5.475112   1.000000
    2       -1.736458   1.000000
    3        0.461666   1.000000
    4        1.572314   1.000000
    5        4.733902   0.000000
    6        7.061113   0.000000
    7        7.990297   0.000000
    8        8.278358   0.000000
 
 -0.3529412E+00  0.2941176E+00  0.0000000E+00  0.4884999E-02
    1       -5.512522   1.000000
    2       -1.671032   1.000000
    3        0.389215   1.000000
    4        1.696049   1.000000
    5        4.819166   0.000000
    6        7.527178   0.000000
    7        8.018772   0.000000
    8        8.145789   0.000000
 
 -0.2941176E+00  0.2941176E+00  0.0000000E+00  0.2442499E-02
    1       -5.607202   1.000000
    2       -1.529646   1.000000
    3        0.449271   1.000000
    4        1.850892   1.000000
    5        4.908858   0.000000
    6        7.648297   0.000000
    7        7.674514   0.000000
    8        7.772883   0.000000
 
  0.3529412E+00  0.3529412E+00  0.0000000E+00  0.1221250E-02
    1       -5.752392   1.000000
    2       -1.260410   1.000000
    3        1.404794   1.000000
    4        1.404794   1.000000
    5        4.332689   0.000000
    6        5.005040   0.000000
    7        8.956221   0.000000
    8        8.956247   0.000000
 
  0.4117647E+00  0.3529412E+00  0.0000000E+00  0.4884999E-02
    1       -5.629633   1.000000
    2       -1.492481   1.000000
    3        1.247735   1.000000
    4        1.338256   1.000000
    5        4.384781   0.000000
    6        4.930136   0.000000
    7        9.013644   0.000000
    8        9.202633   0.000000
 
  0.4705882E+00  0.3529412E+00  0.0000000E+00  0.4884999E-02
    1       -5.518210   1.000000
    2       -1.677415   1.000000
    3        0.988281   1.000000
    4        1.319235   1.000000
    5        4.494506   0.000000
    6        5.137168   0.000000
    7        8.887815   0.000000
    8        9.241291   0.000000
 
 -0.4705882E+00  0.3529412E+00  0.0000000E+00  0.4884999E-02
    1       -5.439218   1.000000
    2       -1.787214   1.000000
    3        0.708203   1.000000
    4        1.348631   1.000000
    5        4.548303   0.000000
    6        5.659262   0.000000
    7        8.752907   0.000000
    8        9.119687   0.000000
 
 -0.4117647E+00  0.3529412E+00  0.0000000E+00  0.4884999E-02
    1       -5.410193   1.000000
    2       -1.810913   1.000000
    3        0.480268   1.000000
    4        1.424826   1.000000
    5        4.613891   0.000000
    6        6.352400   0.000000
    7        8.623408   0.000000
    8        8.873377   0.000000
 
 -0.3529412E+00  0.3529412E+00  0.0000000E+00  0.2442499E-02
    1       -5.437301   1.000000
    2       -1.760929   1.000000
    3        0.359486   1.000000
    4        1.543354   1.000000
    5        4.710789   0.000000
    6        7.111051   0.000000
    7        8.403848   0.000000
    8        8.499820   0.000000
 
  0.4117647E+00  0.4117647E+00  0.0000000E+00  0.1221250E-02
    1       -5.530887   1.000000
    2       -1.675240   1.000000
    3        1.260277   1.000000
    4        1.260277   1.000000
    5        4.280136   0.000000
    6        4.703830   0.000000
    7        9.627292   0.000000
    8        9.627365   0.000000
 
  0.4705882E+00  0.4117647E+00  0.0000000E+00  0.4884999E-02
    1       -5.446118   1.000000
    2       -1.814254   1.000000
    3        1.129347   1.000000
    4        1.229687   1.000000
    5        4.366225   0.000000
    6        4.677479   0.000000
    7        9.681352   0.000000
    8        9.799791   0.000000
 
 -0.4705882E+00  0.4117647E+00  0.0000000E+00  0.4884999E-02
    1       -5.391921   1.000000
    2       -1.881902   1.000000
    3        0.891899   1.000000
    4        1.248029   1.000000
    5        4.448563   0.000000
    6        5.008677   0.000000
    7        9.526265   0.000000
    8        9.704917   0.000000
 
 -0.4117647E+00  0.4117647E+00  0.0000000E+00  0.2442499E-02
    1       -5.379563   1.000000
    2       -1.873502   1.000000
    3        0.646203   1.000000
    4        1.314323   1.000000
    5        4.513720   0.000000
    6        5.614939   0.000000
    7        9.226275   0.000000
    8        9.380318   0.000000
 
  0.4705882E+00  0.4705882E+00  0.0000000E+00  0.1221250E-02
    1       -5.394664   1.000000
    2       -1.908304   1.000000
    3        1.186899   1.000000
    4        1.186900   1.000000
    5        4.319842   0.000000
    6        4.473410   0.000000
    7       10.122904   0.000000
    8       10.122906   0.000000
 
 -0.4705882E+00  0.4705882E+00  0.0000000E+00  0.2442499E-02
    1       -5.375293   1.000000
    2       -1.931278   1.000000
    3        1.089517   1.000000
    4        1.193122   1.000000
    5        4.395614   0.000000
    6        4.553260   0.000000
    7       10.034389   0.000000
    8       10.084688   0.000000
 
  0.1764706E+00  0.1176471E+00  0.5882353E-01  0.4884999E-02
    1       -6.563498   1.000000
    2        1.072918   1.000000
    3        2.384758   1.000000
    4        2.636571   1.000000
    5        4.327231   0.000000
    6        5.620453   0.000000
    7        6.273819   0.000000
    8        6.526343   0.000000
 
  0.2352941E+00  0.1176471E+00  0.5882353E-01  0.9769998E-02
    1       -6.452423   1.000000
    2        0.499919   1.000000
    3        2.146047   1.000000
    4        2.554315   1.000000
    5        4.498995   0.000000
    6        5.735099   0.000000
    7        6.485175   0.000000
    8        6.904116   0.000000
 
  0.2941176E+00  0.1176471E+00  0.5882353E-01  0.9769998E-02
    1       -6.306701   1.000000
    2       -0.095853   1.000000
    3        1.950914   1.000000
    4        2.431172   1.000000
    5        4.504278   0.000000
    6        5.969853   0.000000
    7        6.700545   0.000000
    8        7.266203   0.000000
 
  0.3529412E+00  0.1176471E+00  0.5882353E-01  0.9769998E-02
    1       -6.138541   1.000000
    2       -0.654593   1.000000
    3        1.798481   1.000000
    4        2.297473   1.000000
    5        4.431552   0.000000
    6        6.189083   0.000000
    7        6.813655   0.000000
    8        7.683385   0.000000
 
  0.4117647E+00  0.1176471E+00  0.5882353E-01  0.9769998E-02
    1       -5.967473   1.000000
    2       -1.132594   1.000000
    3        1.687394   1.000000
    4        2.177720   1.000000
    5        4.346866   0.000000
    6        6.313585   0.000000
    7        6.826532   0.000000
    8        8.206654   0.000000
 
  0.4705882E+00  0.1176471E+00  0.5882353E-01  0.9769998E-02
    1       -5.821933   1.000000
    2       -1.488391   1.000000
    3        1.615654   1.000000
    4        2.088741   1.000000
    5        4.280154   0.000000
    6        6.360130   0.000000
    7        6.799998   0.000000
    8        8.782099   0.000000
 
 -0.4705882E+00  0.1176471E+00  0.5882353E-01  0.9769998E-02
    1       -5.736153   1.000000
    2       -1.680845   1.000000
    3        1.580728   1.000000
    4        2.041440   1.000000
    5        4.244323   0.000000
    6        6.371578   0.000000
    7        6.776874   0.000000
    8        9.218839   0.000000
 
  0.2352941E+00  0.1764706E+00  0.5882353E-01  0.4884999E-02
    1       -6.413854   1.000000
    2        0.423926   1.000000
    3        2.067695   1.000000
    4        2.305544   1.000000
    5        4.792000   0.000000
    6        5.419155   0.000000
    7        6.849923   0.000000
    8        6.989135   0.000000
 
  0.2941176E+00  0.1764706E+00  0.5882353E-01  0.9769998E-02
    1       -6.281284   1.000000
    2       -0.069947   1.000000
    3        1.815763   1.000000
    4        2.206144   1.000000
    5        4.880376   0.000000
    6        5.557634   0.000000
    7        7.092515   0.000000
    8        7.187495   0.000000
 
  0.3529412E+00  0.1764706E+00  0.5882353E-01  0.9769998E-02
    1       -6.122615   1.000000
    2       -0.573108   1.000000
    3        1.605365   1.000000
    4        2.083377   1.000000
    5        4.856698   0.000000
    6        5.835085   0.000000
    7        7.201169   0.000000
    8        7.351105   0.000000
 