       N       E                     dE             d eps       ncg     rms          rms(c)
DAV:   1     0.120678115787E+02    0.12068E+02   -0.26966E+03  2640   0.717E+02
DAV:   2    -0.742534004476E+01   -0.19493E+02   -0.19154E+02  3632   0.788E+01
DAV:   3    -0.798975948340E+01   -0.56442E+00   -0.56364E+00  3632   0.143E+01
DAV:   4    -0.799319295014E+01   -0.34335E-02   -0.34335E-02  3760   0.136E+00
DAV:   5    -0.799321445613E+01   -0.21506E-04   -0.21506E-04  3688   0.971E-02    0.185E+00
RMM:   6    -0.794407765121E+01    0.49137E-01   -0.56272E-02  2641   0.125E+00    0.111E+00
RMM:   7    -0.793500878518E+01    0.90689E-02   -0.40975E-02  2704   0.121E+00    0.293E-01
RMM:   8    -0.793562571146E+01   -0.61693E-03   -0.44142E-03  2688   0.477E-01    0.431E-02
RMM:   9    -0.793610493495E+01   -0.47922E-03   -0.70781E-04  2760   0.183E-01    0.130E-02
RMM:  10    -0.793613511338E+01   -0.30178E-04   -0.64974E-05  2960   0.606E-02    0.346E-03
RMM:  11    -0.793613924014E+01   -0.41268E-05   -0.74948E-06  2964   0.229E-02    0.118E-03
RMM:  12    -0.793613985614E+01   -0.61600E-06   -0.60216E-07  2273   0.753E-03
   1 F= -.79361399E+01 E0= -.79361399E+01  d E =0.000000E+00
