 running on   48 total cores
 distrk:  each k-point on   12 cores,    4 groups
 distr:  one band on   12 cores,    1 groups
 using from now: INCAR     
 vasp.5.4.4.18Apr17-6-g9f103f2a35 (build Nov 04 2020 14:40:39) complex          
  
 POSCAR found type information on POSCAR  Al Sb
 POSCAR found :  2 types and       2 ions
 scaLAPACK will be used

 ----------------------------------------------------------------------------- 
|                                                                             |
|           W    W    AA    RRRRR   N    N  II  N    N   GGGG   !!!           |
|           W    W   A  A   R    R  NN   N  II  NN   N  G    G  !!!           |
|           W    W  A    A  R    R  N N  N  II  N N  N  G       !!!           |
|           W WW W  AAAAAA  RRRRR   N  N N  II  N  N N  G  GGG   !            |
|           WW  WW  A    A  R   R   N   NN  II  N   NN  G    G                |
|           W    W  A    A  R    R  N    N  II  N    N   GGGG   !!!           |
|                                                                             |
|      You have enabled k-point parallelism (KPAR>1).                         |
|      This developmental code was originally  written by Paul Kent at ORNL,  |
|      and carefully double checked in Vienna.                                |
|      GW as well as linear response parallelism added by Martijn Marsman     |
|      and Georg Kresse.                                                      |
|      Carefully verify results versus KPAR=1.                                |
|      Report problems to Paul Kent and Vienna.                               |
|                                                                             |
 ----------------------------------------------------------------------------- 

 LDA part: xc-table for Pade appr. of Perdew
 POSCAR found type information on POSCAR  Al Sb
 POSCAR found :  2 types and       2 ions
 generate k-points for:   17   17   17
 POSCAR, INCAR and KPOINTS ok, starting setup
 FFT: planning ...
 WAVECAR not read
 entering main loop
       N       E                     dE             d eps       ncg     rms          rms(c)
DAV:   1     0.120678115787E+02    0.12068E+02   -0.26966E+03  2640   0.717E+02
DAV:   2    -0.742534004476E+01   -0.19493E+02   -0.19154E+02  3632   0.788E+01
DAV:   3    -0.798975948340E+01   -0.56442E+00   -0.56364E+00  3632   0.143E+01
DAV:   4    -0.799319295014E+01   -0.34335E-02   -0.34335E-02  3760   0.136E+00
DAV:   5    -0.799321445613E+01   -0.21506E-04   -0.21506E-04  3688   0.971E-02    0.185E+00
RMM:   6    -0.794407765121E+01    0.49137E-01   -0.56272E-02  2641   0.125E+00    0.111E+00
RMM:   7    -0.793500878518E+01    0.90689E-02   -0.40975E-02  2704   0.121E+00    0.293E-01
RMM:   8    -0.793562571146E+01   -0.61693E-03   -0.44142E-03  2688   0.477E-01    0.431E-02
RMM:   9    -0.793610493495E+01   -0.47922E-03   -0.70781E-04  2760   0.183E-01    0.130E-02
RMM:  10    -0.793613511338E+01   -0.30178E-04   -0.64974E-05  2960   0.606E-02    0.346E-03
RMM:  11    -0.793613924014E+01   -0.41268E-05   -0.74948E-06  2964   0.229E-02    0.118E-03
RMM:  12    -0.793613985614E+01   -0.61600E-06   -0.60216E-07  2273   0.753E-03
   1 F= -.79361399E+01 E0= -.79361399E+01  d E =0.000000E+00
