   3   3   0   0
  0.2624599E+02  0.4810975E-09  0.4810975E-09  0.4810975E-09  0.5000000E-15
  1.000000000000000E-004
  CAR
 unknown system
     13.02204511    -33.38352265  301      8.73410019      1.00000000
    -33.384  0.0000E+00  0.0000E+00
    -33.229  0.0000E+00  0.0000E+00
    -33.074  0.0000E+00  0.0000E+00
    -32.919  0.0000E+00  0.0000E+00
    -32.765  0.0000E+00  0.0000E+00
    -32.610  0.0000E+00  0.0000E+00
    -32.455  0.0000E+00  0.0000E+00
    -32.301  0.0000E+00  0.0000E+00
    -32.146  0.0000E+00  0.0000E+00
    -31.991  0.0000E+00  0.0000E+00
    -31.837  0.0000E+00  0.0000E+00
    -31.682  0.0000E+00  0.0000E+00
    -31.527  0.0000E+00  0.0000E+00
    -31.373  0.0000E+00  0.0000E+00
    -31.218  0.1293E+02  0.2000E+01
    -31.063  0.0000E+00  0.2000E+01
    -30.909  0.0000E+00  0.2000E+01
    -30.754  0.0000E+00  0.2000E+01
    -30.599  0.0000E+00  0.2000E+01
    -30.445  0.0000E+00  0.2000E+01
    -30.290  0.0000E+00  0.2000E+01
    -30.135  0.0000E+00  0.2000E+01
    -29.980  0.0000E+00  0.2000E+01
    -29.826  0.0000E+00  0.2000E+01
    -29.671  0.0000E+00  0.2000E+01
    -29.516  0.0000E+00  0.2000E+01
    -29.362  0.0000E+00  0.2000E+01
    -29.207  0.0000E+00  0.2000E+01
    -29.052  0.0000E+00  0.2000E+01
    -28.898  0.0000E+00  0.2000E+01
    -28.743  0.0000E+00  0.2000E+01
    -28.588  0.0000E+00  0.2000E+01
    -28.434  0.0000E+00  0.2000E+01
    -28.279  0.0000E+00  0.2000E+01
    -28.124  0.0000E+00  0.2000E+01
    -27.970  0.0000E+00  0.2000E+01
    -27.815  0.0000E+00  0.2000E+01
    -27.660  0.0000E+00  0.2000E+01
    -27.505  0.0000E+00  0.2000E+01
    -27.351  0.0000E+00  0.2000E+01
    -27.196  0.0000E+00  0.2000E+01
    -27.041  0.0000E+00  0.2000E+01
    -26.887  0.0000E+00  0.2000E+01
    -26.732  0.0000E+00  0.2000E+01
    -26.577  0.0000E+00  0.2000E+01
    -26.423  0.0000E+00  0.2000E+01
    -26.268  0.0000E+00  0.2000E+01
    -26.113  0.0000E+00  0.2000E+01
    -25.959  0.0000E+00  0.2000E+01
    -25.804  0.0000E+00  0.2000E+01
    -25.649  0.0000E+00  0.2000E+01
    -25.495  0.0000E+00  0.2000E+01
    -25.340  0.0000E+00  0.2000E+01
    -25.185  0.0000E+00  0.2000E+01
    -25.031  0.0000E+00  0.2000E+01
    -24.876  0.0000E+00  0.2000E+01
    -24.721  0.0000E+00  0.2000E+01
    -24.566  0.0000E+00  0.2000E+01
    -24.412  0.0000E+00  0.2000E+01
    -24.257  0.0000E+00  0.2000E+01
    -24.102  0.0000E+00  0.2000E+01
    -23.948  0.0000E+00  0.2000E+01
    -23.793  0.0000E+00  0.2000E+01
    -23.638  0.0000E+00  0.2000E+01
    -23.484  0.0000E+00  0.2000E+01
    -23.329  0.0000E+00  0.2000E+01
    -23.174  0.0000E+00  0.2000E+01
    -23.020  0.0000E+00  0.2000E+01
    -22.865  0.0000E+00  0.2000E+01
    -22.710  0.0000E+00  0.2000E+01
    -22.556  0.0000E+00  0.2000E+01
    -22.401  0.0000E+00  0.2000E+01
    -22.246  0.0000E+00  0.2000E+01
    -22.092  0.0000E+00  0.2000E+01
    -21.937  0.0000E+00  0.2000E+01
    -21.782  0.0000E+00  0.2000E+01
    -21.627  0.0000E+00  0.2000E+01
    -21.473  0.0000E+00  0.2000E+01
    -21.318  0.0000E+00  0.2000E+01
    -21.163  0.0000E+00  0.2000E+01
    -21.009  0.0000E+00  0.2000E+01
    -20.854  0.0000E+00  0.2000E+01
    -20.699  0.0000E+00  0.2000E+01
    -20.545  0.0000E+00  0.2000E+01
    -20.390  0.0000E+00  0.2000E+01
    -20.235  0.0000E+00  0.2000E+01
    -20.081  0.0000E+00  0.2000E+01
    -19.926  0.0000E+00  0.2000E+01
    -19.771  0.0000E+00  0.2000E+01
    -19.617  0.0000E+00  0.2000E+01
    -19.462  0.0000E+00  0.2000E+01
    -19.307  0.0000E+00  0.2000E+01
    -19.152  0.0000E+00  0.2000E+01
    -18.998  0.0000E+00  0.2000E+01
    -18.843  0.0000E+00  0.2000E+01
    -18.688  0.0000E+00  0.2000E+01
    -18.534  0.0000E+00  0.2000E+01
    -18.379  0.0000E+00  0.2000E+01
    -18.224  0.0000E+00  0.2000E+01
    -18.070  0.0000E+00  0.2000E+01
    -17.915  0.0000E+00  0.2000E+01
    -17.760  0.0000E+00  0.2000E+01
    -17.606  0.0000E+00  0.2000E+01
    -17.451  0.0000E+00  0.2000E+01
    -17.296  0.0000E+00  0.2000E+01
    -17.142  0.0000E+00  0.2000E+01
    -16.987  0.0000E+00  0.2000E+01
    -16.832  0.0000E+00  0.2000E+01
    -16.678  0.0000E+00  0.2000E+01
    -16.523  0.0000E+00  0.2000E+01
    -16.368  0.0000E+00  0.2000E+01
    -16.213  0.0000E+00  0.2000E+01
    -16.059  0.0000E+00  0.2000E+01
    -15.904  0.0000E+00  0.2000E+01
    -15.749  0.0000E+00  0.2000E+01
    -15.595  0.0000E+00  0.2000E+01
    -15.440  0.0000E+00  0.2000E+01
    -15.285  0.0000E+00  0.2000E+01
    -15.131  0.0000E+00  0.2000E+01
    -14.976  0.0000E+00  0.2000E+01
    -14.821  0.0000E+00  0.2000E+01
    -14.667  0.0000E+00  0.2000E+01
    -14.512  0.0000E+00  0.2000E+01
    -14.357  0.0000E+00  0.2000E+01
    -14.203  0.5536E+02  0.1200E+02
    -14.048  0.0000E+00  0.1200E+02
    -13.893  0.0000E+00  0.1200E+02
    -13.738  0.0000E+00  0.1200E+02
    -13.584  0.0000E+00  0.1200E+02
    -13.429  0.0000E+00  0.1200E+02
    -13.274  0.0000E+00  0.1200E+02
    -13.120  0.0000E+00  0.1200E+02
    -12.965  0.0000E+00  0.1200E+02
    -12.810  0.0000E+00  0.1200E+02
    -12.656  0.0000E+00  0.1200E+02
    -12.501  0.0000E+00  0.1200E+02
    -12.346  0.0000E+00  0.1200E+02
    -12.192  0.0000E+00  0.1200E+02
    -12.037  0.0000E+00  0.1200E+02
    -11.882  0.0000E+00  0.1200E+02
    -11.728  0.0000E+00  0.1200E+02
    -11.573  0.0000E+00  0.1200E+02
    -11.418  0.0000E+00  0.1200E+02
    -11.264  0.0000E+00  0.1200E+02
    -11.109  0.0000E+00  0.1200E+02
    -10.954  0.0000E+00  0.1200E+02
    -10.799  0.0000E+00  0.1200E+02
    -10.645  0.0000E+00  0.1200E+02
    -10.490  0.0000E+00  0.1200E+02
    -10.335  0.0000E+00  0.1200E+02
    -10.181  0.0000E+00  0.1200E+02
    -10.026  0.0000E+00  0.1200E+02
     -9.871  0.0000E+00  0.1200E+02
     -9.717  0.0000E+00  0.1200E+02
     -9.562  0.6308E-01  0.1201E+02
     -9.407  0.8197E+01  0.1385E+02
     -9.253  0.1868E+02  0.1786E+02
     -9.098  0.0000E+00  0.1800E+02
     -8.943  0.0000E+00  0.1800E+02
     -8.789  0.0000E+00  0.1800E+02
     -8.634  0.0000E+00  0.1800E+02
     -8.479  0.0000E+00  0.1800E+02
     -8.325  0.0000E+00  0.1800E+02
     -8.170  0.0000E+00  0.1800E+02
     -8.015  0.0000E+00  0.1800E+02
     -7.860  0.0000E+00  0.1800E+02
     -7.706  0.0000E+00  0.1800E+02
     -7.551  0.0000E+00  0.1800E+02
     -7.396  0.0000E+00  0.1800E+02
     -7.242  0.0000E+00  0.1800E+02
     -7.087  0.0000E+00  0.1800E+02
     -6.932  0.0000E+00  0.1800E+02
     -6.778  0.0000E+00  0.1800E+02
     -6.623  0.0000E+00  0.1800E+02
     -6.468  0.0000E+00  0.1800E+02
     -6.314  0.0000E+00  0.1800E+02
     -6.159  0.0000E+00  0.1800E+02
     -6.004  0.0000E+00  0.1800E+02
     -5.850  0.0000E+00  0.1800E+02
     -5.695  0.0000E+00  0.1800E+02
     -5.540  0.0000E+00  0.1800E+02
     -5.385  0.0000E+00  0.1800E+02
     -5.231  0.0000E+00  0.1800E+02
     -5.076  0.0000E+00  0.1800E+02
     -4.921  0.0000E+00  0.1800E+02
     -4.767  0.0000E+00  0.1800E+02
     -4.612  0.0000E+00  0.1800E+02
     -4.457  0.0000E+00  0.1800E+02
     -4.303  0.0000E+00  0.1800E+02
     -4.148  0.0000E+00  0.1800E+02
     -3.993  0.0000E+00  0.1800E+02
     -3.839  0.0000E+00  0.1800E+02
     -3.684  0.0000E+00  0.1800E+02
     -3.529  0.7608E-01  0.1801E+02
     -3.375  0.2396E+00  0.1805E+02
     -3.220  0.2825E+00  0.1810E+02
     -3.065  0.1411E+00  0.1817E+02
     -2.911  0.1354E+01  0.1847E+02
     -2.756  0.3013E+01  0.1925E+02
     -2.601  0.1583E+01  0.1986E+02
     -2.446  0.1883E+00  0.2000E+02
     -2.292  0.0000E+00  0.2000E+02
     -2.137  0.0000E+00  0.2000E+02
     -1.982  0.0000E+00  0.2000E+02
     -1.828  0.0000E+00  0.2000E+02
     -1.673  0.0000E+00  0.2000E+02
     -1.518  0.0000E+00  0.2000E+02
     -1.364  0.0000E+00  0.2000E+02
     -1.209  0.0000E+00  0.2000E+02
     -1.054  0.0000E+00  0.2000E+02
     -0.900  0.0000E+00  0.2000E+02
     -0.745  0.0000E+00  0.2000E+02
     -0.590  0.0000E+00  0.2000E+02
     -0.436  0.0000E+00  0.2000E+02
     -0.281  0.0000E+00  0.2000E+02
     -0.126  0.0000E+00  0.2000E+02
      0.028  0.0000E+00  0.2000E+02
      0.183  0.0000E+00  0.2000E+02
      0.338  0.0000E+00  0.2000E+02
      0.493  0.0000E+00  0.2000E+02
      0.647  0.0000E+00  0.2000E+02
      0.802  0.0000E+00  0.2000E+02
      0.957  0.0000E+00  0.2000E+02
      1.111  0.0000E+00  0.2000E+02
      1.266  0.0000E+00  0.2000E+02
      1.421  0.0000E+00  0.2000E+02
      1.575  0.0000E+00  0.2000E+02
      1.730  0.0000E+00  0.2000E+02
      1.885  0.0000E+00  0.2000E+02
      2.039  0.0000E+00  0.2000E+02
      2.194  0.0000E+00  0.2000E+02
      2.349  0.0000E+00  0.2000E+02
      2.503  0.0000E+00  0.2000E+02
      2.658  0.1619E+00  0.2003E+02
      2.813  0.3324E+00  0.2012E+02
      2.968  0.2326E+01  0.2068E+02
      3.122  0.1405E+01  0.2108E+02
      3.277  0.1357E+01  0.2135E+02
      3.432  0.5629E+00  0.2151E+02
      3.586  0.1367E+01  0.2176E+02
      3.741  0.4889E+01  0.2286E+02
      3.896  0.3004E+01  0.2385E+02
      4.050  0.2716E+01  0.2461E+02
      4.205  0.2441E+01  0.2539E+02
      4.360  0.1005E+01  0.2592E+02
      4.514  0.2825E+00  0.2607E+02
      4.669  0.4384E+01  0.2680E+02
      4.824  0.3803E+01  0.2847E+02
      4.978  0.5224E+01  0.3000E+02
      5.133  0.1423E+01  0.3048E+02
      5.288  0.2108E+01  0.3105E+02
      5.442  0.7844E+00  0.3151E+02
      5.597  0.6065E+00  0.3172E+02
      5.752  0.4871E+00  0.3195E+02
      5.907  0.1881E+00  0.3207E+02
      6.061  0.1177E+01  0.3244E+02
      6.216  0.8689E+00  0.3265E+02
      6.371  0.1636E+01  0.3301E+02
      6.525  0.4950E+00  0.3317E+02
      6.680  0.1557E+01  0.3349E+02
      6.835  0.3451E+00  0.3365E+02
      6.989  0.4463E+01  0.3452E+02
      7.144  0.3368E+01  0.3566E+02
      7.299  0.7768E+00  0.3593E+02
      7.453  0.7062E-01  0.3597E+02
      7.608  0.7365E-02  0.3600E+02
      7.763  0.0000E+00  0.3600E+02
      7.917  0.4708E-01  0.3601E+02
      8.072  0.4790E-01  0.3602E+02
      8.227  0.1177E+00  0.3605E+02
      8.381  0.4742E+00  0.3613E+02
      8.536  0.3801E+00  0.3634E+02
      8.691  0.2042E+01  0.3683E+02
      8.846  0.1877E+01  0.3737E+02
      9.000  0.1440E+01  0.3775E+02
      9.155  0.5920E+00  0.3804E+02
      9.310  0.9002E+00  0.3826E+02
      9.464  0.1673E+00  0.3833E+02
      9.619  0.1476E+01  0.3862E+02
      9.774  0.1941E+01  0.3902E+02
      9.928  0.2791E+01  0.3974E+02
     10.083  0.2057E+01  0.4039E+02
     10.238  0.1667E+01  0.4093E+02
     10.392  0.3384E+01  0.4178E+02
     10.547  0.3430E+01  0.4311E+02
     10.702  0.1075E+02  0.4571E+02
     10.856  0.6025E+01  0.4713E+02
     11.011  0.0000E+00  0.4800E+02
     11.166  0.0000E+00  0.4800E+02
     11.321  0.0000E+00  0.4800E+02
     11.475  0.0000E+00  0.4800E+02
     11.630  0.0000E+00  0.4800E+02
     11.785  0.0000E+00  0.4800E+02
     11.939  0.0000E+00  0.4800E+02
     12.094  0.0000E+00  0.4800E+02
     12.249  0.0000E+00  0.4800E+02
     12.403  0.0000E+00  0.4800E+02
     12.558  0.0000E+00  0.4800E+02
     12.713  0.0000E+00  0.4800E+02
     12.867  0.0000E+00  0.4800E+02
     13.022  0.0000E+00  0.4800E+02
