       N       E                     dE             d eps       ncg     rms          rms(c)
DAV:   1     0.447502924639E+03    0.44750E+03   -0.20673E+04  4032   0.204E+03
DAV:   2     0.488289100442E+02   -0.39867E+03   -0.39041E+03  4096   0.500E+02
DAV:   3    -0.183695345700E+02   -0.67198E+02   -0.66411E+02  5608   0.170E+02
DAV:   4    -0.227673946458E+02   -0.43979E+01   -0.43848E+01  7168   0.449E+01
DAV:   5    -0.229079855916E+02   -0.14059E+00   -0.14055E+00  5792   0.646E+00    0.342E+01
DAV:   6    -0.220202447175E+02    0.88774E+00   -0.16830E+00  5064   0.831E+00    0.209E+01
DAV:   7    -0.218968828572E+02    0.12336E+00   -0.22669E+00  6088   0.823E+00    0.628E+00
DAV:   8    -0.218518726710E+02    0.45010E-01   -0.32545E-01  5192   0.288E+00    0.427E+00
DAV:   9    -0.218435734787E+02    0.82992E-02   -0.19270E-01  6016   0.220E+00    0.345E+00
DAV:  10    -0.218379403401E+02    0.56331E-02   -0.32638E-02  5064   0.104E+00    0.686E-01
DAV:  11    -0.218381288618E+02   -0.18852E-03   -0.20820E-03  5848   0.275E-01    0.397E-01
DAV:  12    -0.218380314083E+02    0.97454E-04   -0.39976E-04  5616   0.114E-01    0.117E-01
DAV:  13    -0.218380288842E+02    0.25241E-05   -0.15392E-04  6432   0.648E-02    0.350E-02
DAV:  14    -0.218380277196E+02    0.11646E-05   -0.91328E-06  5112   0.180E-02    0.232E-02
DAV:  15    -0.218380274009E+02    0.31867E-06   -0.17999E-06  6352   0.788E-03    0.298E-03
DAV:  16    -0.218380274244E+02   -0.23427E-07   -0.64716E-08  3408   0.153E-03
   1 F= -.21838027E+02 E0= -.21837896E+02  d E =-.263459E-03
