 vasp.6.0.8 29Jun18 (build Jun 13 2019 12:54:44) complex

 executed on      IFC18_CrayMPICH date 2021.12.05  14:21:47
 running   64 mpi-ranks, with    1 threads/rank
 distrk:  each k-point on   16 cores,    4 groups
 distr:  one band on NCORES_PER_BAND=   4 cores,    4 groups


--------------------------------------------------------------------------------------------------------


 INCAR:
 POTCAR:    PAW_PBE Th 07Sep2000
 POTCAR:    PAW_PBE Bi_d 06Sep2000
 POTCAR:    PAW_PBE Pt 04Feb2005
 POTCAR:    PAW_PBE Th 07Sep2000
   VRHFIN =Th:  [Xe,5d,4f]
   LEXCH  = PE
   EATOM  =   984.7553 eV,   72.3775 Ry

   TITEL  = PAW_PBE Th 07Sep2000
   LULTRA =        F    use ultrasoft PP ?
   IUNSCR =        1    unscreen: 0-lin 1-nonlin 2-no
   RPACOR =    2.200    partial core radius
   POMASS =  232.039; ZVAL   =   12.000    mass and valenz
   RCORE  =    2.800    outmost cutoff radius
   RWIGS  =    3.000; RWIGS  =    1.588    wigner-seitz radius (au A)
   ENMAX  =  247.306; ENMIN  =  185.480 eV
   RCLOC  =    2.211    cutoff for local pot
   LCOR   =        T    correct aug charges
   LPAW   =        T    paw PP
   EAUG   =  535.431
   DEXC   =    0.000
   RMAX   =    2.862    core radius for proj-oper
   RAUG   =    1.300    factor for augmentation sphere
   RDEP   =    2.926    radius for radial grids
   RDEPT  =    2.250    core radius for aug-charge

   Atomic configuration
   18 entries
     n  l   j            E        occ.
     1  0  0.50   -109990.1879   2.0000
     2  0  0.50    -20388.0147   2.0000
     2  1  1.50    -17049.6156   6.0000
     3  0  0.50     -5106.5436   2.0000
     3  1  1.50     -4175.1262   6.0000
     3  2  2.50     -3342.8437  10.0000
     4  0  0.50     -1280.8211   2.0000
     4  1  1.50      -976.4859   6.0000
     4  2  2.50      -661.8358  10.0000
     4  3  3.50      -324.9124  14.0000
     5  0  0.50      -278.7726   2.0000
     5  1  1.50      -186.2212   6.0000
     5  2  2.50       -86.9031  10.0000
     6  0  0.50       -43.3059   2.0000
     7  0  0.50        -4.0783   2.0000
     6  1  1.50       -21.4071   6.0000
     6  2  1.50        -2.3664   1.0000
     5  3  2.50        -1.2804   1.0000
   Description
     l       E           TYP  RCUT    TYP  RCUT
     0    -43.3059201     23  2.800
     0     -4.0782900     23  2.800
     1    -21.4071032     23  2.500
     1    -22.7676858     23  2.500
     2     -2.3664170     23  2.500
     2      3.0546543     23  2.500
     3     -1.2803910     23  2.800
     3      0.1360583     23  2.800
  local pseudopotential read in
  partial core-charges read in
  partial kinetic energy density read in
  atomic valenz-charges read in
  non local Contribution for L=           0  read in
    real space projection operators read in
  non local Contribution for L=           0  read in
    real space projection operators read in
  non local Contribution for L=           1  read in
    real space projection operators read in
  non local Contribution for L=           1  read in
    real space projection operators read in
  non local Contribution for L=           2  read in
    real space projection operators read in
  non local Contribution for L=           2  read in
    real space projection operators read in
  non local Contribution for L=           3  read in
    real space projection operators read in
  non local Contribution for L=           3  read in
    real space projection operators read in
    PAW grid and wavefunctions read in

   number of l-projection  operators is LMAX  =           8
   number of lm-projection operators is LMMAX =          32

 POTCAR:    PAW_PBE Bi_d 06Sep2000
   VRHFIN =Bi:
   LEXCH  = PE
   EATOM  =  1959.2045 eV,  143.9975 Ry

   TITEL  = PAW_PBE Bi_d 06Sep2000
   LULTRA =        F    use ultrasoft PP ?
   IUNSCR =        1    unscreen: 0-lin 1-nonlin 2-no
   RPACOR =    2.200    partial core radius
   POMASS =  208.980; ZVAL   =   15.000    mass and valenz
   RCORE  =    2.500    outmost cutoff radius
   RWIGS  =    3.090; RWIGS  =    1.635    wigner-seitz radius (au A)
   ENMAX  =  242.839; ENMIN  =  182.129 eV
   ICORE  =        3    local potential
   LCOR   =        T    correct aug charges
   LPAW   =        T    paw PP
   EAUG   =  442.899
   DEXC   =    0.000
   RMAX   =    2.551    core radius for proj-oper
   RAUG   =    1.300    factor for augmentation sphere
   RDEP   =    2.650    radius for radial grids
   RDEPT  =    2.039    core radius for aug-charge

   Atomic configuration
   16 entries
     n  l   j            E        occ.
     1  0  0.50    -90639.6581   2.0000
     2  0  0.50    -16282.4666   2.0000
     2  1  1.50    -13922.8286   6.0000
     3  0  0.50     -3930.4763   2.0000
     3  1  1.50     -3256.7013   6.0000
     3  2  2.50     -2581.6168  10.0000
     4  0  0.50      -902.2614   2.0000
     4  1  1.50      -681.5915   6.0000
     4  2  2.50      -429.8249  10.0000
     4  3  3.50      -152.6004  14.0000
     5  0  0.50      -157.7156   2.0000
     5  1  1.50       -95.8054   6.0000
     5  2  2.50       -27.0806  10.0000
     6  0  0.50       -14.4732   2.0000
     6  1  1.50        -4.5702   3.0000
     5  3  2.50        -2.7212   0.0000
   Description
     l       E           TYP  RCUT    TYP  RCUT
     2    -27.0805982     23  2.500
     2     -1.3605826     23  2.500
     0    -14.4732271     23  2.500
     0      6.8029130     23  2.500
     1     -4.5701651     23  2.500
     1     13.6058260     23  2.500
     3     -1.3605826      7  2.500
  local pseudopotential read in
  partial core-charges read in
  partial kinetic energy density read in
  atomic valenz-charges read in
  non local Contribution for L=           2  read in
    real space projection operators read in
  non local Contribution for L=           2  read in
    real space projection operators read in
  non local Contribution for L=           0  read in
    real space projection operators read in
  non local Contribution for L=           0  read in
    real space projection operators read in
  non local Contribution for L=           1  read in
    real space projection operators read in
  non local Contribution for L=           1  read in
    real space projection operators read in
    PAW grid and wavefunctions read in

   number of l-projection  operators is LMAX  =           6
   number of lm-projection operators is LMMAX =          18

 POTCAR:    PAW_PBE Pt 04Feb2005
   VRHFIN =Pt: s1d9
   LEXCH  = PE
   EATOM  =   729.1176 eV,   53.5886 Ry

   TITEL  = PAW_PBE Pt 04Feb2005
   LULTRA =        F    use ultrasoft PP ?
   IUNSCR =        1    unscreen: 0-lin 1-nonlin 2-no
   RPACOR =    2.330    partial core radius
   POMASS =  195.080; ZVAL   =   10.000    mass and valenz
   RCORE  =    2.600    outmost cutoff radius
   RWIGS  =    2.750; RWIGS  =    1.455    wigner-seitz radius (au A)
   ENMAX  =  230.283; ENMIN  =  172.712 eV
   ICORE  =        3    local potential
   LCOR   =        T    correct aug charges
   LPAW   =        T    paw PP
   EAUG   =  358.966
   DEXC   =    0.000
   RMAX   =    2.658    core radius for proj-oper
   RAUG   =    1.300    factor for augmentation sphere
   RDEP   =    2.761    radius for radial grids
   RDEPT  =    2.203    core radius for aug-charge

   Atomic configuration
   16 entries
     n  l   j            E        occ.
     1  0  0.50    -78401.1885   2.0000
     2  0  0.50    -13770.7750   2.0000
     2  1  1.50    -11931.0468   6.0000
     3  0  0.50     -3234.7234   2.0000
     3  1  1.50     -2699.2216   6.0000
     3  2  2.50     -2119.5714  10.0000
     4  0  0.50      -695.1528   2.0000
     4  1  1.50      -519.6034   6.0000
     4  2  2.50      -306.6786  10.0000
     4  3  3.50       -70.1041  14.0000
     5  0  0.50      -101.7747   2.0000
     5  1  1.50       -55.9873   6.0000
     5  2  2.50        -6.1423   9.0000
     6  0  0.50        -5.6573   1.0000
     6  1  1.50        -6.8029   0.0000
     5  3  2.50        -1.3606   0.0000
   Description
     l       E           TYP  RCUT    TYP  RCUT
     2     -6.1423404     23  2.500
     2     -7.5029230     23  2.500
     0     -5.6573207     23  2.500
     0      0.7416693     23  2.500
     1     -2.7211652     23  2.600
     1     20.4087390     23  2.600
     3     -1.3605826     23  2.500
  local pseudopotential read in
  partial core-charges read in
  partial kinetic energy density read in
  atomic valenz-charges read in
  non local Contribution for L=           2  read in
    real space projection operators read in
  non local Contribution for L=           2  read in
    real space projection operators read in
  non local Contribution for L=           0  read in
    real space projection operators read in
  non local Contribution for L=           0  read in
    real space projection operators read in
  non local Contribution for L=           1  read in
    real space projection operators read in
  non local Contribution for L=           1  read in
    real space projection operators read in
    PAW grid and wavefunctions read in

   number of l-projection  operators is LMAX  =           6
   number of lm-projection operators is LMMAX =          18

 WARNING: PSMAXN for non-local potential too small
          PSMAXN should be >   13.5545592237991       NTYP=           1

 -----------------------------------------------------------------------------
|                                                                             |
|  ADVICE TO THIS USER RUNNING 'VASP/VAMP'   (HEAR YOUR MASTER'S VOICE ...):  |
|                                                                             |
|      You enforced a specific xc-type in the INCAR file,                     |
|      a different type was found on the POTCAR file                          |
|          I HOPE YOU KNOW, WHAT YOU ARE  DOING                               |
|                                                                             |
 -----------------------------------------------------------------------------

  PAW_PBE Th 07Sep2000                  :
 energy of atom  1       EATOM= -984.7553
 kinetic energy error for atom=    0.0005 (will be added to EATOM!!)
  PAW_PBE Bi_d 06Sep2000                :
 energy of atom  2       EATOM=-1959.2045
 kinetic energy error for atom=    0.0012 (will be added to EATOM!!)
  PAW_PBE Pt 04Feb2005                  :
 energy of atom  3       EATOM= -729.1176
 kinetic energy error for atom=    0.0010 (will be added to EATOM!!)


 POSCAR: Th1 Bi1 Pt1
  positions in direct lattice
  No initial velocities read in
 exchange correlation table for  LEXCH =       14
   RHO(1)=    0.500       N(1)  =     2000
   RHO(2)=  100.500       N(2)  =     4000



--------------------------------------------------------------------------------------------------------


 ion  position               nearest neighbor table
   1  0.250  0.250  0.250-   3 2.95   3 2.95   3 2.95   3 2.95   2 3.40   2 3.40   2 3.40   2 3.40
                             2 3.40   2 3.40
   2  0.750  0.750  0.750-   3 2.95   3 2.95   3 2.95   3 2.95   1 3.40   1 3.40   1 3.40   1 3.40
                             1 3.40   1 3.40
   3  0.000  0.000  0.000-   2 2.95   1 2.95   2 2.95   1 2.95   2 2.95   1 2.95   2 2.95   1 2.95


  LATTYP: Found a face centered cubic cell.
 ALAT       =     6.8037453531

  Lattice vectors:

 A1 = (   0.0000000000,   3.4018726765,   3.4018726765)
 A2 = (   3.4018726765,   0.0000000000,   3.4018726765)
 A3 = (   3.4018726765,   3.4018726765,   0.0000000000)


Analysis of symmetry for initial positions (statically):
=====================================================================
 Subroutine PRICEL returns:
 Original cell was already a primitive cell.


 Routine SETGRP: Setting up the symmetry group for a
 face centered cubic supercell.


 Subroutine GETGRP returns: Found 24 space group operations
 (whereof 24 operations were pure point group operations)
 out of a pool of 48 trial point group operations.


The static configuration has the point symmetry T_d .


Analysis of symmetry for dynamics (positions and initial velocities):
=====================================================================
 Subroutine PRICEL returns:
 Original cell was already a primitive cell.


 Routine SETGRP: Setting up the symmetry group for a
 face centered cubic supercell.


 Subroutine GETGRP returns: Found 24 space group operations
 (whereof 24 operations were pure point group operations)
 out of a pool of 48 trial point group operations.


The dynamic configuration has the point symmetry T_d .


 Subroutine INISYM returns: Found 24 space group operations
 (whereof 24 operations are pure point group operations),
 and found     1 'primitive' translations


----------------------------------------------------------------------------------------

                                     Primitive cell

  volume of cell :      78.7380

  direct lattice vectors                    reciprocal lattice vectors
     0.000000000  3.401872677  3.401872677    -0.146977870  0.146977870  0.146977870
     3.401872677  0.000000000  3.401872677     0.146977870 -0.146977870  0.146977870
     3.401872677  3.401872677  0.000000000     0.146977870  0.146977870 -0.146977870

  length of vectors
     4.810974477  4.810974477  4.810974477     0.254573138  0.254573138  0.254573138

  position of ions in fractional coordinates (direct lattice)
     0.250000000  0.250000000  0.250000000
     0.750000000  0.750000000  0.750000000
     0.000000000  0.000000000  0.000000000

  ion indices of the primitive-cell ions
   primitive index   ion index
                 1           1
                 2           2
                 3           3

----------------------------------------------------------------------------------------



 KPOINTS: KPOINTS

Automatic generation of k-mesh.
Space group operators:
 irot       det(A)        alpha          n_x          n_y          n_z        tau_x        tau_y        tau_z
    1     1.000000     0.000000     1.000000     0.000000     0.000000     0.000000     0.000000     0.000000
    2     1.000000   120.000000    -0.577350    -0.577350    -0.577350     0.000000     0.000000     0.000000
    3     1.000000   120.000000     0.577350     0.577350     0.577350     0.000000     0.000000     0.000000
    4    -1.000000    90.000000     0.000000     0.000000    -1.000000     0.000000     0.000000     0.000000
    5    -1.000000   180.000000    -0.000000     0.707107     0.707107     0.000000     0.000000     0.000000
    6    -1.000000    90.000000     0.000000     1.000000     0.000000     0.000000     0.000000     0.000000
    7     1.000000   180.000000    -0.000000     0.000000     1.000000     0.000000     0.000000     0.000000
    8     1.000000   120.000000    -0.577350     0.577350     0.577350     0.000000     0.000000     0.000000
    9     1.000000   120.000000    -0.577350     0.577350    -0.577350     0.000000     0.000000     0.000000
   10    -1.000000    90.000000     0.000000     0.000000     1.000000     0.000000     0.000000     0.000000
   11    -1.000000    90.000000    -1.000000    -0.000000    -0.000000     0.000000     0.000000     0.000000
   12    -1.000000   180.000000     0.707107     0.000000     0.707107     0.000000     0.000000     0.000000
   13     1.000000   120.000000     0.577350    -0.577350     0.577350     0.000000     0.000000     0.000000
   14     1.000000   120.000000    -0.577350    -0.577350     0.577350     0.000000     0.000000     0.000000
   15     1.000000   180.000000     1.000000     0.000000     0.000000     0.000000     0.000000     0.000000
   16    -1.000000    90.000000     0.000000    -1.000000     0.000000     0.000000     0.000000     0.000000
   17    -1.000000   180.000000     0.707107     0.707107     0.000000     0.000000     0.000000     0.000000
   18    -1.000000    90.000000     1.000000     0.000000    -0.000000     0.000000     0.000000     0.000000
   19     1.000000   120.000000     0.577350    -0.577350    -0.577350     0.000000     0.000000     0.000000
   20     1.000000   180.000000     0.000000    -1.000000    -0.000000     0.000000     0.000000     0.000000
   21     1.000000   120.000000     0.577350     0.577350    -0.577350     0.000000     0.000000     0.000000
   22    -1.000000   180.000000     0.000000    -0.707107     0.707107     0.000000     0.000000     0.000000
   23    -1.000000   180.000000     0.707107    -0.707107    -0.000000     0.000000     0.000000     0.000000
   24    -1.000000   180.000000    -0.707107     0.000000     0.707107     0.000000     0.000000     0.000000

 Subroutine IBZKPT returns following result:
 ===========================================

 Found     84 irreducible k-points:

 Following reciprocal coordinates:
            Coordinates               Weight
  0.000000  0.000000  0.000000      1.000000
  0.076923  0.000000  0.000000      8.000000
  0.153846 -0.000000  0.000000      8.000000
  0.230769  0.000000 -0.000000      8.000000
  0.307692 -0.000000  0.000000      8.000000
  0.384615  0.000000 -0.000000      8.000000
  0.461538 -0.000000  0.000000      8.000000
  0.076923  0.076923 -0.000000      6.000000
  0.153846  0.076923  0.000000     24.000000
  0.230769  0.076923  0.000000     24.000000
  0.307692  0.076923 -0.000000     24.000000
  0.384615  0.076923  0.000000     24.000000
  0.461538  0.076923 -0.000000     24.000000
 -0.461538  0.076923 -0.000000     24.000000
 -0.384615  0.076923 -0.000000     24.000000
 -0.307692  0.076923  0.000000     24.000000
 -0.230769  0.076923  0.000000     24.000000
 -0.153846  0.076923  0.000000     24.000000
 -0.076923  0.076923  0.000000     12.000000
  0.153846  0.153846 -0.000000      6.000000
  0.230769  0.153846  0.000000     24.000000
  0.307692  0.153846  0.000000     24.000000
  0.384615  0.153846  0.000000     24.000000
  0.461538  0.153846  0.000000     24.000000
 -0.461538  0.153846 -0.000000     24.000000
 -0.384615  0.153846  0.000000     24.000000
 -0.307692  0.153846 -0.000000     24.000000
 -0.230769  0.153846  0.000000     24.000000
 -0.153846  0.153846 -0.000000     12.000000
  0.230769  0.230769 -0.000000      6.000000
  0.307692  0.230769 -0.000000     24.000000
  0.384615  0.230769 -0.000000     24.000000
  0.461538  0.230769  0.000000     24.000000
 -0.461538  0.230769  0.000000     24.000000
 -0.384615  0.230769 -0.000000     24.000000
 -0.307692  0.230769 -0.000000     24.000000
 -0.230769  0.230769  0.000000     12.000000
  0.307692  0.307692 -0.000000      6.000000
  0.384615  0.307692 -0.000000     24.000000
  0.461538  0.307692 -0.000000     24.000000
 -0.461538  0.307692  0.000000     24.000000
 -0.384615  0.307692  0.000000     24.000000
 -0.307692  0.307692 -0.000000     12.000000
  0.384615  0.384615 -0.000000      6.000000
  0.461538  0.384615 -0.000000     24.000000
 -0.461538  0.384615 -0.000000     24.000000
 -0.384615  0.384615  0.000000     12.000000
  0.461538  0.461538 -0.000000      6.000000
 -0.461538  0.461538 -0.000000     12.000000
  0.230769  0.153846  0.076923     24.000000
  0.307692  0.153846  0.076923     48.000000
  0.384615  0.153846  0.076923     48.000000
  0.461538  0.153846  0.076923     48.000000
 -0.461538  0.153846  0.076923     48.000000
  0.307692  0.230769  0.076923     24.000000
  0.384615  0.230769  0.076923     48.000000
  0.461538  0.230769  0.076923     48.000000
 -0.461538  0.230769  0.076923     48.000000
 -0.384615  0.230769  0.076923     48.000000
 -0.307692  0.230769  0.076923     48.000000
 -0.230769  0.230769  0.076923     48.000000
 -0.153846  0.230769  0.076923     24.000000
  0.384615  0.307692  0.076923     24.000000
  0.461538  0.307692  0.076923     48.000000
 -0.461538  0.307692  0.076923     48.000000
 -0.384615  0.307692  0.076923     48.000000
 -0.307692  0.307692  0.076923     48.000000
 -0.230769  0.307692  0.076923     24.000000
  0.461538  0.384615  0.076923     24.000000
 -0.461538  0.384615  0.076923     48.000000
 -0.384615  0.384615  0.076923     48.000000
 -0.307692  0.384615  0.076923     24.000000
 -0.461538  0.461538  0.076923     24.000000
 -0.384615  0.461538  0.076923     24.000000
  0.461538  0.307692  0.153846     24.000000
 -0.461538  0.307692  0.153846     48.000000
 -0.384615  0.307692  0.153846     48.000000
 -0.461538  0.384615  0.153846     24.000000
 -0.384615  0.384615  0.153846     48.000000
 -0.307692  0.384615  0.153846     48.000000
 -0.230769  0.384615  0.153846     24.000000
 -0.384615  0.461538  0.153846     24.000000
 -0.307692  0.461538  0.153846     24.000000
 -0.307692  0.461538  0.230769     24.000000

 Following cartesian coordinates:
            Coordinates               Weight
  0.000000  0.000000  0.000000      1.000000
 -0.011230  0.011230  0.011230      8.000000
 -0.022460  0.022460  0.022460      8.000000
 -0.033690  0.033690  0.033690      8.000000
 -0.044920  0.044920  0.044920      8.000000
 -0.056151  0.056151  0.056151      8.000000
 -0.067381  0.067381  0.067381      8.000000
 -0.000000 -0.000000  0.022460      6.000000
 -0.011230  0.011230  0.033690     24.000000
 -0.022460  0.022460  0.044920     24.000000
 -0.033690  0.033690  0.056151     24.000000
 -0.044920  0.044920  0.067381     24.000000
 -0.056151  0.056151  0.078611     24.000000
  0.078611 -0.078611 -0.056151     24.000000
  0.067381 -0.067381 -0.044920     24.000000
  0.056151 -0.056151 -0.033690     24.000000
  0.044920 -0.044920 -0.022460     24.000000
  0.033690 -0.033690 -0.011230     24.000000
  0.022460 -0.022460  0.000000     12.000000
 -0.000000 -0.000000  0.044920      6.000000
 -0.011230  0.011230  0.056151     24.000000
 -0.022460  0.022460  0.067381     24.000000
 -0.033690  0.033690  0.078611     24.000000
 -0.044920  0.044920  0.089841     24.000000
  0.089841 -0.089841 -0.044920     24.000000
  0.078611 -0.078611 -0.033690     24.000000
  0.067381 -0.067381 -0.022460     24.000000
  0.056151 -0.056151 -0.011230     24.000000
  0.044920 -0.044920 -0.000000     12.000000
  0.000000 -0.000000  0.067381      6.000000
 -0.011230  0.011230  0.078611     24.000000
 -0.022460  0.022460  0.089841     24.000000
 -0.033690  0.033690  0.101071     24.000000
  0.101071 -0.101071 -0.033690     24.000000
  0.089841 -0.089841 -0.022460     24.000000
  0.078611 -0.078611 -0.011230     24.000000
  0.067381 -0.067381  0.000000     12.000000
 -0.000000 -0.000000  0.089841      6.000000
 -0.011230  0.011230  0.101071     24.000000
 -0.022460  0.022460  0.112301     24.000000
  0.112301 -0.112301 -0.022460     24.000000
  0.101071 -0.101071 -0.011230     24.000000
  0.089841 -0.089841 -0.000000     12.000000
  0.000000 -0.000000  0.112301      6.000000
 -0.011230  0.011230  0.123531     24.000000
  0.123531 -0.123531 -0.011230     24.000000
  0.112301 -0.112301  0.000000     12.000000
 -0.000000  0.000000  0.134761      6.000000
  0.134761 -0.134761 -0.000000     12.000000
 -0.000000  0.022460  0.044920     24.000000
 -0.011230  0.033690  0.056151     48.000000
 -0.022460  0.044920  0.067381     48.000000
 -0.033690  0.056151  0.078611     48.000000
  0.101071 -0.078611 -0.056151     48.000000
  0.000000  0.022460  0.067381     24.000000
 -0.011230  0.033690  0.078611     48.000000
 -0.022460  0.044920  0.089841     48.000000
  0.112301 -0.089841 -0.044920     48.000000
  0.101071 -0.078611 -0.033690     48.000000
  0.089841 -0.067381 -0.022460     48.000000
  0.078611 -0.056151 -0.011230     48.000000
  0.067381 -0.044920 -0.000000     24.000000
 -0.000000  0.022460  0.089841     24.000000
 -0.011230  0.033690  0.101071     48.000000
  0.123531 -0.101071 -0.033690     48.000000
  0.112301 -0.089841 -0.022460     48.000000
  0.101071 -0.078611 -0.011230     48.000000
  0.089841 -0.067381 -0.000000     24.000000
  0.000000  0.022460  0.112301     24.000000
  0.134761 -0.112301 -0.022460     48.000000
  0.123531 -0.101071 -0.011230     48.000000
  0.112301 -0.089841  0.000000     24.000000
  0.145991 -0.123531 -0.011230     24.000000
  0.134761 -0.112301 -0.000000     24.000000
 -0.000000  0.044920  0.089841     24.000000
  0.134761 -0.089841 -0.044920     48.000000
  0.123531 -0.078611 -0.033690     48.000000
  0.145991 -0.101071 -0.033690     24.000000
  0.134761 -0.089841 -0.022460     48.000000
  0.123531 -0.078611 -0.011230     48.000000
  0.112301 -0.067381  0.000000     24.000000
  0.145991 -0.101071 -0.011230     24.000000
  0.134761 -0.089841 -0.000000     24.000000
  0.145991 -0.078611 -0.011230     24.000000



--------------------------------------------------------------------------------------------------------




 Dimension of arrays:
   k-points           NKPTS =     84   k-points in BZ     NKDIM =     84   number of bands    NBANDS=     24
   number of dos      NEDOS =    301   number of ions     NIONS =      3
   non local maximal  LDIM  =      8   non local SUM 2l+1 LMDIM =     32
   total plane-waves  NPLWV =  74088
   max r-space proj   IRMAX =      1   max aug-charges    IRDMAX= 456071
   dimension x,y,z NGX =    42 NGY =   42 NGZ =   42
   dimension x,y,z NGXF=    84 NGYF=   84 NGZF=   84
   support grid    NGXF=   168 NGYF=  168 NGZF=  168
   ions per type =               1   1   1
   NGX,Y,Z   is equivalent  to a cutoff of  14.51, 14.51, 14.51 a.u.
   NGXF,Y,Z  is equivalent  to a cutoff of  29.03, 29.03, 29.03 a.u.

 SYSTEM =  unknown system
 POSCAR =  Th1 Bi1 Pt1

 Startparameter for this run:
   NWRITE =      2    write-flag & timer
   PREC   = acc       normal or accurate (medium, high low for compatibility)
   ISTART =      0    job   : 0-new  1-cont  2-samecut
   ICHARG =      2    charge: 1-file 2-atom 10-const
   ISPIN  =      1    spin polarized calculation?
   LNONCOLLINEAR =      F non collinear calculations
   LSORBIT =      F    spin-orbit coupling
   INIWAV =      1    electr: 0-lowe 1-rand  2-diag
   LASPH  =      F    aspherical Exc in radial PAW
   METAGGA=      F    non-selfconsistent MetaGGA calc.

 Electronic Relaxation 1
   ENCUT  =  700.0 eV  51.45 Ry    7.17 a.u.  10.38 10.38 10.38*2*pi/ulx,y,z
   ENINI  =  700.0     initial cutoff
   ENAUG  =  535.4 eV  augmentation charge cutoff
   NELM   =     60;   NELMIN=  5; NELMDL= -5     # of ELM steps
   EDIFF  = 0.1E-06   stopping-criterion for ELM
   LREAL  =      F    real-space projection
   NLSPLINE    = F    spline interpolate recip. space projectors
   LCOMPAT=      F    compatible to vasp.4.4
   GGA_COMPAT  = T    GGA compatible to vasp.4.4-vasp.4.6
   LMAXPAW     = -100 max onsite density
   LMAXMIX     =    2 max onsite mixed and CHGCAR
   VOSKOWN=      0    Vosko Wilk Nusair interpolation
   ROPT   =    0.00000   0.00000   0.00000
 Ionic relaxation
   EDIFFG = 0.1E-05   stopping-criterion for IOM
   NSW    =      0    number of steps for IOM
   NBLOCK =      1;   KBLOCK =      1    inner block; outer block
   IBRION =     -1    ionic relax: 0-MD 1-quasi-New 2-CG
   NFREE  =      0    steps in history (QN), initial steepest desc. (CG)
   ISIF   =      3    stress and relaxation
   IWAVPR =     10    prediction:  0-non 1-charg 2-wave 3-comb
   ISYM   =      2    0-nonsym 1-usesym 2-fastsym
   LCORR  =      T    Harris-Foulkes like correction to forces

   POTIM  = 0.5000    time-step for ionic-motion
   TEIN   =    0.0    initial temperature
   TEBEG  =    0.0;   TEEND  =   0.0 temperature during run
   SMASS  =  -3.00    Nose mass-parameter (am)
   estimated Nose-frequenzy (Omega)   =  0.10E-29 period in steps = 0.13E+47 mass=  -0.529E-27a.u.
   SCALEE = 1.0000    scale energy and forces
   NPACO  =    256;   APACO  = 16.0  distance and # of slots for P.C.
   PSTRESS=    0.0 pullay stress

  Mass of Ions in am
   POMASS = 232.04208.98195.08
  Ionic Valenz
   ZVAL   =  12.00 15.00 10.00
  Atomic Wigner-Seitz radii
   RWIGS  =  -1.00 -1.00 -1.00
  virtual crystal weights
   VCA    =   1.00  1.00  1.00
   NELECT =      37.0000    total number of electrons
   NUPDOWN=      -1.0000    fix difference up-down

 DOS related values:
   EMIN   =  10.00;   EMAX   =-10.00  energy-range for DOS
   EFERMI =   0.00
   ISMEAR =     0;   SIGMA  =   0.01  broadening in eV -4-tet -1-fermi 0-gaus

 Electronic relaxation 2 (details)
   IALGO  =     38    algorithm
   LDIAG  =      T    sub-space diagonalisation (order eigenvalues)
   LSUBROT=      F    optimize rotation matrix (better conditioning)
   TURBO    =      0    0=normal 1=particle mesh
   IRESTART =      0    0=no restart 2=restart with 2 vectors
   NREBOOT  =      0    no. of reboots
   NMIN     =      0    reboot dimension
   EREF     =   0.00    reference energy to select bands
   IMIX   =      4    mixing-type and parameters
     AMIX     =   0.40;   BMIX     =  1.00
     AMIX_MAG =   1.60;   BMIX_MAG =  1.00
     AMIN     =   0.10
     WC   =   100.;   INIMIX=   1;  MIXPRE=   1;  MAXMIX= -45

 Intra band minimization:
   WEIMIN = 0.0000     energy-eigenvalue tresh-hold
   EBREAK =  0.10E-08  absolut break condition
   DEPER  =   0.30     relativ break condition

   TIME   =   0.40     timestep for ELM

  volume/ion in A,a.u.               =      26.25       177.12
  Fermi-wavevector in a.u.,A,eV,Ry     =   1.272762  2.405172 22.040407  1.619924
  Thomas-Fermi vector in A             =   2.405623

 Write flags
   LWAVE        =      F    write WAVECAR
   LDOWNSAMPLE  =      F    k-point downsampling of WAVECAR
   LCHARG       =      F    write CHGCAR
   LVTOT        =      F    write LOCPOT, total local potential
   LVHAR        =      F    write LOCPOT, Hartree potential only
   LELF         =      F    write electronic localiz. function (ELF)
   LORBIT       =      0    0 simple, 1 ext, 2 COOP (PROOUT), +10 PAW based schemes


 Dipole corrections
   LMONO  =      F    monopole corrections only (constant potential shift)
   LDIPOL =      F    correct potential (dipole corrections)
   IDIPOL =      0    1-x, 2-y, 3-z, 4-all directions
   EPSILON=  1.0000000 bulk dielectric constant

 Exchange correlation treatment:
   GGA     =    PS    GGA type
   LEXCH   =    14    internal setting for exchange type
   VOSKOWN=      0    Vosko Wilk Nusair interpolation
   LHFCALC =     F    Hartree Fock is set to
   LHFONE  =     F    Hartree Fock one center treatment
   AEXX    =    0.0000 exact exchange contribution

 Linear response parameters
   LEPSILON=     F    determine dielectric tensor
   LRPA    =     F    only Hartree local field effects (RPA)
   LNABLA  =     F    use nabla operator in PAW spheres
   LVEL    =     F    velocity operator in full k-point grid
   LINTERFAST=   F  fast interpolation
   KINTER  =     0    interpolate to denser k-point grid
   CSHIFT  =0.1000    complex shift for real part using Kramers Kronig
   OMEGAMAX=  -1.0    maximum frequency
   DEG_THRESHOLD= 0.2000000E-02 threshold for treating states as degnerate
   RTIME   =   -0.100 relaxation time in fs
  (WPLASMAI=    0.000 imaginary part of plasma frequency in eV, 0.658/RTIME)
   DFIELD  = 0.0000000 0.0000000 0.0000000 field for delta impulse in time

 Orbital magnetization related:
   ORBITALMAG=     F  switch on orbital magnetization
   LCHIMAG   =     F  perturbation theory with respect to B field
   DQ        =  0.001000  dq finite difference perturbation B field
   LLRAUG    =     F  two centre corrections for induced B field



--------------------------------------------------------------------------------------------------------


 Static calculation
 charge density and potential will be updated during run
 non-spin polarized calculation
 Variant of blocked Davidson
 Davidson routine will perform the subspace rotation
 perform sub-space diagonalisation
    after iterative eigenvector-optimisation
 modified Broyden-mixing scheme, WC =      100.0
 initial mixing is a Kerker type mixing with AMIX =  0.4000 and BMIX =      1.0000
 Hartree-type preconditioning will be used
 using additional bands            5
 reciprocal scheme for non local part
 use partial core corrections
 calculate Harris-corrections to forces
   (improved forces if not selfconsistent)
 use gradient corrections
 use of overlap-Matrix (Vanderbilt PP)
 Gauss-broadening in eV      SIGMA  =   0.01


--------------------------------------------------------------------------------------------------------


  energy-cutoff  :      700.00
  volume of cell :       78.74
      direct lattice vectors                 reciprocal lattice vectors
     0.000000000  3.401872677  3.401872677    -0.146977870  0.146977870  0.146977870
     3.401872677  0.000000000  3.401872677     0.146977870 -0.146977870  0.146977870
     3.401872677  3.401872677  0.000000000     0.146977870  0.146977870 -0.146977870

  length of vectors
     4.810974477  4.810974477  4.810974477     0.254573138  0.254573138  0.254573138



 k-points in units of 2pi/SCALE and weight: KPOINTS
   0.00000000  0.00000000  0.00000000       0.000
  -0.01123011  0.01123011  0.01123011       0.004
  -0.02246022  0.02246022  0.02246022       0.004
  -0.03369033  0.03369033  0.03369033       0.004
  -0.04492043  0.04492043  0.04492043       0.004
  -0.05615054  0.05615054  0.05615054       0.004
  -0.06738065  0.06738065  0.06738065       0.004
  -0.00000000 -0.00000000  0.02246022       0.003
  -0.01123011  0.01123011  0.03369033       0.011
  -0.02246022  0.02246022  0.04492043       0.011
  -0.03369033  0.03369033  0.05615054       0.011
  -0.04492043  0.04492043  0.06738065       0.011
  -0.05615054  0.05615054  0.07861076       0.011
   0.07861076 -0.07861076 -0.05615054       0.011
   0.06738065 -0.06738065 -0.04492043       0.011
   0.05615054 -0.05615054 -0.03369033       0.011
   0.04492043 -0.04492043 -0.02246022       0.011
   0.03369033 -0.03369033 -0.01123011       0.011
   0.02246022 -0.02246022  0.00000000       0.005
  -0.00000000 -0.00000000  0.04492043       0.003
  -0.01123011  0.01123011  0.05615054       0.011
  -0.02246022  0.02246022  0.06738065       0.011
  -0.03369033  0.03369033  0.07861076       0.011
  -0.04492043  0.04492043  0.08984087       0.011
   0.08984087 -0.08984087 -0.04492043       0.011
   0.07861076 -0.07861076 -0.03369033       0.011
   0.06738065 -0.06738065 -0.02246022       0.011
   0.05615054 -0.05615054 -0.01123011       0.011
   0.04492043 -0.04492043 -0.00000000       0.005
   0.00000000 -0.00000000  0.06738065       0.003
  -0.01123011  0.01123011  0.07861076       0.011
  -0.02246022  0.02246022  0.08984087       0.011
  -0.03369033  0.03369033  0.10107098       0.011
   0.10107098 -0.10107098 -0.03369033       0.011
   0.08984087 -0.08984087 -0.02246022       0.011
   0.07861076 -0.07861076 -0.01123011       0.011
   0.06738065 -0.06738065  0.00000000       0.005
  -0.00000000 -0.00000000  0.08984087       0.003
  -0.01123011  0.01123011  0.10107098       0.011
  -0.02246022  0.02246022  0.11230109       0.011
   0.11230109 -0.11230109 -0.02246022       0.011
   0.10107098 -0.10107098 -0.01123011       0.011
   0.08984087 -0.08984087 -0.00000000       0.005
   0.00000000 -0.00000000  0.11230109       0.003
  -0.01123011  0.01123011  0.12353119       0.011
   0.12353119 -0.12353119 -0.01123011       0.011
   0.11230109 -0.11230109  0.00000000       0.005
  -0.00000000  0.00000000  0.13476130       0.003
   0.13476130 -0.13476130 -0.00000000       0.005
  -0.00000000  0.02246022  0.04492043       0.011
  -0.01123011  0.03369033  0.05615054       0.022
  -0.02246022  0.04492043  0.06738065       0.022
  -0.03369033  0.05615054  0.07861076       0.022
   0.10107098 -0.07861076 -0.05615054       0.022
   0.00000000  0.02246022  0.06738065       0.011
  -0.01123011  0.03369033  0.07861076       0.022
  -0.02246022  0.04492043  0.08984087       0.022
   0.11230109 -0.08984087 -0.04492043       0.022
   0.10107098 -0.07861076 -0.03369033       0.022
   0.08984087 -0.06738065 -0.02246022       0.022
   0.07861076 -0.05615054 -0.01123011       0.022
   0.06738065 -0.04492043 -0.00000000       0.011
  -0.00000000  0.02246022  0.08984087       0.011
  -0.01123011  0.03369033  0.10107098       0.022
   0.12353119 -0.10107098 -0.03369033       0.022
   0.11230109 -0.08984087 -0.02246022       0.022
   0.10107098 -0.07861076 -0.01123011       0.022
   0.08984087 -0.06738065 -0.00000000       0.011
   0.00000000  0.02246022  0.11230109       0.011
   0.13476130 -0.11230109 -0.02246022       0.022
   0.12353119 -0.10107098 -0.01123011       0.022
   0.11230109 -0.08984087  0.00000000       0.011
   0.14599141 -0.12353119 -0.01123011       0.011
   0.13476130 -0.11230109 -0.00000000       0.011
  -0.00000000  0.04492043  0.08984087       0.011
   0.13476130 -0.08984087 -0.04492043       0.022
   0.12353119 -0.07861076 -0.03369033       0.022
   0.14599141 -0.10107098 -0.03369033       0.011
   0.13476130 -0.08984087 -0.02246022       0.022
   0.12353119 -0.07861076 -0.01123011       0.022
   0.11230109 -0.06738065  0.00000000       0.011
   0.14599141 -0.10107098 -0.01123011       0.011
   0.13476130 -0.08984087 -0.00000000       0.011
   0.14599141 -0.07861076 -0.01123011       0.011

 k-points in reciprocal lattice and weights: KPOINTS
   0.00000000  0.00000000  0.00000000       0.000
   0.07692308  0.00000000  0.00000000       0.004
   0.15384615 -0.00000000  0.00000000       0.004
   0.23076923  0.00000000 -0.00000000       0.004
   0.30769231 -0.00000000  0.00000000       0.004
   0.38461538  0.00000000 -0.00000000       0.004
   0.46153846 -0.00000000  0.00000000       0.004
   0.07692308  0.07692308 -0.00000000       0.003
   0.15384615  0.07692308  0.00000000       0.011
   0.23076923  0.07692308  0.00000000       0.011
   0.30769231  0.07692308 -0.00000000       0.011
   0.38461538  0.07692308  0.00000000       0.011
   0.46153846  0.07692308 -0.00000000       0.011
  -0.46153846  0.07692308 -0.00000000       0.011
  -0.38461538  0.07692308 -0.00000000       0.011
  -0.30769231  0.07692308  0.00000000       0.011
  -0.23076923  0.07692308  0.00000000       0.011
  -0.15384615  0.07692308  0.00000000       0.011
  -0.07692308  0.07692308  0.00000000       0.005
   0.15384615  0.15384615 -0.00000000       0.003
   0.23076923  0.15384615  0.00000000       0.011
   0.30769231  0.15384615  0.00000000       0.011
   0.38461538  0.15384615  0.00000000       0.011
   0.46153846  0.15384615  0.00000000       0.011
  -0.46153846  0.15384615 -0.00000000       0.011
  -0.38461538  0.15384615  0.00000000       0.011
  -0.30769231  0.15384615 -0.00000000       0.011
  -0.23076923  0.15384615  0.00000000       0.011
  -0.15384615  0.15384615 -0.00000000       0.005
   0.23076923  0.23076923 -0.00000000       0.003
   0.30769231  0.23076923 -0.00000000       0.011
   0.38461538  0.23076923 -0.00000000       0.011
   0.46153846  0.23076923  0.00000000       0.011
  -0.46153846  0.23076923  0.00000000       0.011
  -0.38461538  0.23076923 -0.00000000       0.011
  -0.30769231  0.23076923 -0.00000000       0.011
  -0.23076923  0.23076923  0.00000000       0.005
   0.30769231  0.30769231 -0.00000000       0.003
   0.38461538  0.30769231 -0.00000000       0.011
   0.46153846  0.30769231 -0.00000000       0.011
  -0.46153846  0.30769231  0.00000000       0.011
  -0.38461538  0.30769231  0.00000000       0.011
  -0.30769231  0.30769231 -0.00000000       0.005
   0.38461538  0.38461538 -0.00000000       0.003
   0.46153846  0.38461538 -0.00000000       0.011
  -0.46153846  0.38461538 -0.00000000       0.011
  -0.38461538  0.38461538  0.00000000       0.005
   0.46153846  0.46153846 -0.00000000       0.003
  -0.46153846  0.46153846 -0.00000000       0.005
   0.23076923  0.15384615  0.07692308       0.011
   0.30769231  0.15384615  0.07692308       0.022
   0.38461538  0.15384615  0.07692308       0.022
   0.46153846  0.15384615  0.07692308       0.022
  -0.46153846  0.15384615  0.07692308       0.022
   0.30769231  0.23076923  0.07692308       0.011
   0.38461538  0.23076923  0.07692308       0.022
   0.46153846  0.23076923  0.07692308       0.022
  -0.46153846  0.23076923  0.07692308       0.022
  -0.38461538  0.23076923  0.07692308       0.022
  -0.30769231  0.23076923  0.07692308       0.022
  -0.23076923  0.23076923  0.07692308       0.022
  -0.15384615  0.23076923  0.07692308       0.011
   0.38461538  0.30769231  0.07692308       0.011
   0.46153846  0.30769231  0.07692308       0.022
  -0.46153846  0.30769231  0.07692308       0.022
  -0.38461538  0.30769231  0.07692308       0.022
  -0.30769231  0.30769231  0.07692308       0.022
  -0.23076923  0.30769231  0.07692308       0.011
   0.46153846  0.38461538  0.07692308       0.011
  -0.46153846  0.38461538  0.07692308       0.022
  -0.38461538  0.38461538  0.07692308       0.022
  -0.30769231  0.38461538  0.07692308       0.011
  -0.46153846  0.46153846  0.07692308       0.011
  -0.38461538  0.46153846  0.07692308       0.011
   0.46153846  0.30769231  0.15384615       0.011
  -0.46153846  0.30769231  0.15384615       0.022
  -0.38461538  0.30769231  0.15384615       0.022
  -0.46153846  0.38461538  0.15384615       0.011
  -0.38461538  0.38461538  0.15384615       0.022
  -0.30769231  0.38461538  0.15384615       0.022
  -0.23076923  0.38461538  0.15384615       0.011
  -0.38461538  0.46153846  0.15384615       0.011
  -0.30769231  0.46153846  0.15384615       0.011
  -0.30769231  0.46153846  0.23076923       0.011

 position of ions in fractional coordinates (direct lattice)
   0.25000000  0.25000000  0.25000000
   0.75000000  0.75000000  0.75000000
   0.00000000  0.00000000  0.00000000

 position of ions in cartesian coordinates  (Angst):
   1.70093634  1.70093634  1.70093634
   5.10280901  5.10280901  5.10280901
   0.00000000  0.00000000  0.00000000



--------------------------------------------------------------------------------------------------------


 k-point  1 :   0.0000 0.0000 0.0000  plane waves:    3287
 k-point  2 :   0.0769 0.0000 0.0000  plane waves:    3335
 k-point  3 :   0.1538-0.0000 0.0000  plane waves:    3323
 k-point  4 :   0.2308 0.0000-0.0000  plane waves:    3320
 k-point  5 :   0.3077-0.0000 0.0000  plane waves:    3323
 k-point  6 :   0.3846 0.0000-0.0000  plane waves:    3311
 k-point  7 :   0.4615-0.0000 0.0000  plane waves:    3308
 k-point  8 :   0.0769 0.0769-0.0000  plane waves:    3335
 k-point  9 :   0.1538 0.0769 0.0000  plane waves:    3317
 k-point 10 :   0.2308 0.0769 0.0000  plane waves:    3319
 k-point 11 :   0.3077 0.0769-0.0000  plane waves:    3325
 k-point 12 :   0.3846 0.0769 0.0000  plane waves:    3316
 k-point 13 :   0.4615 0.0769-0.0000  plane waves:    3312
 k-point 14 :  -0.4615 0.0769-0.0000  plane waves:    3297
 k-point 15 :  -0.3846 0.0769-0.0000  plane waves:    3317
 k-point 16 :  -0.3077 0.0769 0.0000  plane waves:    3314
 k-point 17 :  -0.2308 0.0769 0.0000  plane waves:    3331
 k-point 18 :  -0.1538 0.0769 0.0000  plane waves:    3314
 k-point 19 :  -0.0769 0.0769 0.0000  plane waves:    3325
 k-point 20 :   0.1538 0.1538-0.0000  plane waves:    3319
 k-point 21 :   0.2308 0.1538 0.0000  plane waves:    3307
 k-point 22 :   0.3077 0.1538 0.0000  plane waves:    3322
 k-point 23 :   0.3846 0.1538 0.0000  plane waves:    3315
 k-point 24 :   0.4615 0.1538 0.0000  plane waves:    3309
 k-point 25 :  -0.4615 0.1538-0.0000  plane waves:    3297
 k-point 26 :  -0.3846 0.1538 0.0000  plane waves:    3309
 k-point 27 :  -0.3077 0.1538-0.0000  plane waves:    3321
 k-point 28 :  -0.2308 0.1538 0.0000  plane waves:    3327
 k-point 29 :  -0.1538 0.1538-0.0000  plane waves:    3317
 k-point 30 :   0.2308 0.2308-0.0000  plane waves:    3335
 k-point 31 :   0.3077 0.2308-0.0000  plane waves:    3324
 k-point 32 :   0.3846 0.2308-0.0000  plane waves:    3317
 k-point 33 :   0.4615 0.2308 0.0000  plane waves:    3309
 k-point 34 :  -0.4615 0.2308 0.0000  plane waves:    3306
 k-point 35 :  -0.3846 0.2308-0.0000  plane waves:    3303
 k-point 36 :  -0.3077 0.2308-0.0000  plane waves:    3315
 k-point 37 :  -0.2308 0.2308 0.0000  plane waves:    3320
 k-point 38 :   0.3077 0.3077-0.0000  plane waves:    3327
 k-point 39 :   0.3846 0.3077-0.0000  plane waves:    3327
 k-point 40 :   0.4615 0.3077-0.0000  plane waves:    3314
 k-point 41 :  -0.4615 0.3077 0.0000  plane waves:    3301
 k-point 42 :  -0.3846 0.3077 0.0000  plane waves:    3291
 k-point 43 :  -0.3077 0.3077-0.0000  plane waves:    3286
 k-point 44 :   0.3846 0.3846-0.0000  plane waves:    3310
 k-point 45 :   0.4615 0.3846-0.0000  plane waves:    3310
 k-point 46 :  -0.4615 0.3846-0.0000  plane waves:    3302
 k-point 47 :  -0.3846 0.3846 0.0000  plane waves:    3304
 k-point 48 :   0.4615 0.4615-0.0000  plane waves:    3302
 k-point 49 :  -0.4615 0.4615-0.0000  plane waves:    3304
 k-point 50 :   0.2308 0.1538 0.0769  plane waves:    3312
 k-point 51 :   0.3077 0.1538 0.0769  plane waves:    3321
 k-point 52 :   0.3846 0.1538 0.0769  plane waves:    3318
 k-point 53 :   0.4615 0.1538 0.0769  plane waves:    3315
 k-point 54 :  -0.4615 0.1538 0.0769  plane waves:    3307
 k-point 55 :   0.3077 0.2308 0.0769  plane waves:    3305
 k-point 56 :   0.3846 0.2308 0.0769  plane waves:    3318
 k-point 57 :   0.4615 0.2308 0.0769  plane waves:    3306
 k-point 58 :  -0.4615 0.2308 0.0769  plane waves:    3305
 k-point 59 :  -0.3846 0.2308 0.0769  plane waves:    3300
 k-point 60 :  -0.3077 0.2308 0.0769  plane waves:    3309
 k-point 61 :  -0.2308 0.2308 0.0769  plane waves:    3319
 k-point 62 :  -0.1538 0.2308 0.0769  plane waves:    3322
 k-point 63 :   0.3846 0.3077 0.0769  plane waves:    3319
 k-point 64 :   0.4615 0.3077 0.0769  plane waves:    3317
 k-point 65 :  -0.4615 0.3077 0.0769  plane waves:    3315
 k-point 66 :  -0.3846 0.3077 0.0769  plane waves:    3306
 k-point 67 :  -0.3077 0.3077 0.0769  plane waves:    3290
 k-point 68 :  -0.2308 0.3077 0.0769  plane waves:    3312
 k-point 69 :   0.4615 0.3846 0.0769  plane waves:    3320
 k-point 70 :  -0.4615 0.3846 0.0769  plane waves:    3306
 k-point 71 :  -0.3846 0.3846 0.0769  plane waves:    3306
 k-point 72 :  -0.3077 0.3846 0.0769  plane waves:    3297
 k-point 73 :  -0.4615 0.4615 0.0769  plane waves:    3316
 k-point 74 :  -0.3846 0.4615 0.0769  plane waves:    3313
 k-point 75 :   0.4615 0.3077 0.1538  plane waves:    3314
 k-point 76 :  -0.4615 0.3077 0.1538  plane waves:    3312
 k-point 77 :  -0.3846 0.3077 0.1538  plane waves:    3311
 k-point 78 :  -0.4615 0.3846 0.1538  plane waves:    3314
 k-point 79 :  -0.3846 0.3846 0.1538  plane waves:    3308
 k-point 80 :  -0.3077 0.3846 0.1538  plane waves:    3304
 k-point 81 :  -0.2308 0.3846 0.1538  plane waves:    3291
 k-point 82 :  -0.3846 0.4615 0.1538  plane waves:    3313
 k-point 83 :  -0.3077 0.4615 0.1538  plane waves:    3306
 k-point 84 :  -0.3077 0.4615 0.2308  plane waves:    3291

 maximum and minimum number of plane-waves per node :       849      811

 maximum number of plane-waves:      3335
 maximum index in each direction:
   IXMAX=   10   IYMAX=   10   IZMAX=   10
   IXMIN=  -10   IYMIN=  -10   IZMIN=  -10


 parallel 3D FFT for wavefunctions:
    minimum data exchange during FFTs selected (reduces bandwidth)
 parallel 3D FFT for charge:
    minimum data exchange during FFTs selected (reduces bandwidth)


 total amount of memory used by VASP MPI-rank0   102005. kBytes
=======================================================================

   base      :      30000. kBytes
   nonl-proj :      55005. kBytes
   fftplans  :       6282. kBytes
   grid      :       3541. kBytes
   one-center:         49. kBytes
   wavefun   :       7128. kBytes

     INWAV:  cpu time    0.0002: real time    0.0012
 Broyden mixing: mesh for mixing (old mesh)
   NGX = 21   NGY = 21   NGZ = 21
  (NGX  = 84   NGY  = 84   NGZ  = 84)
  gives a total of   9261 points

 initial charge density was supplied:
 charge density of overlapping atoms calculated
 number of electron      37.0000000 magnetization
 keeping initial charge density in first step


--------------------------------------------------------------------------------------------------------


 Maximum index for augmentation-charges        30948 (set IRDMAX)


--------------------------------------------------------------------------------------------------------


 First call to EWALD:  gamma=   0.414
 Maximum number of real-space cells 3x 3x 3
 Maximum number of reciprocal cells 3x 3x 3

    FEWALD:  cpu time    0.0053: real time    0.0060


--------------------------------------- Iteration      1(   1)  ---------------------------------------


    POTLOK:  cpu time    0.0535: real time    0.1355
    SETDIJ:  cpu time    0.0937: real time    0.0940
     EDDAV:  cpu time    1.5068: real time    1.5431
       DOS:  cpu time    0.0045: real time    0.0048
    --------------------------------------------
      LOOP:  cpu time    1.6589: real time    1.7780

 eigenvalue-minimisations  :  4032
 total energy-change (2. order) : 0.4475029E+03  (-0.2067297E+04)
 number of electron      37.0000000 magnetization
 augmentation part       37.0000000 magnetization

 Free energy of the ion-electron system (eV)
  ---------------------------------------------------
  alpha Z        PSCENC =       218.21193859
  Ewald energy   TEWEN  =     -3148.90689540
  -Hartree energ DENC   =      -747.42999512
  -exchange      EXHF   =         0.00000000
  -V(xc)+E(xc)   XCENC  =        68.52093818
  PAW double counting   =      3147.30828992    -3070.62761383
  entropy T*S    EENTRO =        -0.00022197
  eigenvalues    EBANDS =       305.75306165
  atomic energy  EATOM  =      3674.67342263
  Solvation  Ediel_sol  =         0.00000000
  ---------------------------------------------------
  free energy    TOTEN  =       447.50292464 eV

  energy without entropy =      447.50314661  energy(sigma->0) =      447.50303563


--------------------------------------------------------------------------------------------------------




--------------------------------------- Iteration      1(   2)  ---------------------------------------


     EDDAV:  cpu time    1.5306: real time    1.5564
       DOS:  cpu time    0.0033: real time    0.0041
    --------------------------------------------
      LOOP:  cpu time    1.5339: real time    1.5613

 eigenvalue-minimisations  :  4096
 total energy-change (2. order) :-0.3986740E+03  (-0.3904094E+03)
 number of electron      37.0000000 magnetization
 augmentation part       37.0000000 magnetization

 Free energy of the ion-electron system (eV)
  ---------------------------------------------------
  alpha Z        PSCENC =       218.21193859
  Ewald energy   TEWEN  =     -3148.90689540
  -Hartree energ DENC   =      -747.42999512
  -exchange      EXHF   =         0.00000000
  -V(xc)+E(xc)   XCENC  =        68.52093818
  PAW double counting   =      3147.30828992    -3070.62761383
  entropy T*S    EENTRO =        -0.00022188
  eigenvalues    EBANDS =       -92.92095304
  atomic energy  EATOM  =      3674.67342263
  Solvation  Ediel_sol  =         0.00000000
  ---------------------------------------------------
  free energy    TOTEN  =        48.82891004 eV

  energy without entropy =       48.82913192  energy(sigma->0) =       48.82902098


--------------------------------------------------------------------------------------------------------




--------------------------------------- Iteration      1(   3)  ---------------------------------------


     EDDAV:  cpu time    1.9341: real time    1.9613
       DOS:  cpu time    0.0029: real time    0.0036
    --------------------------------------------
      LOOP:  cpu time    1.9370: real time    1.9651

 eigenvalue-minimisations  :  5608
 total energy-change (2. order) :-0.6719844E+02  (-0.6641061E+02)
 number of electron      37.0000000 magnetization
 augmentation part       37.0000000 magnetization

 Free energy of the ion-electron system (eV)
  ---------------------------------------------------
  alpha Z        PSCENC =       218.21193859
  Ewald energy   TEWEN  =     -3148.90689540
  -Hartree energ DENC   =      -747.42999512
  -exchange      EXHF   =         0.00000000
  -V(xc)+E(xc)   XCENC  =        68.52093818
  PAW double counting   =      3147.30828992    -3070.62761383
  entropy T*S    EENTRO =        -0.00005646
  eigenvalues    EBANDS =      -160.11956308
  atomic energy  EATOM  =      3674.67342263
  Solvation  Ediel_sol  =         0.00000000
  ---------------------------------------------------
  free energy    TOTEN  =       -18.36953457 eV

  energy without entropy =      -18.36947811  energy(sigma->0) =      -18.36950634


--------------------------------------------------------------------------------------------------------




--------------------------------------- Iteration      1(   4)  ---------------------------------------


     EDDAV:  cpu time    2.3469: real time    2.3738
       DOS:  cpu time    0.0030: real time    0.0032
    --------------------------------------------
      LOOP:  cpu time    2.3499: real time    2.3769

 eigenvalue-minimisations  :  7168
 total energy-change (2. order) :-0.4397860E+01  (-0.4384849E+01)
 number of electron      37.0000000 magnetization
 augmentation part       37.0000000 magnetization

 Free energy of the ion-electron system (eV)
  ---------------------------------------------------
  alpha Z        PSCENC =       218.21193859
  Ewald energy   TEWEN  =     -3148.90689540
  -Hartree energ DENC   =      -747.42999512
  -exchange      EXHF   =         0.00000000
  -V(xc)+E(xc)   XCENC  =        68.52093818
  PAW double counting   =      3147.30828992    -3070.62761383
  entropy T*S    EENTRO =        -0.00006888
  eigenvalues    EBANDS =      -164.51741073
  atomic energy  EATOM  =      3674.67342263
  Solvation  Ediel_sol  =         0.00000000
  ---------------------------------------------------
  free energy    TOTEN  =       -22.76739465 eV

  energy without entropy =      -22.76732576  energy(sigma->0) =      -22.76736021


--------------------------------------------------------------------------------------------------------




--------------------------------------- Iteration      1(   5)  ---------------------------------------


     EDDAV:  cpu time    2.0127: real time    2.0312
       DOS:  cpu time    0.0029: real time    0.0031
    CHARGE:  cpu time    0.3427: real time    0.3435
    MIXING:  cpu time    0.0059: real time    0.0061
    --------------------------------------------
      LOOP:  cpu time    2.3644: real time    2.3841

 eigenvalue-minimisations  :  5792
 total energy-change (2. order) :-0.1405909E+00  (-0.1405496E+00)
 number of electron      37.0000000 magnetization
 augmentation part        5.9756822 magnetization

 Broyden mixing:
  rms(total) = 0.34152E+01    rms(broyden)= 0.34152E+01
  rms(prec ) = 0.37146E+01
  weight for this iteration     100.00

 Free energy of the ion-electron system (eV)
  ---------------------------------------------------
  alpha Z        PSCENC =       218.21193859
  Ewald energy   TEWEN  =     -3148.90689540
  -Hartree energ DENC   =      -747.42999512
  -exchange      EXHF   =         0.00000000
  -V(xc)+E(xc)   XCENC  =        68.52093818
  PAW double counting   =      3147.30828992    -3070.62761383
  entropy T*S    EENTRO =        -0.00006671
  eigenvalues    EBANDS =      -164.65800385
  atomic energy  EATOM  =      3674.67342263
  Solvation  Ediel_sol  =         0.00000000
  ---------------------------------------------------
  free energy    TOTEN  =       -22.90798559 eV

  energy without entropy =      -22.90791888  energy(sigma->0) =      -22.90795224


--------------------------------------------------------------------------------------------------------




--------------------------------------- Iteration      1(   6)  ---------------------------------------


    POTLOK:  cpu time    0.0520: real time    0.0711
    SETDIJ:  cpu time    0.0879: real time    0.0881
     EDDAV:  cpu time    1.7753: real time    1.7769
       DOS:  cpu time    0.0031: real time    0.0033
    CHARGE:  cpu time    0.3049: real time    0.3052
    MIXING:  cpu time    0.0052: real time    0.0053
    --------------------------------------------
      LOOP:  cpu time    2.2284: real time    2.2496

 eigenvalue-minimisations  :  5064
 total energy-change (2. order) : 0.8877409E+00  (-0.1682959E+00)
 number of electron      37.0000000 magnetization
 augmentation part        6.0451510 magnetization

 Broyden mixing:
  rms(total) = 0.20856E+01    rms(broyden)= 0.20856E+01
  rms(prec ) = 0.21927E+01
  weight for this iteration     100.00

 eigenvalues of (default mixing * dielectric matrix)
  average eigenvalue GAMMA=   2.5103
  2.5103

 Free energy of the ion-electron system (eV)
  ---------------------------------------------------
  alpha Z        PSCENC =       218.21193859
  Ewald energy   TEWEN  =     -3148.90689540
  -Hartree energ DENC   =      -731.81451807
  -exchange      EXHF   =         0.00000000
  -V(xc)+E(xc)   XCENC  =        68.05830945
  PAW double counting   =      3468.75402022    -3396.65472424
  entropy T*S    EENTRO =        -0.00025154
  eigenvalues    EBANDS =      -174.34154635
  atomic energy  EATOM  =      3674.67342263
  Solvation  Ediel_sol  =         0.00000000
  ---------------------------------------------------
  free energy    TOTEN  =       -22.02024472 eV

  energy without entropy =      -22.01999318  energy(sigma->0) =      -22.02011895


--------------------------------------------------------------------------------------------------------




--------------------------------------- Iteration      1(   7)  ---------------------------------------


    POTLOK:  cpu time    0.0511: real time    0.0756
    SETDIJ:  cpu time    0.0894: real time    0.0896
     EDDAV:  cpu time    2.0596: real time    2.0598
       DOS:  cpu time    0.0031: real time    0.0033
    CHARGE:  cpu time    0.2853: real time    0.2854
    MIXING:  cpu time    0.0043: real time    0.0044
    --------------------------------------------
      LOOP:  cpu time    2.4927: real time    2.5189

 eigenvalue-minimisations  :  6088
 total energy-change (2. order) : 0.1233619E+00  (-0.2266902E+00)
 number of electron      37.0000000 magnetization
 augmentation part        5.9874582 magnetization

 Broyden mixing:
  rms(total) = 0.62810E+00    rms(broyden)= 0.62810E+00
  rms(prec ) = 0.74523E+00
  weight for this iteration     100.00

 eigenvalues of (default mixing * dielectric matrix)
  average eigenvalue GAMMA=   2.1100
  1.0566  3.1634

 Free energy of the ion-electron system (eV)
  ---------------------------------------------------
  alpha Z        PSCENC =       218.21193859
  Ewald energy   TEWEN  =     -3148.90689540
  -Hartree energ DENC   =      -718.91756650
  -exchange      EXHF   =         0.00000000
  -V(xc)+E(xc)   XCENC  =        67.83997011
  PAW double counting   =      3899.65250641    -3832.65137133
  entropy T*S    EENTRO =        -0.00045328
  eigenvalues    EBANDS =      -181.79843408
  atomic energy  EATOM  =      3674.67342263
  Solvation  Ediel_sol  =         0.00000000
  ---------------------------------------------------
  free energy    TOTEN  =       -21.89688286 eV

  energy without entropy =      -21.89642958  energy(sigma->0) =      -21.89665622


--------------------------------------------------------------------------------------------------------




--------------------------------------- Iteration      1(   8)  ---------------------------------------


    POTLOK:  cpu time    0.0443: real time    0.0744
    SETDIJ:  cpu time    0.0879: real time    0.0882
     EDDAV:  cpu time    1.8246: real time    1.8249
       DOS:  cpu time    0.0031: real time    0.0033
    CHARGE:  cpu time    0.2848: real time    0.2863
    MIXING:  cpu time    0.0047: real time    0.0048
    --------------------------------------------
      LOOP:  cpu time    2.2496: real time    2.2809

 eigenvalue-minimisations  :  5192
 total energy-change (2. order) : 0.4501019E-01  (-0.3254473E-01)
 number of electron      37.0000000 magnetization
 augmentation part        5.9480941 magnetization

 Broyden mixing:
  rms(total) = 0.42668E+00    rms(broyden)= 0.42668E+00
  rms(prec ) = 0.47000E+00
  weight for this iteration     100.00

 eigenvalues of (default mixing * dielectric matrix)
  average eigenvalue GAMMA=   1.9233
  3.5873  1.4248  0.7579

 Free energy of the ion-electron system (eV)
  ---------------------------------------------------
  alpha Z        PSCENC =       218.21193859
  Ewald energy   TEWEN  =     -3148.90689540
  -Hartree energ DENC   =      -718.91868931
  -exchange      EXHF   =         0.00000000
  -V(xc)+E(xc)   XCENC  =        67.84457600
  PAW double counting   =      3934.63351175    -3867.75623927
  entropy T*S    EENTRO =        -0.00018520
  eigenvalues    EBANDS =      -181.63331245
  atomic energy  EATOM  =      3674.67342263
  Solvation  Ediel_sol  =         0.00000000
  ---------------------------------------------------
  free energy    TOTEN  =       -21.85187267 eV

  energy without entropy =      -21.85168747  energy(sigma->0) =      -21.85178007


--------------------------------------------------------------------------------------------------------




--------------------------------------- Iteration      1(   9)  ---------------------------------------


    POTLOK:  cpu time    0.0517: real time    0.0757
    SETDIJ:  cpu time    0.0902: real time    0.0905
     EDDAV:  cpu time    2.0389: real time    2.0395
       DOS:  cpu time    0.0030: real time    0.0033
    CHARGE:  cpu time    0.2853: real time    0.2856
    MIXING:  cpu time    0.0048: real time    0.0051
    --------------------------------------------
      LOOP:  cpu time    2.4737: real time    2.5001

 eigenvalue-minimisations  :  6016
 total energy-change (2. order) : 0.8299192E-02  (-0.1926965E-01)
 number of electron      37.0000000 magnetization
 augmentation part        5.9442300 magnetization

 Broyden mixing:
  rms(total) = 0.34455E+00    rms(broyden)= 0.34455E+00
  rms(prec ) = 0.35622E+00
  weight for this iteration     100.00

 eigenvalues of (default mixing * dielectric matrix)
  average eigenvalue GAMMA=   1.4146
  2.4340  1.2659  1.2659  0.6925

 Free energy of the ion-electron system (eV)
  ---------------------------------------------------
  alpha Z        PSCENC =       218.21193859
  Ewald energy   TEWEN  =     -3148.90689540
  -Hartree energ DENC   =      -721.24285660
  -exchange      EXHF   =         0.00000000
  -V(xc)+E(xc)   XCENC  =        67.87525498
  PAW double counting   =      4014.81577349    -3947.84325005
  entropy T*S    EENTRO =        -0.00020404
  eigenvalues    EBANDS =      -179.42675707
  atomic energy  EATOM  =      3674.67342263
  Solvation  Ediel_sol  =         0.00000000
  ---------------------------------------------------
  free energy    TOTEN  =       -21.84357348 eV

  energy without entropy =      -21.84336944  energy(sigma->0) =      -21.84347146


--------------------------------------------------------------------------------------------------------




--------------------------------------- Iteration      1(  10)  ---------------------------------------


    POTLOK:  cpu time    0.0502: real time    0.0644
    SETDIJ:  cpu time    0.0891: real time    0.0893
     EDDAV:  cpu time    1.7871: real time    1.7873
       DOS:  cpu time    0.0031: real time    0.0040
    CHARGE:  cpu time    0.2852: real time    0.2853
    MIXING:  cpu time    0.0058: real time    0.0059
    --------------------------------------------
      LOOP:  cpu time    2.2206: real time    2.2359

 eigenvalue-minimisations  :  5064
 total energy-change (2. order) : 0.5633139E-02  (-0.3263769E-02)
 number of electron      37.0000000 magnetization
 augmentation part        5.9488824 magnetization

 Broyden mixing:
  rms(total) = 0.68645E-01    rms(broyden)= 0.68645E-01
  rms(prec ) = 0.70780E-01
  weight for this iteration     100.00

 eigenvalues of (default mixing * dielectric matrix)
  average eigenvalue GAMMA=   1.4209
  2.3871  1.6268  1.5429  0.8630  0.6849

 Free energy of the ion-electron system (eV)
  ---------------------------------------------------
  alpha Z        PSCENC =       218.21193859
  Ewald energy   TEWEN  =     -3148.90689540
  -Hartree energ DENC   =      -721.43616762
  -exchange      EXHF   =         0.00000000
  -V(xc)+E(xc)   XCENC  =        67.86585375
  PAW double counting   =      3948.94037546    -3881.58544141
  entropy T*S    EENTRO =        -0.00026232
  eigenvalues    EBANDS =      -179.60076401
  atomic energy  EATOM  =      3674.67342263
  Solvation  Ediel_sol  =         0.00000000
  ---------------------------------------------------
  free energy    TOTEN  =       -21.83794034 eV

  energy without entropy =      -21.83767802  energy(sigma->0) =      -21.83780918


--------------------------------------------------------------------------------------------------------




--------------------------------------- Iteration      1(  11)  ---------------------------------------


    POTLOK:  cpu time    0.0485: real time    0.0821
    SETDIJ:  cpu time    0.0896: real time    0.0898
     EDDAV:  cpu time    1.9934: real time    1.9942
       DOS:  cpu time    0.0031: real time    0.0036
    CHARGE:  cpu time    0.2859: real time    0.2861
    MIXING:  cpu time    0.0052: real time    0.0057
    --------------------------------------------
      LOOP:  cpu time    2.4258: real time    2.4623

 eigenvalue-minimisations  :  5848
 total energy-change (2. order) :-0.1885217E-03  (-0.2081995E-03)
 number of electron      37.0000000 magnetization
 augmentation part        5.9496054 magnetization

 Broyden mixing:
  rms(total) = 0.39674E-01    rms(broyden)= 0.39674E-01
  rms(prec ) = 0.42888E-01
  weight for this iteration     100.00

 eigenvalues of (default mixing * dielectric matrix)
  average eigenvalue GAMMA=   1.3797
  2.5903  1.9244  0.6591  0.9362  0.9362  1.2321

 Free energy of the ion-electron system (eV)
  ---------------------------------------------------
  alpha Z        PSCENC =       218.21193859
  Ewald energy   TEWEN  =     -3148.90689540
  -Hartree energ DENC   =      -721.56267459
  -exchange      EXHF   =         0.00000000
  -V(xc)+E(xc)   XCENC  =        67.85940490
  PAW double counting   =      3957.84036004    -3890.44399809
  entropy T*S    EENTRO =        -0.00026300
  eigenvalues    EBANDS =      -179.50942393
  atomic energy  EATOM  =      3674.67342263
  Solvation  Ediel_sol  =         0.00000000
  ---------------------------------------------------
  free energy    TOTEN  =       -21.83812886 eV

  energy without entropy =      -21.83786586  energy(sigma->0) =      -21.83799736


--------------------------------------------------------------------------------------------------------




--------------------------------------- Iteration      1(  12)  ---------------------------------------


    POTLOK:  cpu time    0.0480: real time    0.0745
    SETDIJ:  cpu time    0.0892: real time    0.0894
     EDDAV:  cpu time    1.9707: real time    1.9709
       DOS:  cpu time    0.0031: real time    0.0033
    CHARGE:  cpu time    0.2848: real time    0.2849
    MIXING:  cpu time    0.0051: real time    0.0052
    --------------------------------------------
      LOOP:  cpu time    2.4009: real time    2.4280

 eigenvalue-minimisations  :  5616
 total energy-change (2. order) : 0.9745352E-04  (-0.3997619E-04)
 number of electron      37.0000000 magnetization
 augmentation part        5.9502621 magnetization

 Broyden mixing:
  rms(total) = 0.11714E-01    rms(broyden)= 0.11714E-01
  rms(prec ) = 0.12890E-01
  weight for this iteration     100.00

 eigenvalues of (default mixing * dielectric matrix)
  average eigenvalue GAMMA=   1.4249
  2.5350  2.2733  0.6648  1.2075  1.2075  1.0431  1.0431

 Free energy of the ion-electron system (eV)
  ---------------------------------------------------
  alpha Z        PSCENC =       218.21193859
  Ewald energy   TEWEN  =     -3148.90689540
  -Hartree energ DENC   =      -721.56248588
  -exchange      EXHF   =         0.00000000
  -V(xc)+E(xc)   XCENC  =        67.85758875
  PAW double counting   =      3960.99618589    -3893.57286777
  entropy T*S    EENTRO =        -0.00026361
  eigenvalues    EBANDS =      -179.53465459
  atomic energy  EATOM  =      3674.67342263
  Solvation  Ediel_sol  =         0.00000000
  ---------------------------------------------------
  free energy    TOTEN  =       -21.83803141 eV

  energy without entropy =      -21.83776779  energy(sigma->0) =      -21.83789960


--------------------------------------------------------------------------------------------------------




--------------------------------------- Iteration      1(  13)  ---------------------------------------


    POTLOK:  cpu time    0.0370: real time    0.0631
    SETDIJ:  cpu time    0.0916: real time    0.0917
     EDDAV:  cpu time    2.1414: real time    2.1417
       DOS:  cpu time    0.0032: real time    0.0036
    CHARGE:  cpu time    0.2856: real time    0.2859
    MIXING:  cpu time    0.0058: real time    0.0059
    --------------------------------------------
      LOOP:  cpu time    2.5645: real time    2.5916

 eigenvalue-minimisations  :  6432
 total energy-change (2. order) : 0.2524101E-05  (-0.1539174E-04)
 number of electron      37.0000000 magnetization
 augmentation part        5.9512109 magnetization

 Broyden mixing:
  rms(total) = 0.35015E-02    rms(broyden)= 0.35014E-02
  rms(prec ) = 0.40059E-02
  weight for this iteration     100.00

 eigenvalues of (default mixing * dielectric matrix)
  average eigenvalue GAMMA=   1.3920
  2.6181  2.0804  1.4358  1.4358  0.6684  0.9179  0.9898  0.9898

 Free energy of the ion-electron system (eV)
  ---------------------------------------------------
  alpha Z        PSCENC =       218.21193859
  Ewald energy   TEWEN  =     -3148.90689540
  -Hartree energ DENC   =      -721.56350945
  -exchange      EXHF   =         0.00000000
  -V(xc)+E(xc)   XCENC  =        67.85523005
  PAW double counting   =      3962.40107854    -3894.94049789
  entropy T*S    EENTRO =        -0.00026339
  eigenvalues    EBANDS =      -179.56853256
  atomic energy  EATOM  =      3674.67342263
  Solvation  Ediel_sol  =         0.00000000
  ---------------------------------------------------
  free energy    TOTEN  =       -21.83802888 eV

  energy without entropy =      -21.83776550  energy(sigma->0) =      -21.83789719


--------------------------------------------------------------------------------------------------------




--------------------------------------- Iteration      1(  14)  ---------------------------------------


    POTLOK:  cpu time    0.0370: real time    0.0755
    SETDIJ:  cpu time    0.0877: real time    0.0878
     EDDAV:  cpu time    1.8013: real time    1.8020
       DOS:  cpu time    0.0029: real time    0.0031
    CHARGE:  cpu time    0.2841: real time    0.2843
    MIXING:  cpu time    0.0057: real time    0.0058
    --------------------------------------------
      LOOP:  cpu time    2.2189: real time    2.2583

 eigenvalue-minimisations  :  5112
 total energy-change (2. order) : 0.1164567E-05  (-0.9132769E-06)
 number of electron      37.0000000 magnetization
 augmentation part        5.9514324 magnetization

 Broyden mixing:
  rms(total) = 0.23204E-02    rms(broyden)= 0.23204E-02
  rms(prec ) = 0.24558E-02
  weight for this iteration     100.00

 eigenvalues of (default mixing * dielectric matrix)
  average eigenvalue GAMMA=   1.4755
  2.6266  2.1497  2.1497  1.6241  1.0742  1.0742  0.6668  0.9569  0.9569

 Free energy of the ion-electron system (eV)
  ---------------------------------------------------
  alpha Z        PSCENC =       218.21193859
  Ewald energy   TEWEN  =     -3148.90689540
  -Hartree energ DENC   =      -721.55983503
  -exchange      EXHF   =         0.00000000
  -V(xc)+E(xc)   XCENC  =        67.85539065
  PAW double counting   =      3962.33051762    -3894.87105717
  entropy T*S    EENTRO =        -0.00026343
  eigenvalues    EBANDS =      -179.57124618
  atomic energy  EATOM  =      3674.67342263
  Solvation  Ediel_sol  =         0.00000000
  ---------------------------------------------------
  free energy    TOTEN  =       -21.83802772 eV

  energy without entropy =      -21.83776429  energy(sigma->0) =      -21.83789601


--------------------------------------------------------------------------------------------------------




--------------------------------------- Iteration      1(  15)  ---------------------------------------


    POTLOK:  cpu time    0.0506: real time    0.0715
    SETDIJ:  cpu time    0.0893: real time    0.0894
     EDDAV:  cpu time    2.1132: real time    2.1135
       DOS:  cpu time    0.0030: real time    0.0032
    CHARGE:  cpu time    0.2864: real time    0.2867
    MIXING:  cpu time    0.0057: real time    0.0058
    --------------------------------------------
      LOOP:  cpu time    2.5482: real time    2.5703

 eigenvalue-minimisations  :  6352
 total energy-change (2. order) : 0.3186724E-06  (-0.1799928E-06)
 number of electron      37.0000000 magnetization
 augmentation part        5.9512493 magnetization

 Broyden mixing:
  rms(total) = 0.29752E-03    rms(broyden)= 0.29742E-03
  rms(prec ) = 0.31367E-03
  weight for this iteration     100.00

 eigenvalues of (default mixing * dielectric matrix)
  average eigenvalue GAMMA=   1.4295
  2.6905  2.2331  2.2331  1.4718  1.0573  1.0573  0.6665  1.0722  0.9068  0.9068

 Free energy of the ion-electron system (eV)
  ---------------------------------------------------
  alpha Z        PSCENC =       218.21193859
  Ewald energy   TEWEN  =     -3148.90689540
  -Hartree energ DENC   =      -721.56200577
  -exchange      EXHF   =         0.00000000
  -V(xc)+E(xc)   XCENC  =        67.85585469
  PAW double counting   =      3962.04704333    -3894.58798859
  entropy T*S    EENTRO =        -0.00026347
  eigenvalues    EBANDS =      -179.56913341
  atomic energy  EATOM  =      3674.67342263
  Solvation  Ediel_sol  =         0.00000000
  ---------------------------------------------------
  free energy    TOTEN  =       -21.83802740 eV

  energy without entropy =      -21.83776393  energy(sigma->0) =      -21.83789567


--------------------------------------------------------------------------------------------------------




--------------------------------------- Iteration      1(  16)  ---------------------------------------


    POTLOK:  cpu time    0.0383: real time    0.0672
    SETDIJ:  cpu time    0.0887: real time    0.0888
     EDDAV:  cpu time    1.3792: real time    1.3794
       DOS:  cpu time    0.0030: real time    0.0032
    --------------------------------------------
      LOOP:  cpu time    1.5091: real time    1.5373

 eigenvalue-minimisations  :  3408
 total energy-change (2. order) :-0.2342722E-07  (-0.6471642E-08)
 number of electron      37.0000000 magnetization
 augmentation part        5.9512493 magnetization

 Free energy of the ion-electron system (eV)
  ---------------------------------------------------
  alpha Z        PSCENC =       218.21193859
  Ewald energy   TEWEN  =     -3148.90689540
  -Hartree energ DENC   =      -721.56128419
  -exchange      EXHF   =         0.00000000
  -V(xc)+E(xc)   XCENC  =        67.85577184
  PAW double counting   =      3962.08855683    -3894.62915430
  entropy T*S    EENTRO =        -0.00026346
  eigenvalues    EBANDS =      -179.57011995
  atomic energy  EATOM  =      3674.67342263
  Solvation  Ediel_sol  =         0.00000000
  ---------------------------------------------------
  free energy    TOTEN  =       -21.83802742 eV

  energy without entropy =      -21.83776397  energy(sigma->0) =      -21.83789569


--------------------------------------------------------------------------------------------------------




 average (electrostatic) potential at core
  the test charge radii are     1.1985  1.0856  1.2059
  (the norm of the test charge is              1.0000)
       1 -56.8663       2-102.1279       3 -65.6196



 E-fermi :   8.7341     XC(G=0): -11.1325     alpha+bet :-14.2882


 k-point     1 :       0.0000    0.0000    0.0000
  band No.  band energies     occupation
      1     -31.2742      2.00000
      2     -14.2750      2.00000
      3     -14.2750      2.00000
      4     -14.2403      2.00000
      5     -14.2403      2.00000
      6     -14.2403      2.00000
      7      -9.2930      2.00000
      8      -9.2930      2.00000
      9      -9.2930      2.00000
     10      -3.6205      2.00000
     11       4.3433      2.00000
     12       4.3433      2.00000
     13       4.3433      2.00000
     14       4.5382      2.00000
     15       4.5382      2.00000
     16       6.9223      2.00000
     17       7.6095      2.00000
     18       7.6095      2.00000
     19       7.6095      2.00000
     20       8.9688      0.00000
     21       8.9688      0.00000
     22       8.9688      0.00000
     23       9.8112      0.00000
     24      10.7946      0.00000

 k-point     2 :       0.0769    0.0000    0.0000
  band No.  band energies     occupation
      1     -31.2738      2.00000
      2     -14.2758      2.00000
      3     -14.2758      2.00000
      4     -14.2405      2.00000
      5     -14.2401      2.00000
      6     -14.2401      2.00000
      7      -9.3113      2.00000
      8      -9.2906      2.00000
      9      -9.2906      2.00000
     10      -3.5557      2.00000
     11       4.2065      2.00000
     12       4.2065      2.00000
     13       4.2101      2.00000
     14       4.6670      2.00000
     15       4.6670      2.00000
     16       6.5502      2.00000
     17       7.5267      2.00000
     18       7.5267      2.00000
     19       7.8528      2.00000
     20       9.0666      0.00000
     21       9.0666      0.00000
     22       9.0788      0.00000
     23      10.0420      0.00000
     24      10.8014      0.00000

 k-point     3 :       0.1538   -0.0000    0.0000
  band No.  band energies     occupation
      1     -31.2728      2.00000
      2     -14.2780      2.00000
      3     -14.2780      2.00000
      4     -14.2410      2.00000
      5     -14.2397      2.00000
      6     -14.2397      2.00000
      7      -9.3602      2.00000
      8      -9.2840      2.00000
      9      -9.2840      2.00000
     10      -3.3762      2.00000
     11       3.8715      2.00000
     12       4.0303      2.00000
     13       4.0303      2.00000
     14       4.8085      2.00000
     15       4.8085      2.00000
     16       6.0033      2.00000
     17       7.3564      2.00000
     18       7.3564      2.00000
     19       8.0130      2.00000
     20       9.2982      0.00000
     21       9.2982      0.00000
     22       9.5627      0.00000
     23      10.4591      0.00000
     24      10.8141      0.00000

 k-point     4 :       0.2308    0.0000   -0.0000
  band No.  band energies     occupation
      1     -31.2714      2.00000
      2     -14.2812      2.00000
      3     -14.2812      2.00000
      4     -14.2417      2.00000
      5     -14.2390      2.00000
      6     -14.2390      2.00000
      7      -9.4245      2.00000
      8      -9.2747      2.00000
      9      -9.2747      2.00000
     10      -3.1234      2.00000
     11       3.4511      2.00000
     12       3.8963      2.00000
     13       3.8963      2.00000
     14       4.8609      2.00000
     15       4.8609      2.00000
     16       5.5345      2.00000
     17       7.2119      2.00000
     18       7.2119      2.00000
     19       8.0870      2.00000
     20       9.5788      0.00000
     21       9.5788      0.00000
     22      10.2078      0.00000
     23      10.7951      0.00000
     24      10.8057      0.00000

 k-point     5 :       0.3077   -0.0000    0.0000
  band No.  band energies     occupation
      1     -31.2700      2.00000
      2     -14.2845      2.00000
      3     -14.2845      2.00000
      4     -14.2427      2.00000
      5     -14.2383      2.00000
      6     -14.2383      2.00000
      7      -9.4876      2.00000
      8      -9.2649      2.00000
      9      -9.2649      2.00000
     10      -2.8550      2.00000
     11       3.0576      2.00000
[...]
  212              fftbas_plan_mpi                       0.081620                     12   6
  213                dfftw_execute                         0.034474                   36   7
  214                map_backward                          0.004807                   12   7
  215                  map_gather                            0.001191                  6   8
  216                  m_alltoallv_z                         0.002208                  6   8
  217                  map_scatter                           0.001116                  6   8
  218                map_forward                           0.039090                   12   7
  219                  map_gather                            0.019471                  6   8
  220                  m_alltoallv_z                         0.007547                  6   8
  221                  map_scatter                           0.011759                  6   8
  222            M_sumb_d                              0.008687                        6   5
  223          M_sumb_d                              0.000027                          1   4
  224        setdij_                               1.515866                           20   3
  225          fft3d_mpi                             0.284062                         40   4
  226            fftbas_plan_mpi                       0.261386                       40   5
  227              dfftw_execute                         0.116873                    120   6
  228              map_backward                          0.014540                     40   6
  229                map_gather                            0.004073                   20   7
  230                m_alltoallv_z                         0.005786                   20   7
  231                map_scatter                           0.003701                   20   7
  232              map_forward                           0.119642                     40   6
  233                map_gather                            0.059255                   20   7
  234                m_alltoallv_z                         0.020848                   20   7
  235                map_scatter                           0.038509                   20   7
  236          M_sumb_d                              0.018515                         20   4
  237        set_dd_magatom                        0.000003                            1   3
  238        set_dd_paw                            0.014228                            1   3
  239          set_rsgf_all                          0.000004                          1   4
  240          M_sumb_d                              0.014058                          8   4
  241        strkin                                0.000936                            1   3
  242          M_sumb_d                              0.000206                          1   4
  243        strelo                                0.002995                            1   3
  244          M_sumb_d                              0.000218                          2   4
  245        strenl                                1.161216                            1   3
  246          spher                                 0.862163                         19   4
  247          phase                                 0.013484                        189   4
  248          proj1                                 0.255551                       1134   4
  249            crexp_mul_wave                        0.033422                     3402   5
  250            M_sumb_d                              0.070778                     1134   5
  251          M_sumb_d                              0.006494                          1   4
  252        M_sumb_d                              0.000202                            6   3
  253        fft3d_mpi                             0.017941                           11   3
  254          fftbas_plan_mpi                       0.016639                         11   4
  255            dfftw_execute                         0.006337                       33   5
  256            map_forward                           0.003800                       10   5
  257              map_gather                            0.000656                      5   6
  258              m_alltoallv_z                         0.001822                      5   6
  259              map_scatter                           0.001079                      5   6
  260            map_backward                          0.004234                       12   5
  261              map_gather                            0.001151                      6   6
  262              m_alltoallv_z                         0.001695                      6   6
  263              map_scatter                           0.001096                      6   6
  264        ggaall_grid                           0.002055                            1   3
  265        forhar                                0.007313                            2   3
  266          M_sumb_d                              0.000110                          2   4
  267        strehar                               0.003055                            1   3
  268          M_sumb_d                              0.000064                          1   4
  269        chggra                                0.007412                            1   3
  270          fft3d_mpi                             0.004675                          3   4
  271            fftbas_plan_mpi                       0.004322                        3   5
  272              dfftw_execute                         0.001740                      9   6
  273              map_backward                          0.000662                      2   6
  274                map_gather                            0.000190                    1   7
  275                m_alltoallv_z                         0.000242                    1   7
  276                map_scatter                           0.000179                    1   7
  277              map_forward                           0.001269                      4   6
  278                map_gather                            0.000269                    2   7
  279                m_alltoallv_z                         0.000481                    2   7
  280                map_scatter                           0.000414                    2   7
  281          M_sumb_d                              0.000138                          3   4
  282        brmix                                 0.016308                            1   3
  283          M_sumb_d                              0.000280                          6   4
  284          brpre                                 0.000051                          1   4
  285          setg0                                 0.001714                          1   4
  286          broyd                                 0.005075                          1   4
  287            M_sumb_d                              0.000683                       18   5
  288            brget                                 0.000353                       64   5
  289            brsav                                 0.000080                       16   5
  290          M_bcast_z                             0.008085                          1   4
  291          M_bcast_d                             0.000040                          1   4
  292        M_bcast_d                             0.000037                            2   3
  293      potlok                                0.030899                              1   2
  294        fft3d_mpi                             0.020677                           13   3
  295          fftbas_plan_mpi                       0.019002                         13   4
  296            dfftw_execute                         0.007301                       39   5
  297            map_forward                           0.004733                       14   5
  298              map_gather                            0.000815                      8   6
  299              m_alltoallv_z                         0.001769                      8   6
  300              map_scatter                           0.001782                      8   6
  301            map_backward                          0.004115                       12   5
  302              map_gather                            0.001280                      6   6
  303              m_alltoallv_z                         0.001466                      6   6
  304              map_scatter                           0.001074                      6   6
  305        ggaall_grid                           0.002091                            1   3
  306        M_sumb_d                              0.000239                            6   3
  307        M_bcast_d                             0.000108                            1   3
  308      potlok_metagga                        0.000004                              1   2
  309      set_dd_magatom                        0.000003                              1   2
  310      set_dd_paw                            0.000483                              1   2
  311        set_rsgf_all                          0.000004                            1   3
  312        M_sumb_d                              0.000289                            8   3
  313      densta                                0.002487                              1   2
  314        M_sumb_d                              0.000881                           42   3
  315      lprj_proall                           0.000007                              1   2

 Flat profile
 ============

             routine name                   CPU           calls
 ---------------------------------------------------------------
 total_time                             13.521129           1
 dfftw_execute                           5.986752       49392
 eddav                                   5.094790          16
 fftbas_plan_mpi                         3.605408       16466
 M_sumb_d                                2.739511       45872
 setdij_                                 2.509358          40
 set_charge                              2.050578          12
 m_alltoallv_z                           1.695614       16489
 pdssyex_zheevx                          1.494472         336
 elmin                                   1.320926           1
 M_alltoall_d                            1.304774       54852
 spher                                   0.988238          20
 proj1                                   0.980633        6702
 orth1                                   0.913872       11208
 vhamil                                  0.897102        7458
 gemm                                    0.878215       22374
 fftwav_mpi                              0.739285        8718
 map_forward                             0.728583       17714
 map_gather                              0.678130       16489
 map_scatter                             0.674186       16489
 M_bcast_z                               0.519127        6280
 vnlac0                                  0.502879        7458
 redis_pw                                0.469027       21072
 hamiltmu                                0.413374        3729
 redis_proj                              0.409047       26535
 w1_copy                                 0.330866       22374
 fft3d_mpi                               0.280427       16464
 map_backward                            0.268171       15214
 work_mul_crexp                          0.260351       22374
 fftext_mpi                              0.251478        7458
 crpa_reader                             0.249366           1
 crexp_mul_wave                          0.210696       20106
 eccp                                    0.206722        2016
 kinhamil                                0.155279        7458
 overl                                   0.149523       12921
 M_bcast_d                               0.123234        3761
 potlok                                  0.103646          13
 pw_charge                               0.097462        1260
 overl1                                  0.087728        7458
 apply_precond                           0.079299        5442
 setup_precond                           0.068860        2016
 lincom                                  0.063088         357
 w1_projall                              0.060294        2721
 force_and_stress                        0.057730           1
 fornl                                   0.050565           1
 phase                                   0.040235         568
 soft_charge                             0.033852          12
 truncate_high_frequency_w1              0.032439        9474
 ggaall_grid                             0.028379          14
 densta                                  0.025766          17
 strenl                                  0.023523           1
 setg0                                   0.017324          13
 brmix                                   0.014708          12
 broyd                                   0.011448          12
 forhar                                  0.007203           2
 depsum                                  0.005274          12
 forloc                                  0.003711           1
 strehar                                 0.002991           1
 strelo                                  0.002777           1
 chggra                                  0.002599           1
 set_dd_paw                              0.002320          14
 brget                                   0.002276         432
 orthch                                  0.002163           1
 choleski                                0.001913          21
 brgrid                                  0.001578           1
 proj                                    0.001557          21
 brsav                                   0.001336         128
 brpre                                   0.000733          12
 strkin                                  0.000730           1
 fordep                                  0.000122           1
 vectorpot                               0.000070          13
 set_rsgf_all                            0.000062          14
 potlok_metagga                          0.000051          13
 set_dd_magatom                          0.000049          14
 set_kineden                             0.000037          11
 rotate_active_occupied_orbital          0.000015           1
 lprj_proall                             0.000007           1
 redis_pw_over_bands                     0.000003           1
 ---------------------------------------------------------------
  summed up times    54.5370490550995

 Accumulative profile
 ====================

             routine name                   CPU           calls
 ---------------------------------------------------------------
 total_time                             54.537049           1
 elmin                                  36.270559           1
 eddav                                  30.196225          16
 fft3d_mpi                              13.871375       16464
 fftbas_plan_mpi                        13.636844       16466
 hamiltmu                                9.538889        3729
 fftwav_mpi                              7.865516        8718
 kinhamil                                6.040768        7458
 dfftw_execute                           5.986752       49392
 fftext_mpi                              5.885490        7458
 force_and_stress                        3.629975           1
 set_charge                              3.497244          12
 setdij_                                 3.148645          40
 M_sumb_d                                2.739511       45872
 map_forward                             2.494522       17714
 vnlac0                                  2.099917        7458
 m_alltoallv_z                           1.695614       16489
 proj1                                   1.652248        6702
 map_backward                            1.550161       15214
 pdssyex_zheevx                          1.494472         336
 w1_projall                              1.428590        2721
 M_alltoall_d                            1.304774       54852
 soft_charge                             1.235967          12
 redis_pw                                1.170067       21072
 strenl                                  1.161216           1
 redis_proj                              1.012781       26535
 spher                                   0.988238          20
 orth1                                   0.913872       11208
 vhamil                                  0.897102        7458
 gemm                                    0.878215       22374
 map_gather                              0.678130       16489
 map_scatter                             0.674186       16489
 M_bcast_z                               0.519127        6280
 fordep                                  0.465602           1
 potlok                                  0.403290          13
 w1_copy                                 0.330866       22374
 eccp                                    0.322706        2016
 work_mul_crexp                          0.260351       22374
 crpa_reader                             0.249366           1
 crexp_mul_wave                          0.210696       20106
 set_dd_paw                              0.158261          14
 overl                                   0.149523       12921
 M_bcast_d                               0.123234        3761
 setup_precond                           0.119418        2016
 pw_charge                               0.097462        1260
 overl1                                  0.087728        7458
 apply_precond                           0.079299        5442
 brmix                                   0.072162          12
 fornl                                   0.067177           1
 lincom                                  0.063088         357
 orthch                                  0.040620           1
 phase                                   0.040235         568
 densta                                  0.039706          17
 truncate_high_frequency_w1              0.032439        9474
 proj                                    0.029958          21
 ggaall_grid                             0.028379          14
 broyd                                   0.019778          12
 setg0                                   0.017324          13
 depsum                                  0.008789          12
 chggra                                  0.007412           1
 forhar                                  0.007313           2
 forloc                                  0.003765           1
 strehar                                 0.003055           1
 strelo                                  0.002995           1
 brget                                   0.002276         432
 choleski                                0.001913          21
 brgrid                                  0.001578           1
 brsav                                   0.001336         128
 strkin                                  0.000936           1
 brpre                                   0.000733          12
 vectorpot                               0.000070          13
 set_rsgf_all                            0.000062          14
 potlok_metagga                          0.000051          13
 set_dd_magatom                          0.000049          14
 set_kineden                             0.000037          11
 rotate_active_occupied_orbital          0.000015           1
 lprj_proall                             0.000007           1
 redis_pw_over_bands                     0.000003           1
 ---------------------------------------------------------------

Profiling took   1.314777  1.584146  0.006495  0.005089 seconds
Profiling took   1.283819 seconds
