<?xml version="1.0" encoding="ISO-8859-1"?>
<modeling>
 <generator>
  <i name="program" type="string">vasp </i>
  <i name="version" type="string">6.0.8  </i>
  <i name="subversion" type="string">29Jun18 (build Jun 13 2019 12:54:44) complex                          parallel </i>
  <i name="platform" type="string">IFC18_CrayMPICH </i>
  <i name="date" type="string">2021 12 05 </i>
  <i name="time" type="string">14:21:47 </i>
 </generator>
 <incar>
  <i type="int" name="KPAR">     4</i>
  <i type="int" name="NPAR">     4</i>
  <i type="int" name="ISTART">     0</i>
  <i type="string" name="PREC"> ACC</i>
  <i type="string" name="ALGO"> Normal</i>
  <i type="logical" name="ADDGRID"> T  </i>
  <i type="int" name="ISPIN">     1</i>
  <i type="int" name="NELMIN">     5</i>
  <i type="int" name="IBRION">    -1</i>
  <i name="EDIFF">      0.00000010</i>
  <i type="int" name="NSW">     0</i>
  <i type="int" name="ISIF">     3</i>
  <i name="ENCUT">    700.00000000</i>
  <i type="logical" name="LREAL"> F  </i>
  <i type="int" name="ISMEAR">     0</i>
  <i name="SIGMA">      0.01000000</i>
  <i type="logical" name="LWAVE"> F  </i>
  <i type="logical" name="LCHARG"> F  </i>
  <i type="logical" name="LVTOT"> F  </i>
  <i type="string" name="ALGO"> Normal</i>
  <i type="string" name="GGA"> PS</i>
  <i name="EDIFF">      0.00000010</i>
  <i type="int" name="ISPIN">     1</i>
 </incar>
 <structure name="primitive_cell" >
  <crystal>
   <varray name="basis" >
    <v>       0.00000000       3.40187268       3.40187268 </v>
    <v>       3.40187268       0.00000000       3.40187268 </v>
    <v>       3.40187268       3.40187268       0.00000000 </v>
   </varray>
   <i name="volume">     78.73796040 </i>
   <varray name="rec_basis" >
    <v>      -0.14697787       0.14697787       0.14697787 </v>
    <v>       0.14697787      -0.14697787       0.14697787 </v>
    <v>       0.14697787       0.14697787      -0.14697787 </v>
   </varray>
  </crystal>
  <varray name="positions" >
   <v>       0.25000000       0.25000000       0.25000000 </v>
   <v>       0.75000000       0.75000000       0.75000000 </v>
   <v>       0.00000000       0.00000000       0.00000000 </v>
  </varray>
 </structure>
 <varray name="primitive_index" >
  <v type="int" >        1 </v>
  <v type="int" >        2 </v>
  <v type="int" >        3 </v>
 </varray>
 <kpoints>
  <generation param="Gamma">
   <v type="int" name="divisions">      13       13       13 </v>
   <v name="usershift">      0.00000000       0.00000000       0.00000000 </v>
   <v name="genvec1">      0.07692308       0.00000000      -0.00000000 </v>
   <v name="genvec2">      0.00000000       0.07692308       0.00000000 </v>
   <v name="genvec3">     -0.00000000      -0.00000000       0.07692308 </v>
   <v name="shift">      0.00000000       0.00000000       0.00000000 </v>
  </generation>
  <varray name="kpointlist" >
   <v>       0.00000000       0.00000000       0.00000000 </v>
   <v>       0.07692308       0.00000000       0.00000000 </v>
   <v>       0.15384615      -0.00000000       0.00000000 </v>
   <v>       0.23076923       0.00000000      -0.00000000 </v>
   <v>       0.30769231      -0.00000000       0.00000000 </v>
   <v>       0.38461538       0.00000000      -0.00000000 </v>
   <v>       0.46153846      -0.00000000       0.00000000 </v>
   <v>       0.07692308       0.07692308      -0.00000000 </v>
   <v>       0.15384615       0.07692308       0.00000000 </v>
   <v>       0.23076923       0.07692308       0.00000000 </v>
   <v>       0.30769231       0.07692308      -0.00000000 </v>
   <v>       0.38461538       0.07692308       0.00000000 </v>
   <v>       0.46153846       0.07692308      -0.00000000 </v>
   <v>      -0.46153846       0.07692308      -0.00000000 </v>
   <v>      -0.38461538       0.07692308      -0.00000000 </v>
   <v>      -0.30769231       0.07692308       0.00000000 </v>
   <v>      -0.23076923       0.07692308       0.00000000 </v>
   <v>      -0.15384615       0.07692308       0.00000000 </v>
   <v>      -0.07692308       0.07692308       0.00000000 </v>
   <v>       0.15384615       0.15384615      -0.00000000 </v>
   <v>       0.23076923       0.15384615       0.00000000 </v>
   <v>       0.30769231       0.15384615       0.00000000 </v>
   <v>       0.38461538       0.15384615       0.00000000 </v>
   <v>       0.46153846       0.15384615       0.00000000 </v>
   <v>      -0.46153846       0.15384615      -0.00000000 </v>
   <v>      -0.38461538       0.15384615       0.00000000 </v>
   <v>      -0.30769231       0.15384615      -0.00000000 </v>
   <v>      -0.23076923       0.15384615       0.00000000 </v>
   <v>      -0.15384615       0.15384615      -0.00000000 </v>
   <v>       0.23076923       0.23076923      -0.00000000 </v>
   <v>       0.30769231       0.23076923      -0.00000000 </v>
   <v>       0.38461538       0.23076923      -0.00000000 </v>
   <v>       0.46153846       0.23076923       0.00000000 </v>
   <v>      -0.46153846       0.23076923       0.00000000 </v>
   <v>      -0.38461538       0.23076923      -0.00000000 </v>
   <v>      -0.30769231       0.23076923      -0.00000000 </v>
   <v>      -0.23076923       0.23076923       0.00000000 </v>
   <v>       0.30769231       0.30769231      -0.00000000 </v>
   <v>       0.38461538       0.30769231      -0.00000000 </v>
   <v>       0.46153846       0.30769231      -0.00000000 </v>
   <v>      -0.46153846       0.30769231       0.00000000 </v>
   <v>      -0.38461538       0.30769231       0.00000000 </v>
   <v>      -0.30769231       0.30769231      -0.00000000 </v>
   <v>       0.38461538       0.38461538      -0.00000000 </v>
   <v>       0.46153846       0.38461538      -0.00000000 </v>
   <v>      -0.46153846       0.38461538      -0.00000000 </v>
   <v>      -0.38461538       0.38461538       0.00000000 </v>
   <v>       0.46153846       0.46153846      -0.00000000 </v>
   <v>      -0.46153846       0.46153846      -0.00000000 </v>
   <v>       0.23076923       0.15384615       0.07692308 </v>
   <v>       0.30769231       0.15384615       0.07692308 </v>
   <v>       0.38461538       0.15384615       0.07692308 </v>
   <v>       0.46153846       0.15384615       0.07692308 </v>
   <v>      -0.46153846       0.15384615       0.07692308 </v>
   <v>       0.30769231       0.23076923       0.07692308 </v>
   <v>       0.38461538       0.23076923       0.07692308 </v>
   <v>       0.46153846       0.23076923       0.07692308 </v>
   <v>      -0.46153846       0.23076923       0.07692308 </v>
   <v>      -0.38461538       0.23076923       0.07692308 </v>
   <v>      -0.30769231       0.23076923       0.07692308 </v>
   <v>      -0.23076923       0.23076923       0.07692308 </v>
   <v>      -0.15384615       0.23076923       0.07692308 </v>
   <v>       0.38461538       0.30769231       0.07692308 </v>
   <v>       0.46153846       0.30769231       0.07692308 </v>
   <v>      -0.46153846       0.30769231       0.07692308 </v>
   <v>      -0.38461538       0.30769231       0.07692308 </v>
   <v>      -0.30769231       0.30769231       0.07692308 </v>
   <v>      -0.23076923       0.30769231       0.07692308 </v>
   <v>       0.46153846       0.38461538       0.07692308 </v>
   <v>      -0.46153846       0.38461538       0.07692308 </v>
   <v>      -0.38461538       0.38461538       0.07692308 </v>
   <v>      -0.30769231       0.38461538       0.07692308 </v>
   <v>      -0.46153846       0.46153846       0.07692308 </v>
   <v>      -0.38461538       0.46153846       0.07692308 </v>
   <v>       0.46153846       0.30769231       0.15384615 </v>
   <v>      -0.46153846       0.30769231       0.15384615 </v>
   <v>      -0.38461538       0.30769231       0.15384615 </v>
   <v>      -0.46153846       0.38461538       0.15384615 </v>
   <v>      -0.38461538       0.38461538       0.15384615 </v>
   <v>      -0.30769231       0.38461538       0.15384615 </v>
   <v>      -0.23076923       0.38461538       0.15384615 </v>
   <v>      -0.38461538       0.46153846       0.15384615 </v>
   <v>      -0.30769231       0.46153846       0.15384615 </v>
   <v>      -0.30769231       0.46153846       0.23076923 </v>
  </varray>
  <varray name="weights" >
   <v>       0.00045517 </v>
   <v>       0.00364133 </v>
   <v>       0.00364133 </v>
   <v>       0.00364133 </v>
   <v>       0.00364133 </v>
   <v>       0.00364133 </v>
   <v>       0.00364133 </v>
   <v>       0.00273100 </v>
   <v>       0.01092399 </v>
   <v>       0.01092399 </v>
   <v>       0.01092399 </v>
   <v>       0.01092399 </v>
   <v>       0.01092399 </v>
   <v>       0.01092399 </v>
   <v>       0.01092399 </v>
   <v>       0.01092399 </v>
   <v>       0.01092399 </v>
   <v>       0.01092399 </v>
   <v>       0.00546199 </v>
   <v>       0.00273100 </v>
   <v>       0.01092399 </v>
   <v>       0.01092399 </v>
   <v>       0.01092399 </v>
   <v>       0.01092399 </v>
   <v>       0.01092399 </v>
   <v>       0.01092399 </v>
   <v>       0.01092399 </v>
   <v>       0.01092399 </v>
   <v>       0.00546199 </v>
   <v>       0.00273100 </v>
   <v>       0.01092399 </v>
   <v>       0.01092399 </v>
   <v>       0.01092399 </v>
   <v>       0.01092399 </v>
   <v>       0.01092399 </v>
   <v>       0.01092399 </v>
   <v>       0.00546199 </v>
   <v>       0.00273100 </v>
   <v>       0.01092399 </v>
   <v>       0.01092399 </v>
   <v>       0.01092399 </v>
   <v>       0.01092399 </v>
   <v>       0.00546199 </v>
   <v>       0.00273100 </v>
   <v>       0.01092399 </v>
   <v>       0.01092399 </v>
   <v>       0.00546199 </v>
   <v>       0.00273100 </v>
   <v>       0.00546199 </v>
   <v>       0.01092399 </v>
   <v>       0.02184797 </v>
   <v>       0.02184797 </v>
   <v>       0.02184797 </v>
   <v>       0.02184797 </v>
   <v>       0.01092399 </v>
   <v>       0.02184797 </v>
   <v>       0.02184797 </v>
   <v>       0.02184797 </v>
   <v>       0.02184797 </v>
   <v>       0.02184797 </v>
   <v>       0.02184797 </v>
   <v>       0.01092399 </v>
   <v>       0.01092399 </v>
   <v>       0.02184797 </v>
   <v>       0.02184797 </v>
   <v>       0.02184797 </v>
   <v>       0.02184797 </v>
   <v>       0.01092399 </v>
   <v>       0.01092399 </v>
   <v>       0.02184797 </v>
   <v>       0.02184797 </v>
   <v>       0.01092399 </v>
   <v>       0.01092399 </v>
   <v>       0.01092399 </v>
   <v>       0.01092399 </v>
   <v>       0.02184797 </v>
   <v>       0.02184797 </v>
   <v>       0.01092399 </v>
   <v>       0.02184797 </v>
   <v>       0.02184797 </v>
   <v>       0.01092399 </v>
   <v>       0.01092399 </v>
   <v>       0.01092399 </v>
   <v>       0.01092399 </v>
  </varray>
 </kpoints>
 <parameters>
  <separator name="general" >
   <i type="string" name="SYSTEM">unknown system</i>
   <i type="logical" name="LCOMPAT"> F  </i>
  </separator>
  <separator name="electronic" >
   <i type="string" name="PREC">acc</i>
   <i name="ENMAX">    700.00000000</i>
   <i name="ENAUG">    535.43100000</i>
   <i name="EDIFF">      0.00000010</i>
   <i type="int" name="IALGO">    38</i>
   <i type="int" name="IWAVPR">    10</i>
   <i type="int" name="NBANDS">    24</i>
   <i type="int" name="NBANDSLOW">    -1</i>
   <i type="int" name="NBANDSHIGH">    -1</i>
   <i name="NELECT">     37.00000000</i>
   <i type="int" name="TURBO">     0</i>
   <i type="int" name="IRESTART">     0</i>
   <i type="int" name="NREBOOT">     0</i>
   <i type="int" name="NMIN">     0</i>
   <i name="EREF">      0.00000000</i>
   <separator name="electronic smearing" >
    <i type="int" name="ISMEAR">     0</i>
    <i name="SIGMA">      0.01000000</i>
    <i name="KSPACING">      0.50000000</i>
    <i type="logical" name="KGAMMA"> T  </i>
    <i type="logical" name="KBLOWUP"> T  </i>
   </separator>
   <separator name="electronic projectors" >
    <i type="logical" name="LREAL"> F  </i>
    <v name="ROPT">      0.00000000      0.00000000      0.00000000</v>
    <i type="int" name="LMAXPAW">  -100</i>
    <i type="int" name="LMAXMIX">     2</i>
    <i type="logical" name="NLSPLINE"> F  </i>
   </separator>
   <separator name="electronic startup" >
    <i type="int" name="ISTART">     0</i>
    <i type="int" name="ICHARG">     2</i>
    <i type="int" name="INIWAV">     1</i>
   </separator>
   <separator name="electronic spin" >
    <i type="int" name="ISPIN">     1</i>
    <i type="logical" name="LNONCOLLINEAR"> F  </i>
    <v name="MAGMOM">      1.00000000      1.00000000      1.00000000</v>
    <i name="NUPDOWN">     -1.00000000</i>
    <i type="logical" name="LSORBIT"> F  </i>
    <v name="SAXIS">      0.00000000      0.00000000      1.00000000</v>
    <i type="logical" name="LSPIRAL"> F  </i>
    <v name="QSPIRAL">      0.00000000      0.00000000      0.00000000</v>
    <i type="logical" name="LZEROZ"> F  </i>
   </separator>
   <separator name="electronic exchange-correlation" >
    <i type="logical" name="LASPH"> F  </i>
    <i type="logical" name="LMETAGGA"> F  </i>
   </separator>
   <separator name="electronic convergence" >
    <i type="int" name="NELM">    60</i>
    <i type="int" name="NELMDL">    -5</i>
    <i type="int" name="NELMIN">     5</i>
    <i name="ENINI">    700.00000000</i>
    <separator name="electronic convergence detail" >
     <i type="logical" name="LDIAG"> T  </i>
     <i type="logical" name="LSUBROT"> F  </i>
     <i name="WEIMIN">      0.00000000</i>
     <i name="EBREAK">      0.00000000</i>
     <i name="DEPER">      0.30000000</i>
     <i type="int" name="NRMM">     4</i>
     <i name="TIME">      0.40000000</i>
    </separator>
   </separator>
   <separator name="electronic mixer" >
    <i name="AMIX">      0.40000000</i>
    <i name="BMIX">      1.00000000</i>
    <i name="AMIN">      0.10000000</i>
    <i name="AMIX_MAG">      1.60000000</i>
    <i name="BMIX_MAG">      1.00000000</i>
    <separator name="electronic mixer details" >
     <i type="int" name="IMIX">     4</i>
     <i type="logical" name="MIXFIRST"> F  </i>
     <i type="int" name="MAXMIX">   -45</i>
     <i name="WC">    100.00000000</i>
     <i type="int" name="INIMIX">     1</i>
     <i type="int" name="MIXPRE">     1</i>
     <i type="int" name="MREMOVE">     5</i>
    </separator>
   </separator>
   <separator name="electronic dipolcorrection" >
    <i type="logical" name="LDIPOL"> F  </i>
    <i type="logical" name="LMONO"> F  </i>
    <i type="int" name="IDIPOL">     0</i>
    <i name="EPSILON">      1.00000000</i>
    <v name="DIPOL">   -100.00000000   -100.00000000   -100.00000000</v>
    <i name="EFIELD">      0.00000000</i>
   </separator>
  </separator>
  <separator name="grids" >
   <i type="int" name="NGX">    42</i>
   <i type="int" name="NGY">    42</i>
   <i type="int" name="NGZ">    42</i>
   <i type="int" name="NGXF">    84</i>
   <i type="int" name="NGYF">    84</i>
   <i type="int" name="NGZF">    84</i>
   <i type="logical" name="ADDGRID"> T  </i>
  </separator>
  <separator name="ionic" >
   <i type="int" name="NSW">     0</i>
   <i type="int" name="IBRION">    -1</i>
   <i type="int" name="MDALGO">     0</i>
   <i type="int" name="ISIF">     3</i>
   <i name="PSTRESS">      0.00000000</i>
   <i name="EDIFFG">      0.00000100</i>
   <i type="int" name="NFREE">     0</i>
   <i name="POTIM">      0.50000000</i>
   <i name="SMASS">     -3.00000000</i>
   <i name="SCALEE">      1.00000000</i>
  </separator>
  <separator name="ionic md" >
   <i name="TEBEG">      0.00010000</i>
   <i name="TEEND">      0.00010000</i>
   <i type="int" name="NBLOCK">     1</i>
   <i type="int" name="KBLOCK">     1</i>
   <i type="int" name="NPACO">   256</i>
   <i name="APACO">     16.00000000</i>
  </separator>
  <separator name="symmetry" >
   <i type="int" name="ISYM">     2</i>
   <i name="SYMPREC">      0.00001000</i>
  </separator>
  <separator name="dos" >
   <i type="int" name="LORBIT">     0</i>
   <v name="RWIGS">     -1.00000000     -1.00000000     -1.00000000</v>
   <i type="int" name="NEDOS">   301</i>
   <i name="EMIN">     10.00000000</i>
   <i name="EMAX">    -10.00000000</i>
   <i name="EFERMI">      0.00000000</i>
  </separator>
  <separator name="writing" >
   <i type="int" name="NWRITE">     2</i>
   <i type="logical" name="LWAVE"> F  </i>
   <i type="logical" name="LDOWNSAMPLE"> F  </i>
   <i type="logical" name="LCHARG"> F  </i>
   <i type="logical" name="LPARD"> F  </i>
   <i type="logical" name="LVTOT"> F  </i>
   <i type="logical" name="LVHAR"> F  </i>
   <i type="logical" name="LELF"> F  </i>
   <i type="logical" name="LOPTICS"> F  </i>
   <v name="STM">      0.00000000      0.00000000      0.00000000      0.00000000      0.00000000      0.00000000      0.00000000</v>
  </separator>
  <separator name="performance" >
   <i type="int" name="NPAR">     4</i>
   <i type="int" name="NSIM">     4</i>
   <i type="int" name="NBLK">    -1</i>
   <i type="logical" name="LPLANE"> T  </i>
   <i type="logical" name="LSCALAPACK"> T  </i>
   <i type="logical" name="LSCAAWARE"> F  </i>
   <i type="logical" name="LSCALU"> F  </i>
   <i type="logical" name="LASYNC"> F  </i>
   <i type="logical" name="LORBITALREAL"> F  </i>
  </separator>
  <separator name="miscellaneous" >
   <i type="int" name="IDIOT">     3</i>
   <i type="int" name="PHON_NSTRUCT">    -1</i>
   <i type="logical" name="LMUSIC"> F  </i>
   <v name="POMASS">    232.03900000    208.98000000    195.08000000</v>
   <v name="DARWINR">      0.00000000      0.00000000      0.00000000</v>
   <v name="DARWINV">      1.00000000      1.00000000      1.00000000</v>
   <i type="logical" name="LCORR"> T  </i>
  </separator>
  <i type="logical" name="GGA_COMPAT"> T  </i>
  <i type="logical" name="LBERRY"> F  </i>
  <i type="int" name="ICORELEVEL">     0</i>
  <i type="logical" name="LDAU"> F  </i>
  <i type="int" name="I_CONSTRAINED_M">     0</i>
  <separator name="electronic exchange-correlation" >
   <i type="string" name="GGA">PS</i>
   <i type="int" name="VOSKOWN">     0</i>
   <i type="logical" name="LHFCALC"> F  </i>
   <i type="string" name="PRECFOCK"></i>
   <i type="logical" name="LSYMGRAD"> F  </i>
   <i type="logical" name="LHFONE"> F  </i>
   <i type="logical" name="LRHFCALC"> F  </i>
   <i type="logical" name="LTHOMAS"> F  </i>
   <i type="logical" name="LMODELHF"> F  </i>
   <i type="logical" name="LFOCKACE"> F  </i>
   <i name="ENCUT4O">     -1.00000000</i>
   <i type="int" name="EXXOEP">     0</i>
   <i type="int" name="FOURORBIT">     0</i>
   <i name="AEXX">      0.00000000</i>
   <i name="HFALPHA">      0.00000000</i>
   <i name="MCALPHA">      0.00000000</i>
   <i name="ALDAX">      1.00000000</i>
   <i name="AGGAX">      1.00000000</i>
   <i name="ALDAC">      1.00000000</i>
   <i name="AGGAC">      1.00000000</i>
   <i type="int" name="NKREDX">     1</i>
   <i type="int" name="NKREDY">     1</i>
   <i type="int" name="NKREDZ">     1</i>
   <i type="logical" name="SHIFTRED"> F  </i>
   <i type="logical" name="ODDONLY"> F  </i>
   <i type="logical" name="EVENONLY"> F  </i>
   <i type="int" name="LMAXFOCK">     0</i>
   <i type="int" name="NMAXFOCKAE">     0</i>
   <i type="logical" name="LFOCKAEDFT"> F  </i>
   <i name="HFSCREEN">      0.00000000</i>
   <i name="HFSCREENC">      0.00000000</i>
   <i type="int" name="NBANDSGWLOW">     0</i>
  </separator>
  <separator name="vdW DFT" >
   <i type="logical" name="LUSE_VDW"> F  </i>
   <i name="Zab_VDW">     -0.84910000</i>
   <i name="PARAM1">      0.12340000</i>
   <i name="PARAM2">      1.00000000</i>
   <i name="PARAM3">      0.00000000</i>
  </separator>
  <separator name="model GW" >
   <i type="int" name="MODEL_GW">     0</i>
   <i name="MODEL_EPS0">     15.74759208</i>
   <i name="MODEL_ALPHA">      1.00000000</i>
  </separator>
  <separator name="linear response parameters" >
   <i type="logical" name="LEPSILON"> F  </i>
   <i type="logical" name="LRPA"> F  </i>
   <i type="logical" name="LNABLA"> F  </i>
   <i type="logical" name="LVEL"> F  </i>
   <i type="int" name="KINTER">     0</i>
   <i name="CSHIFT">      0.10000000</i>
   <i name="OMEGAMAX">     -1.00000000</i>
   <i name="DEG_THRESHOLD">      0.00200000</i>
   <i name="RTIME">     -0.10000000</i>
   <i name="WPLASMAI">      0.00000000</i>
   <v name="DFIELD">      0.00000000      0.00000000      0.00000000</v>
   <v name="WPLASMA">      0.00000000      0.00000000      0.00000000      0.00000000      0.00000000      0.00000000      0.00000000      0.00000000      0.00000000</v>
  </separator>
  <separator name="orbital magnetization" >
   <i type="logical" name="NUCIND"> F  </i>
   <v name="MAGPOS">      0.00000000      0.00000000      0.00000000</v>
   <i type="logical" name="LNICSALL"> T  </i>
   <i type="logical" name="ORBITALMAG"> F  </i>
   <i type="logical" name="LMAGBLOCH"> F  </i>
   <i type="logical" name="LCHIMAG"> F  </i>
   <i type="logical" name="LGAUGE"> T  </i>
   <i type="int" name="MAGATOM">     0</i>
   <v name="MAGDIPOL">      0.00000000      0.00000000      0.00000000</v>
   <v name="AVECCONST">      0.00000000      0.00000000      0.00000000</v>
  </separator>
  <separator name="response functions" >
   <i type="logical" name="LFINITE_TEMPERATURE"> F  </i>
   <i type="logical" name="LADDER"> F  </i>
   <i type="logical" name="LRPAFORCE"> F  </i>
   <i type="logical" name="LFXC"> F  </i>
   <i type="logical" name="LHARTREE"> T  </i>
   <i type="int" name="IBSE">     0</i>
   <v type="int" name="KPOINT">    -1     0     0     0</v>
   <i type="logical" name="LTCTC"> F  </i>
   <i type="logical" name="LTCTE"> F  </i>
   <i type="logical" name="LTETE"> F  </i>
   <i type="logical" name="LTRIPLET"> F  </i>
   <i type="logical" name="LFXCEPS"> F  </i>
   <i type="logical" name="LFXHEG"> F  </i>
   <i type="int" name="NATURALO">     2</i>
   <i type="logical" name="L2ORDER"> F  </i>
   <i type="logical" name="LDMP1"> F  </i>
   <i type="logical" name="LMP2LT"> F  </i>
   <i type="logical" name="LSMP2LT"> F  </i>
   <i type="logical" name="LUSEW"> F  </i>
   <i name="ENCUTGW">     -2.00000000</i>
   <i name="ENCUTGWSOFT">     -2.00000000</i>
   <i name="ENCUTLF">     -1.00000000</i>
   <i type="int" name="LMAXMP2">    -1</i>
   <i name="SCISSOR">      0.00000000</i>
   <i type="int" name="NOMEGA">     0</i>
   <i type="int" name="NOMEGAR">     0</i>
   <i type="int" name="NBANDSGW">    -1</i>
   <i type="int" name="NBANDSO">    -1</i>
   <i type="int" name="NBANDSV">    -1</i>
   <i type="int" name="NELM">     1</i>
   <i type="int" name="NELMHF">     1</i>
   <i type="int" name="DIM">     3</i>
   <i type="int" name="IESPILON">     4</i>
   <i type="int" name="ANTIRES">     0</i>
   <i name="OMEGAMAX">    -30.00000000</i>
   <i name="OMEGAMIN">    -30.00000000</i>
   <i name="OMEGATL">   -200.00000000</i>
   <i type="int" name="OMEGAGRID">   145</i>
   <i name="CSHIFT">     -0.10000000</i>
   <i type="logical" name="LSELFENERGY"> F  </i>
   <i type="logical" name="LSPECTRAL"> F  </i>
   <i type="logical" name="LSPECTRALGW"> F  </i>
   <i type="logical" name="LSINGLES"> F  </i>
   <i type="logical" name="LFERMIGW"> F  </i>
   <i type="logical" name="ODDONLYGW"> F  </i>
   <i type="logical" name="EVENONLYGW"> F  </i>
   <i type="int" name="NKREDLFX">     1</i>
   <i type="int" name="NKREDLFY">     1</i>
   <i type="int" name="NKREDLFZ">     1</i>
   <i type="int" name="MAXMEM">  2800</i>
   <i type="int" name="TELESCOPE">     0</i>
   <i type="int" name="NTAUPAR">     1</i>
   <i type="int" name="NOMEGAPAR">    -1</i>
   <i name="LAMBDA">      1.00000000</i>
  </separator>
  <separator name="External order field" >
   <i name="OFIELD_KAPPA">      0.00000000</i>
   <v name="OFIELD_K">      0.00000000      0.00000000      0.00000000</v>
   <i name="OFIELD_Q6_NEAR">      0.00000000</i>
   <i name="OFIELD_Q6_FAR">      0.00000000</i>
   <i name="OFIELD_A">      0.00000000</i>
  </separator>
 </parameters>
 <atominfo>
  <atoms>       3 </atoms>
  <types>       3 </types>
  <array name="atoms" >
   <dimension dim="1">ion</dimension>
   <field type="string">element</field>
   <field type="int">atomtype</field>
   <set>
    <rc><c>Th</c><c>   1</c></rc>
    <rc><c>Bi</c><c>   2</c></rc>
    <rc><c>Pt</c><c>   3</c></rc>
   </set>
  </array>
  <array name="atomtypes" >
   <dimension dim="1">type</dimension>
   <field type="int">atomspertype</field>
   <field type="string">element</field>
   <field>mass</field>
   <field>valence</field>
   <field type="string">pseudopotential</field>
   <set>
    <rc><c>   1</c><c>Th</c><c>    232.03900000</c><c>     12.00000000</c><c>  PAW_PBE Th 07Sep2000                  </c></rc>
    <rc><c>   1</c><c>Bi</c><c>    208.98000000</c><c>     15.00000000</c><c>  PAW_PBE Bi_d 06Sep2000                </c></rc>
    <rc><c>   1</c><c>Pt</c><c>    195.08000000</c><c>     10.00000000</c><c>  PAW_PBE Pt 04Feb2005                  </c></rc>
   </set>
  </array>
 </atominfo>
 <structure name="initialpos" >
  <crystal>
   <varray name="basis" >
    <v>       0.00000000       3.40187268       3.40187268 </v>
    <v>       3.40187268       0.00000000       3.40187268 </v>
    <v>       3.40187268       3.40187268       0.00000000 </v>
   </varray>
   <i name="volume">     78.73796040 </i>
   <varray name="rec_basis" >
    <v>      -0.14697787       0.14697787       0.14697787 </v>
    <v>       0.14697787      -0.14697787       0.14697787 </v>
    <v>       0.14697787       0.14697787      -0.14697787 </v>
   </varray>
  </crystal>
  <varray name="positions" >
   <v>       0.25000000       0.25000000       0.25000000 </v>
   <v>       0.75000000       0.75000000       0.75000000 </v>
   <v>       0.00000000       0.00000000       0.00000000 </v>
  </varray>
 </structure>
 <calculation>
  <scstep>
   <time name="dav">    1.51    1.54</time>
   <time name="total">    1.66    1.78</time>
   <energy>
    <i name="alphaZ">    218.21193859 </i>
    <i name="ewald">  -3148.90689540 </i>
    <i name="hartreedc">   -747.42999512 </i>
    <i name="XCdc">     68.52093818 </i>
    <i name="pawpsdc">   3147.30828992 </i>
    <i name="pawaedc">  -3070.62761383 </i>
    <i name="eentropy">     -0.00022197 </i>
    <i name="bandstr">    305.75306165 </i>
    <i name="atom">   3674.67342263 </i>
    <i name="e_fr_energy">    447.50292464 </i>
    <i name="e_wo_entrp">    447.50314661 </i>
    <i name="e_0_energy">    447.50303563 </i>
   </energy>
  </scstep>
  <scstep>
   <time name="dav">    1.53    1.56</time>
   <time name="total">    1.53    1.56</time>
   <energy>
    <i name="e_fr_energy">     48.82891004 </i>
    <i name="e_wo_entrp">     48.82913192 </i>
    <i name="e_0_energy">     48.82902098 </i>
   </energy>
  </scstep>
  <scstep>
   <time name="dav">    1.93    1.96</time>
   <time name="total">    1.94    1.97</time>
   <energy>
    <i name="e_fr_energy">    -18.36953457 </i>
    <i name="e_wo_entrp">    -18.36947811 </i>
    <i name="e_0_energy">    -18.36950634 </i>
   </energy>
  </scstep>
  <scstep>
   <time name="dav">    2.35    2.37</time>
   <time name="total">    2.35    2.38</time>
   <energy>
    <i name="e_fr_energy">    -22.76739465 </i>
    <i name="e_wo_entrp">    -22.76732576 </i>
    <i name="e_0_energy">    -22.76736021 </i>
   </energy>
  </scstep>
  <scstep>
   <time name="dav">    2.01    2.03</time>
   <time name="total">    2.36    2.38</time>
   <energy>
    <i name="e_fr_energy">    -22.90798559 </i>
    <i name="e_wo_entrp">    -22.90791888 </i>
    <i name="e_0_energy">    -22.90795224 </i>
   </energy>
  </scstep>
  <scstep>
   <time name="dav">    1.78    1.78</time>
   <time name="total">    2.23    2.25</time>
   <energy>
    <i name="e_fr_energy">    -22.02024472 </i>
    <i name="e_wo_entrp">    -22.01999318 </i>
    <i name="e_0_energy">    -22.02011895 </i>
   </energy>
  </scstep>
  <scstep>
   <time name="dav">    2.06    2.06</time>
   <time name="total">    2.49    2.52</time>
   <energy>
    <i name="e_fr_energy">    -21.89688286 </i>
    <i name="e_wo_entrp">    -21.89642958 </i>
    <i name="e_0_energy">    -21.89665622 </i>
   </energy>
  </scstep>
  <scstep>
   <time name="dav">    1.82    1.82</time>
   <time name="total">    2.25    2.28</time>
   <energy>
    <i name="e_fr_energy">    -21.85187267 </i>
    <i name="e_wo_entrp">    -21.85168747 </i>
    <i name="e_0_energy">    -21.85178007 </i>
   </energy>
  </scstep>
  <scstep>
   <time name="dav">    2.04    2.04</time>
   <time name="total">    2.47    2.50</time>
   <energy>
    <i name="e_fr_energy">    -21.84357348 </i>
    <i name="e_wo_entrp">    -21.84336944 </i>
    <i name="e_0_energy">    -21.84347146 </i>
   </energy>
  </scstep>
  <scstep>
   <time name="dav">    1.79    1.79</time>
   <time name="total">    2.22    2.24</time>
   <energy>
    <i name="e_fr_energy">    -21.83794034 </i>
    <i name="e_wo_entrp">    -21.83767802 </i>
    <i name="e_0_energy">    -21.83780918 </i>
   </energy>
  </scstep>
  <scstep>
   <time name="dav">    1.99    1.99</time>
   <time name="total">    2.43    2.46</time>
   <energy>
    <i name="e_fr_energy">    -21.83812886 </i>
    <i name="e_wo_entrp">    -21.83786586 </i>
    <i name="e_0_energy">    -21.83799736 </i>
   </energy>
  </scstep>
  <scstep>
   <time name="dav">    1.97    1.97</time>
   <time name="total">    2.40    2.43</time>
   <energy>
    <i name="e_fr_energy">    -21.83803141 </i>
    <i name="e_wo_entrp">    -21.83776779 </i>
    <i name="e_0_energy">    -21.83789960 </i>
   </energy>
  </scstep>
  <scstep>
   <time name="dav">    2.14    2.14</time>
   <time name="total">    2.56    2.59</time>
   <energy>
    <i name="e_fr_energy">    -21.83802888 </i>
    <i name="e_wo_entrp">    -21.83776550 </i>
    <i name="e_0_energy">    -21.83789719 </i>
   </energy>
  </scstep>
  <scstep>
   <time name="dav">    1.80    1.80</time>
   <time name="total">    2.22    2.26</time>
   <energy>
    <i name="e_fr_energy">    -21.83802772 </i>
    <i name="e_wo_entrp">    -21.83776429 </i>
    <i name="e_0_energy">    -21.83789601 </i>
   </energy>
  </scstep>
  <scstep>
   <time name="dav">    2.11    2.11</time>
   <time name="total">    2.55    2.57</time>
   <energy>
    <i name="e_fr_energy">    -21.83802740 </i>
    <i name="e_wo_entrp">    -21.83776393 </i>
    <i name="e_0_energy">    -21.83789567 </i>
   </energy>
  </scstep>
  <scstep>
   <time name="dav">    1.38    1.38</time>
   <time name="total">    1.51    1.54</time>
   <energy>
    <i name="alphaZ">    218.21193859 </i>
    <i name="ewald">  -3148.90689540 </i>
    <i name="hartreedc">   -721.56128419 </i>
    <i name="XCdc">     67.85577184 </i>
    <i name="pawpsdc">   3962.08855683 </i>
    <i name="pawaedc">  -3894.62915430 </i>
    <i name="eentropy">     -0.00026346 </i>
    <i name="bandstr">   -179.57011995 </i>
    <i name="atom">   3674.67342263 </i>
    <i name="e_fr_energy">    -21.83802742 </i>
    <i name="e_wo_entrp">    -21.83776397 </i>
    <i name="e_0_energy">    -21.83789569 </i>
   </energy>
  </scstep>
  <structure>
   <crystal>
    <varray name="basis" >
     <v>       0.00000000       3.40187268       3.40187268 </v>
     <v>       3.40187268       0.00000000       3.40187268 </v>
     <v>       3.40187268       3.40187268       0.00000000 </v>
    </varray>
    <i name="volume">     78.73796040 </i>
    <varray name="rec_basis" >
     <v>      -0.14697787       0.14697787       0.14697787 </v>
     <v>       0.14697787      -0.14697787       0.14697787 </v>
     <v>       0.14697787       0.14697787      -0.14697787 </v>
    </varray>
   </crystal>
   <varray name="positions" >
    <v>       0.25000000       0.25000000       0.25000000 </v>
    <v>       0.75000000       0.75000000       0.75000000 </v>
    <v>       0.00000000       0.00000000       0.00000000 </v>
   </varray>
  </structure>
  <varray name="forces" >
   <v>      -0.00000000      -0.00000000       0.00000000 </v>
   <v>      -0.00000000      -0.00000000       0.00000000 </v>
   <v>       0.00000000       0.00000000      -0.00000000 </v>
  </varray>
  <varray name="stress" >
   <v>      23.07769179      -0.00000000       0.00000000 </v>
   <v>       0.00000000      23.07769179      -0.00000000 </v>
   <v>       0.00000000       0.00000000      23.07769179 </v>
  </varray>
  <energy>
   <i name="e_fr_energy">    -21.83802742 </i>
   <i name="e_wo_entrp">    -21.83789569 </i>
   <i name="e_0_energy">     -0.00026346 </i>
  </energy>
  <time name="totalsc">   39.06   40.08</time>
  <eigenvalues>
   <array>
    <dimension dim="1">band</dimension>
    <dimension dim="2">kpoint</dimension>
    <dimension dim="3">spin</dimension>
    <field>eigene</field>
    <field>occ</field>
    <set>
     <set comment="spin 1">
      <set comment="kpoint 1">
       <r>  -31.2742    1.0000 </r>
       <r>  -14.2750    1.0000 </r>
       <r>  -14.2750    1.0000 </r>
       <r>  -14.2403    1.0000 </r>
       <r>  -14.2403    1.0000 </r>
       <r>  -14.2403    1.0000 </r>
       <r>   -9.2930    1.0000 </r>
       <r>   -9.2930    1.0000 </r>
       <r>   -9.2930    1.0000 </r>
       <r>   -3.6205    1.0000 </r>
       <r>    4.3433    1.0000 </r>
       <r>    4.3433    1.0000 </r>
       <r>    4.3433    1.0000 </r>
       <r>    4.5382    1.0000 </r>
       <r>    4.5382    1.0000 </r>
       <r>    6.9223    1.0000 </r>
       <r>    7.6095    1.0000 </r>
       <r>    7.6095    1.0000 </r>
       <r>    7.6095    1.0000 </r>
       <r>    8.9688    0.0000 </r>
       <r>    8.9688    0.0000 </r>
       <r>    8.9688    0.0000 </r>
       <r>    9.8112    0.0000 </r>
       <r>   10.7946    0.0000 </r>
      </set>
      <set comment="kpoint 2">
       <r>  -31.2738    1.0000 </r>
       <r>  -14.2758    1.0000 </r>
       <r>  -14.2758    1.0000 </r>
       <r>  -14.2405    1.0000 </r>
       <r>  -14.2401    1.0000 </r>
       <r>  -14.2401    1.0000 </r>
       <r>   -9.3113    1.0000 </r>
       <r>   -9.2906    1.0000 </r>
       <r>   -9.2906    1.0000 </r>
       <r>   -3.5557    1.0000 </r>
       <r>    4.2065    1.0000 </r>
       <r>    4.2065    1.0000 </r>
       <r>    4.2101    1.0000 </r>
       <r>    4.6670    1.0000 </r>
       <r>    4.6670    1.0000 </r>
       <r>    6.5502    1.0000 </r>
       <r>    7.5267    1.0000 </r>
       <r>    7.5267    1.0000 </r>
       <r>    7.8528    1.0000 </r>
       <r>    9.0666    0.0000 </r>
       <r>    9.0666    0.0000 </r>
       <r>    9.0788    0.0000 </r>
       <r>   10.0420    0.0000 </r>
       <r>   10.8014    0.0000 </r>
      </set>
      <set comment="kpoint 3">
       <r>  -31.2728    1.0000 </r>
       <r>  -14.2780    1.0000 </r>
       <r>  -14.2780    1.0000 </r>
       <r>  -14.2410    1.0000 </r>
       <r>  -14.2397    1.0000 </r>
       <r>  -14.2397    1.0000 </r>
       <r>   -9.3602    1.0000 </r>
       <r>   -9.2840    1.0000 </r>
       <r>   -9.2840    1.0000 </r>
       <r>   -3.3762    1.0000 </r>
       <r>    3.8715    1.0000 </r>
       <r>    4.0303    1.0000 </r>
       <r>    4.0303    1.0000 </r>
       <r>    4.8085    1.0000 </r>
       <r>    4.8085    1.0000 </r>
       <r>    6.0033    1.0000 </r>
       <r>    7.3564    1.0000 </r>
       <r>    7.3564    1.0000 </r>
       <r>    8.0130    1.0000 </r>
       <r>    9.2982    0.0000 </r>
       <r>    9.2982    0.0000 </r>
       <r>    9.5627    0.0000 </r>
       <r>   10.4591    0.0000 </r>
       <r>   10.8141    0.0000 </r>
      </set>
      <set comment="kpoint 4">
       <r>  -31.2714    1.0000 </r>
       <r>  -14.2812    1.0000 </r>
       <r>  -14.2812    1.0000 </r>
       <r>  -14.2417    1.0000 </r>
       <r>  -14.2390    1.0000 </r>
       <r>  -14.2390    1.0000 </r>
       <r>   -9.4245    1.0000 </r>
       <r>   -9.2747    1.0000 </r>
       <r>   -9.2747    1.0000 </r>
       <r>   -3.1234    1.0000 </r>
       <r>    3.4511    1.0000 </r>
       <r>    3.8963    1.0000 </r>
       <r>    3.8963    1.0000 </r>
       <r>    4.8609    1.0000 </r>
       <r>    4.8609    1.0000 </r>
       <r>    5.5345    1.0000 </r>
       <r>    7.2119    1.0000 </r>
       <r>    7.2119    1.0000 </r>
       <r>    8.0870    1.0000 </r>
       <r>    9.5788    0.0000 </r>
       <r>    9.5788    0.0000 </r>
       <r>   10.2078    0.0000 </r>
       <r>   10.7951    0.0000 </r>
       <r>   10.8057    0.0000 </r>
      </set>
      <set comment="kpoint 5">
       <r>  -31.2700    1.0000 </r>
       <r>  -14.2845    1.0000 </r>
       <r>  -14.2845    1.0000 </r>
       <r>  -14.2427    1.0000 </r>
       <r>  -14.2383    1.0000 </r>
       <r>  -14.2383    1.0000 </r>
       <r>   -9.4876    1.0000 </r>
       <r>   -9.2649    1.0000 </r>
       <r>   -9.2649    1.0000 </r>
       <r>   -2.8550    1.0000 </r>
       <r>    3.0576    1.0000 </r>
       <r>    3.8178    1.0000 </r>
       <r>    3.8178    1.0000 </r>
       <r>    4.8133    1.0000 </r>
       <r>    4.8133    1.0000 </r>
       <r>    5.1915    1.0000 </r>
       <r>    7.1401    1.0000 </r>
       <r>    7.1401    1.0000 </r>
       <r>    8.1984    1.0000 </r>
       <r>    9.8536    0.0000 </r>
       <r>    9.8536    0.0000 </r>
       <r>   10.6784    0.0000 </r>
       <r>   10.7725    0.0000 </r>
       <r>   10.7739    0.0000 </r>
      </set>
      <set comment="kpoint 6">
       <r>  -31.2687    1.0000 </r>
       <r>  -14.2873    1.0000 </r>
       <r>  -14.2873    1.0000 </r>
       <r>  -14.2435    1.0000 </r>
       <r>  -14.2376    1.0000 </r>
       <r>  -14.2376    1.0000 </r>
       <r>   -9.5362    1.0000 </r>
       <r>   -9.2568    1.0000 </r>
       <r>   -9.2568    1.0000 </r>
       <r>   -2.6323    1.0000 </r>
       <r>    2.7629    1.0000 </r>
       <r>    3.7897    1.0000 </r>
       <r>    3.7897    1.0000 </r>
       <r>    4.7125    1.0000 </r>
       <r>    4.7125    1.0000 </r>
       <r>    4.9782    1.0000 </r>
       <r>    7.1246    1.0000 </r>
       <r>    7.1246    1.0000 </r>
       <r>    8.3619    1.0000 </r>
       <r>   10.0720    0.0000 </r>
       <r>   10.0720    0.0000 </r>
       <r>   10.7390    0.0000 </r>
       <r>   10.7390    0.0000 </r>
       <r>   10.8079    0.0000 </r>
      </set>
      <set comment="kpoint 7">
       <r>  -31.2680    1.0000 </r>
       <r>  -14.2888    1.0000 </r>
       <r>  -14.2888    1.0000 </r>
       <r>  -14.2441    1.0000 </r>
       <r>  -14.2373    1.0000 </r>
       <r>  -14.2373    1.0000 </r>
       <r>   -9.5623    1.0000 </r>
       <r>   -9.2522    1.0000 </r>
       <r>   -9.2522    1.0000 </r>
       <r>   -2.5065    1.0000 </r>
       <r>    2.6073    1.0000 </r>
       <r>    3.7893    1.0000 </r>
       <r>    3.7893    1.0000 </r>
       <r>    4.6329    1.0000 </r>
       <r>    4.6329    1.0000 </r>
       <r>    4.8793    1.0000 </r>
       <r>    7.1284    1.0000 </r>
       <r>    7.1284    1.0000 </r>
       <r>    8.5131    1.0000 </r>
       <r>   10.1915    0.0000 </r>
       <r>   10.1915    0.0000 </r>
       <r>   10.6729    0.0000 </r>
       <r>   10.7166    0.0000 </r>
       <r>   10.7166    0.0000 </r>
      </set>
      <set comment="kpoint 8">
       <r>  -31.2737    1.0000 </r>
       <r>  -14.2773    1.0000 </r>
       <r>  -14.2747    1.0000 </r>
       <r>  -14.2407    1.0000 </r>
       <r>  -14.2400    1.0000 </r>
       <r>  -14.2400    1.0000 </r>
       <r>   -9.3071    1.0000 </r>
       <r>   -9.2950    1.0000 </r>
       <r>   -9.2950    1.0000 </r>
       <r>   -3.5358    1.0000 </r>
       <r>    3.9372    1.0000 </r>
       <r>    4.3566    1.0000 </r>
       <r>    4.3566    1.0000 </r>
       <r>    4.5550    1.0000 </r>
       <r>    4.7084    1.0000 </r>
       <r>    6.5318    1.0000 </r>
       <r>    7.4051    1.0000 </r>
       <r>    7.4051    1.0000 </r>
       <r>    8.0991    1.0000 </r>
       <r>    8.7870    0.0000 </r>
       <r>    9.2339    0.0000 </r>
       <r>    9.2339    0.0000 </r>
       <r>   10.0835    0.0000 </r>
       <r>   10.7757    0.0000 </r>
      </set>
      <set comment="kpoint 9">
       <r>  -31.2729    1.0000 </r>
       <r>  -14.2798    1.0000 </r>
       <r>  -14.2753    1.0000 </r>
       <r>  -14.2411    1.0000 </r>
       <r>  -14.2397    1.0000 </r>
       <r>  -14.2396    1.0000 </r>
       <r>   -9.3433    1.0000 </r>
       <r>   -9.2944    1.0000 </r>
       <r>   -9.2878    1.0000 </r>
       <r>   -3.3999    1.0000 </r>
       <r>    3.6497    1.0000 </r>
       <r>    4.2283    1.0000 </r>
       <r>    4.2521    1.0000 </r>
       <r>    4.6685    1.0000 </r>
       <r>    4.8142    1.0000 </r>
       <r>    6.1667    1.0000 </r>
       <r>    7.2281    1.0000 </r>
       <r>    7.2368    1.0000 </r>
       <r>    8.3596    1.0000 </r>
       <r>    8.8172    0.0000 </r>
       <r>    9.4771    0.0000 </r>
       <r>    9.5746    0.0000 </r>
       <r>   10.3908    0.0000 </r>
       <r>   10.7590    0.0000 </r>
      </set>
      <set comment="kpoint 10">
       <r>  -31.2717    1.0000 </r>
       <r>  -14.2827    1.0000 </r>
       <r>  -14.2774    1.0000 </r>
       <r>  -14.2417    1.0000 </r>
       <r>  -14.2392    1.0000 </r>
       <r>  -14.2389    1.0000 </r>
       <r>   -9.4018    1.0000 </r>
       <r>   -9.2890    1.0000 </r>
       <r>   -9.2771    1.0000 </r>
       <r>   -3.1807    1.0000 </r>
       <r>    3.3606    1.0000 </r>
       <r>    3.9891    1.0000 </r>
       <r>    4.1167    1.0000 </r>
       <r>    4.7531    1.0000 </r>
       <r>    4.9066    1.0000 </r>
       <r>    5.7250    1.0000 </r>
       <r>    7.0612    1.0000 </r>
       <r>    7.1138    1.0000 </r>
       <r>    8.3875    1.0000 </r>
       <r>    9.1797    0.0000 </r>
       <r>    9.7265    0.0000 </r>
       <r>   10.0748    0.0000 </r>
       <r>   10.7144    0.0000 </r>
       <r>   10.7454    0.0000 </r>
      </set>
      <set comment="kpoint 11">
       <r>  -31.2702    1.0000 </r>
       <r>  -14.2855    1.0000 </r>
       <r>  -14.2805    1.0000 </r>
       <r>  -14.2424    1.0000 </r>
       <r>  -14.2386    1.0000 </r>
       <r>  -14.2382    1.0000 </r>
       <r>   -9.4642    1.0000 </r>
       <r>   -9.2800    1.0000 </r>
       <r>   -9.2678    1.0000 </r>
       <r>   -2.9299    1.0000 </r>
       <r>    3.0786    1.0000 </r>
       <r>    3.8064    1.0000 </r>
       <r>    4.0132    1.0000 </r>
       <r>    4.7383    1.0000 </r>
       <r>    4.9130    1.0000 </r>
       <r>    5.3449    1.0000 </r>
       <r>    6.9723    1.0000 </r>
       <r>    7.0685    1.0000 </r>
       <r>    8.3766    1.0000 </r>
       <r>    9.6028    0.0000 </r>
       <r>    9.9532    0.0000 </r>
       <r>   10.5342    0.0000 </r>
       <r>   10.7320    0.0000 </r>
       <r>   10.8042    0.0000 </r>
      </set>
      <set comment="kpoint 12">
       <r>  -31.2689    1.0000 </r>
       <r>  -14.2875    1.0000 </r>
       <r>  -14.2839    1.0000 </r>
       <r>  -14.2432    1.0000 </r>
       <r>  -14.2381    1.0000 </r>
       <r>  -14.2375    1.0000 </r>
       <r>   -9.5162    1.0000 </r>
       <r>   -9.2696    1.0000 </r>
       <r>   -9.2621    1.0000 </r>
       <r>   -2.7057    1.0000 </r>
       <r>    2.8414    1.0000 </r>
       <r>    3.7279    1.0000 </r>
       <r>    3.9357    1.0000 </r>
       <r>    4.6702    1.0000 </r>
       <r>    4.8403    1.0000 </r>
       <r>    5.0745    1.0000 </r>
       <r>    6.9539    1.0000 </r>
       <r>    7.0740    1.0000 </r>
       <r>    8.4417    1.0000 </r>
       <r>    9.9311    0.0000 </r>
       <r>   10.1309    0.0000 </r>
       <r>   10.6811    0.0000 </r>
       <r>   10.7164    0.0000 </r>
       <r>   10.8482    0.0000 </r>
      </set>
      <set comment="kpoint 13">
       <r>  -31.2681    1.0000 </r>
       <r>  -14.2881    1.0000 </r>
       <r>  -14.2869    1.0000 </r>
       <r>  -14.2437    1.0000 </r>
       <r>  -14.2376    1.0000 </r>
       <r>  -14.2371    1.0000 </r>
       <r>   -9.5488    1.0000 </r>
       <r>   -9.2610    1.0000 </r>
       <r>   -9.2600    1.0000 </r>
       <r>   -2.5578    1.0000 </r>
       <r>    2.6917    1.0000 </r>
       <r>    3.7397    1.0000 </r>
       <r>    3.8591    1.0000 </r>
       <r>    4.6317    1.0000 </r>
       <r>    4.7352    1.0000 </r>
       <r>    4.9234    1.0000 </r>
       <r>    6.9656    1.0000 </r>
       <r>    7.0887    1.0000 </r>
       <r>    8.5639    1.0000 </r>
       <r>   10.0952    0.0000 </r>
       <r>   10.2300    0.0000 </r>
       <r>   10.6564    0.0000 </r>
       <r>   10.6997    0.0000 </r>
       <r>   10.8157    0.0000 </r>
      </set>
      <set comment="kpoint 14">
       <r>  -31.2678    1.0000 </r>
       <r>  -14.2886    1.0000 </r>
       <r>  -14.2874    1.0000 </r>
       <r>  -14.2439    1.0000 </r>
       <r>  -14.2375    1.0000 </r>
       <r>  -14.2371    1.0000 </r>
       <r>   -9.5570    1.0000 </r>
       <r>   -9.2648    1.0000 </r>
       <r>   -9.2535    1.0000 </r>
       <r>   -2.5174    1.0000 </r>
       <r>    2.6519    1.0000 </r>
       <r>    3.7724    1.0000 </r>
       <r>    3.8084    1.0000 </r>
       <r>    4.6510    1.0000 </r>
       <r>    4.6737    1.0000 </r>
       <r>    4.8888    1.0000 </r>
       <r>    6.9668    1.0000 </r>
       <r>    7.0929    1.0000 </r>
       <r>    8.6245    1.0000 </r>
       <r>   10.1261    0.0000 </r>
       <r>   10.2245    0.0000 </r>
       <r>   10.6581    0.0000 </r>
       <r>   10.6940    0.0000 </r>
       <r>   10.7710    0.0000 </r>
      </set>
      <set comment="kpoint 15">
       <r>  -31.2683    1.0000 </r>
       <r>  -14.2889    1.0000 </r>
       <r>  -14.2854    1.0000 </r>
       <r>  -14.2435    1.0000 </r>
       <r>  -14.2376    1.0000 </r>
       <r>  -14.2375    1.0000 </r>
       <r>   -9.5401    1.0000 </r>
       <r>   -9.2724    1.0000 </r>
       <r>   -9.2514    1.0000 </r>
       <r>   -2.5928    1.0000 </r>
       <r>    2.7299    1.0000 </r>
       <r>    3.6999    1.0000 </r>
       <r>    3.8992    1.0000 </r>
       <r>    4.6323    1.0000 </r>
       <r>    4.7805    1.0000 </r>
       <r>    4.9635    1.0000 </r>
       <r>    6.9347    1.0000 </r>
       <r>    7.0946    1.0000 </r>
       <r>    8.5457    1.0000 </r>
       <r>   10.0965    0.0000 </r>
       <r>   10.1508    0.0000 </r>
       <r>   10.6741    0.0000 </r>
       <r>   10.7078    0.0000 </r>
       <r>   10.8410    0.0000 </r>
      </set>
      <set comment="kpoint 16">
       <r>  -31.2693    1.0000 </r>
       <r>  -14.2875    1.0000 </r>
       <r>  -14.2826    1.0000 </r>
       <r>  -14.2428    1.0000 </r>
       <r>  -14.2381    1.0000 </r>
       <r>  -14.2380    1.0000 </r>
       <r>   -9.5004    1.0000 </r>
       <r>   -9.2820    1.0000 </r>
       <r>   -9.2544    1.0000 </r>
       <r>   -2.7692    1.0000 </r>
       <r>    2.9247    1.0000 </r>
       <r>    3.6740    1.0000 </r>
       <r>    3.9977    1.0000 </r>
       <r>    4.6771    1.0000 </r>
       <r>    4.8980    1.0000 </r>
       <r>    5.1505    1.0000 </r>
       <r>    6.8755    1.0000 </r>
       <r>    7.1221    1.0000 </r>
       <r>    8.4418    1.0000 </r>
       <r>    9.8592    0.0000 </r>
       <r>   10.0465    0.0000 </r>
       <r>   10.6637    0.0000 </r>
       <r>   10.7317    0.0000 </r>
       <r>   10.8414    0.0000 </r>
      </set>
      <set comment="kpoint 17">
       <r>  -31.2707    1.0000 </r>
       <r>  -14.2848    1.0000 </r>
       <r>  -14.2796    1.0000 </r>
       <r>  -14.2420    1.0000 </r>
       <r>  -14.2388    1.0000 </r>
       <r>  -14.2386    1.0000 </r>
       <r>   -9.4443    1.0000 </r>
       <r>   -9.2912    1.0000 </r>
       <r>   -9.2617    1.0000 </r>
       <r>   -3.0086    1.0000 </r>
       <r>    3.2191    1.0000 </r>
       <r>    3.7140    1.0000 </r>
       <r>    4.1179    1.0000 </r>
       <r>    4.7219    1.0000 </r>
       <r>    4.9644    1.0000 </r>
       <r>    5.4563    1.0000 </r>
       <r>    6.8355    1.0000 </r>
       <r>    7.2089    1.0000 </r>
       <r>    8.3943    1.0000 </r>
       <r>    9.5615    0.0000 </r>
       <r>    9.7756    0.0000 </r>
       <r>   10.4218    0.0000 </r>
       <r>   10.7555    0.0000 </r>
       <r>   10.8085    0.0000 </r>
      </set>
      <set comment="kpoint 18">
       <r>  -31.2721    1.0000 </r>
       <r>  -14.2815    1.0000 </r>
       <r>  -14.2771    1.0000 </r>
       <r>  -14.2413    1.0000 </r>
       <r>  -14.2395    1.0000 </r>
       <r>  -14.2392    1.0000 </r>
       <r>   -9.3832    1.0000 </r>
       <r>   -9.2974    1.0000 </r>
       <r>   -9.2718    1.0000 </r>
       <r>   -3.2564    1.0000 </r>
       <r>    3.5708    1.0000 </r>
       <r>    3.8248    1.0000 </r>
       <r>    4.2680    1.0000 </r>
       <r>    4.6927    1.0000 </r>
       <r>    4.9398    1.0000 </r>
       <r>    5.8578    1.0000 </r>
       <r>    6.9003    1.0000 </r>
       <r>    7.3582    1.0000 </r>
       <r>    8.3761    1.0000 </r>
       <r>    9.2732    0.0000 </r>
       <r>    9.3503    0.0000 </r>
       <r>    9.9926    0.0000 </r>
       <r>   10.6214    0.0000 </r>
       <r>   10.7828    0.0000 </r>
      </set>
      <set comment="kpoint 19">
       <r>  -31.2733    1.0000 </r>
       <r>  -14.2783    1.0000 </r>
       <r>  -14.2758    1.0000 </r>
       <r>  -14.2408    1.0000 </r>
       <r>  -14.2400    1.0000 </r>
       <r>  -14.2398    1.0000 </r>
       <r>   -9.3339    1.0000 </r>
       <r>   -9.2973    1.0000 </r>
       <r>   -9.2822    1.0000 </r>
       <r>   -3.4544    1.0000 </r>
       <r>    3.9189    1.0000 </r>
       <r>    3.9975    1.0000 </r>
       <r>    4.3681    1.0000 </r>
       <r>    4.6186    1.0000 </r>
       <r>    4.8279    1.0000 </r>
       <r>    6.2629    1.0000 </r>
       <r>    7.1624    1.0000 </r>
       <r>    7.5030    1.0000 </r>
       <r>    8.1926    1.0000 </r>
       <r>    9.0368    0.0000 </r>
       <r>    9.0781    0.0000 </r>
       <r>    9.5427    0.0000 </r>
       <r>   10.2897    0.0000 </r>
       <r>   10.8035    0.0000 </r>
      </set>
      <set comment="kpoint 20">
       <r>  -31.2724    1.0000 </r>
       <r>  -14.2819    1.0000 </r>
       <r>  -14.2740    1.0000 </r>
       <r>  -14.2417    1.0000 </r>
       <r>  -14.2392    1.0000 </r>
       <r>  -14.2392    1.0000 </r>
       <r>   -9.3441    1.0000 </r>
       <r>   -9.3007    1.0000 </r>
       <r>   -9.3007    1.0000 </r>
       <r>   -3.3226    1.0000 </r>
       <r>    3.3533    1.0000 </r>
       <r>    4.3811    1.0000 </r>
       <r>    4.3811    1.0000 </r>
       <r>    4.6026    1.0000 </r>
       <r>    4.7388    1.0000 </r>
       <r>    6.1476    1.0000 </r>
       <r>    7.0861    1.0000 </r>
       <r>    7.0861    1.0000 </r>
       <r>    8.3904    1.0000 </r>
       <r>    8.8694    0.0000 </r>
       <r>    9.7061    0.0000 </r>
       <r>    9.7061    0.0000 </r>
       <r>   10.5001    0.0000 </r>
       <r>   10.7126    0.0000 </r>
      </set>
      <set comment="kpoint 21">
       <r>  -31.2714    1.0000 </r>
       <r>  -14.2839    1.0000 </r>
       <r>  -14.2744    1.0000 </r>
       <r>  -14.2423    1.0000 </r>
       <r>  -14.2387    1.0000 </r>
       <r>  -14.2386    1.0000 </r>
       <r>   -9.3848    1.0000 </r>
       <r>   -9.3014    1.0000 </r>
       <r>   -9.2952    1.0000 </r>
       <r>   -3.1666    1.0000 </r>
       <r>    3.1151    1.0000 </r>
       <r>    4.2360    1.0000 </r>
       <r>    4.3129    1.0000 </r>
       <r>    4.6724    1.0000 </r>
       <r>    4.7957    1.0000 </r>
       <r>    5.9173    1.0000 </r>
       <r>    6.8927    1.0000 </r>
       <r>    6.9854    1.0000 </r>
       <r>    8.5318    1.0000 </r>
       <r>    9.0151    0.0000 </r>
       <r>    9.9161    0.0000 </r>
       <r>   10.0302    0.0000 </r>
       <r>   10.6747    0.0000 </r>
       <r>   10.7111    0.0000 </r>
      </set>
      <set comment="kpoint 22">
       <r>  -31.2701    1.0000 </r>
       <r>  -14.2853    1.0000 </r>
       <r>  -14.2764    1.0000 </r>
       <r>  -14.2428    1.0000 </r>
       <r>  -14.2383    1.0000 </r>
       <r>  -14.2378    1.0000 </r>
       <r>   -9.4391    1.0000 </r>
       <r>   -9.2964    1.0000 </r>
       <r>   -9.2870    1.0000 </r>
       <r>   -2.9731    1.0000 </r>
       <r>    2.9582    1.0000 </r>
       <r>    3.9931    1.0000 </r>
       <r>    4.2094    1.0000 </r>
       <r>    4.6936    1.0000 </r>
       <r>    4.8731    1.0000 </r>
       <r>    5.5966    1.0000 </r>
       <r>    6.7144    1.0000 </r>
       <r>    6.9635    1.0000 </r>
       <r>    8.6129    1.0000 </r>
       <r>    9.3726    0.0000 </r>
       <r>   10.0901    0.0000 </r>
       <r>   10.4005    0.0000 </r>
       <r>   10.6569    0.0000 </r>
       <r>   10.8268    0.0000 </r>
      </set>
      <set comment="kpoint 23">
       <r>  -31.2688    1.0000 </r>
       <r>  -14.2859    1.0000 </r>
       <r>  -14.2796    1.0000 </r>
       <r>  -14.2432    1.0000 </r>
       <r>  -14.2381    1.0000 </r>
       <r>  -14.2371    1.0000 </r>
       <r>   -9.4879    1.0000 </r>
       <r>   -9.2869    1.0000 </r>
       <r>   -9.2840    1.0000 </r>
       <r>   -2.7893    1.0000 </r>
       <r>    2.8805    1.0000 </r>
       <r>    3.8105    1.0000 </r>
       <r>    4.0983    1.0000 </r>
       <r>    4.6684    1.0000 </r>
       <r>    4.8835    1.0000 </r>
       <r>    5.2869    1.0000 </r>
       <r>    6.6382    1.0000 </r>
       <r>    6.9870    1.0000 </r>
       <r>    8.6060    1.0000 </r>
       <r>    9.8059    0.0000 </r>
       <r>   10.2249    0.0000 </r>
       <r>   10.6048    0.0000 </r>
       <r>   10.6586    0.0000 </r>
       <r>   10.8641    0.0000 </r>
      </set>
      <set comment="kpoint 24">
       <r>  -31.2679    1.0000 </r>
       <r>  -14.2855    1.0000 </r>
       <r>  -14.2832    1.0000 </r>
       <r>  -14.2433    1.0000 </r>
       <r>  -14.2380    1.0000 </r>
       <r>  -14.2367    1.0000 </r>
       <r>   -9.5212    1.0000 </r>
       <r>   -9.2872    1.0000 </r>
       <r>   -9.2750    1.0000 </r>
       <r>   -2.6537    1.0000 </r>
       <r>    2.8520    1.0000 </r>
       <r>    3.7394    1.0000 </r>
       <r>    3.9619    1.0000 </r>
       <r>    4.6732    1.0000 </r>
       <r>    4.8313    1.0000 </r>
       <r>    5.0649    1.0000 </r>
       <r>    6.6255    1.0000 </r>
       <r>    7.0070    1.0000 </r>
       <r>    8.6671    1.0000 </r>
       <r>   10.0032    0.0000 </r>
       <r>   10.3082    0.0000 </r>
       <r>   10.6292    0.0000 </r>
       <r>   10.6614    0.0000 </r>
       <r>   10.8791    0.0000 </r>
      </set>
      <set comment="kpoint 25">
       <r>  -31.2675    1.0000 </r>
       <r>  -14.2864    1.0000 </r>
       <r>  -14.2842    1.0000 </r>
       <r>  -14.2432    1.0000 </r>
       <r>  -14.2381    1.0000 </r>
       <r>  -14.2367    1.0000 </r>
       <r>   -9.5341    1.0000 </r>
       <r>   -9.2956    1.0000 </r>
       <r>   -9.2634    1.0000 </r>
       <r>   -2.5889    1.0000 </r>
       <r>    2.8375    1.0000 </r>
       <r>    3.7822    1.0000 </r>
       <r>    3.8108    1.0000 </r>
       <r>    4.7430    1.0000 </r>
       <r>    4.7434    1.0000 </r>
       <r>    4.9792    1.0000 </r>
       <r>    6.6165    1.0000 </r>
       <r>    7.0058    1.0000 </r>
       <r>    8.7716    0.0000 </r>
       <r>    9.9660    0.0000 </r>
       <r>   10.3140    0.0000 </r>
       <r>   10.6596    0.0000 </r>
       <r>   10.6802    0.0000 </r>
       <r>   10.8405    0.0000 </r>
      </set>
      <set comment="kpoint 26">
       <r>  -31.2677    1.0000 </r>
       <r>  -14.2884    1.0000 </r>
       <r>  -14.2823    1.0000 </r>
       <r>  -14.2429    1.0000 </r>
       <r>  -14.2382    1.0000 </r>
       <r>  -14.2370    1.0000 </r>
       <r>   -9.5257    1.0000 </r>
       <r>   -9.3064    1.0000 </r>
       <r>   -9.2548    1.0000 </r>
       <r>   -2.6051    1.0000 </r>
       <r>    2.8350    1.0000 </r>
       <r>    3.6811    1.0000 </r>
       <r>    3.9056    1.0000 </r>
       <r>    4.6660    1.0000 </r>
       <r>    4.8578    1.0000 </r>
       <r>    5.0354    1.0000 </r>
       <r>    6.5654    1.0000 </r>
       <r>    6.9997    1.0000 </r>
       <r>    8.8070    0.0000 </r>
       <r>   10.0067    0.0000 </r>
       <r>   10.2058    0.0000 </r>
       <r>   10.6684    0.0000 </r>
       <r>   10.6941    0.0000 </r>
       <r>   10.8533    0.0000 </r>
      </set>
      <set comment="kpoint 27">
       <r>  -31.2685    1.0000 </r>
       <r>  -14.2888    1.0000 </r>
       <r>  -14.2802    1.0000 </r>
       <r>  -14.2424    1.0000 </r>
       <r>  -14.2383    1.0000 </r>
       <r>  -14.2376    1.0000 </r>
       <r>   -9.4983    1.0000 </r>
       <r>   -9.3158    1.0000 </r>
       <r>   -9.2511    1.0000 </r>
       <r>   -2.7037    1.0000 </r>
       <r>    2.8801    1.0000 </r>
       <r>    3.6047    1.0000 </r>
       <r>    4.0709    1.0000 </r>
       <r>    4.6301    1.0000 </r>
       <r>    4.9730    1.0000 </r>
       <r>    5.2114    1.0000 </r>
       <r>    6.4645    1.0000 </r>
       <r>    7.0232    1.0000 </r>
       <r>    8.7898    0.0000 </r>
       <r>    9.9838    0.0000 </r>
       <r>   10.0548    0.0000 </r>
       <r>   10.6656    0.0000 </r>
       <r>   10.6893    0.0000 </r>
       <r>   10.8898    0.0000 </r>
      </set>
      <set comment="kpoint 28">
       <r>  -31.2697    1.0000 </r>
       <r>  -14.2875    1.0000 </r>
       <r>  -14.2784    1.0000 </r>
       <r>  -14.2420    1.0000 </r>
       <r>  -14.2385    1.0000 </r>
       <r>  -14.2384    1.0000 </r>
       <r>   -9.4583    1.0000 </r>
       <r>   -9.3195    1.0000 </r>
       <r>   -9.2532    1.0000 </r>
       <r>   -2.8709    1.0000 </r>
       <r>    3.0153    1.0000 </r>
       <r>    3.6004    1.0000 </r>
       <r>    4.2455    1.0000 </r>
       <r>    4.6178    1.0000 </r>
       <r>    5.0391    1.0000 </r>
       <r>    5.4757    1.0000 </r>
       <r>    6.3734    1.0000 </r>
       <r>    7.1073    1.0000 </r>
       <r>    8.7903    0.0000 </r>
       <r>    9.6994    0.0000 </r>
       <r>    9.8804    0.0000 </r>
       <r>   10.5777    0.0000 </r>
       <r>   10.7146    0.0000 </r>
       <r>   10.8871    0.0000 </r>
      </set>
      <set comment="kpoint 29">
       <r>  -31.2710    1.0000 </r>
       <r>  -14.2849    1.0000 </r>
       <r>  -14.2773    1.0000 </r>
       <r>  -14.2417    1.0000 </r>
       <r>  -14.2390    1.0000 </r>
       <r>  -14.2388    1.0000 </r>
       <r>   -9.4162    1.0000 </r>
       <r>   -9.3134    1.0000 </r>
       <r>   -9.2606    1.0000 </r>
       <r>   -3.0718    1.0000 </r>
       <r>    3.2548    1.0000 </r>
       <r>    3.6753    1.0000 </r>
       <r>    4.3721    1.0000 </r>
       <r>    4.6007    1.0000 </r>
       <r>    5.0260    1.0000 </r>
       <r>    5.7235    1.0000 </r>
       <r>    6.4720    1.0000 </r>
       <r>    7.2436    1.0000 </r>
       <r>    8.7317    0.6347 </r>
       <r>    9.4316    0.0000 </r>
       <r>    9.5212    0.0000 </r>
       <r>   10.3557    0.0000 </r>
       <r>   10.7427    0.0000 </r>
       <r>   10.8046    0.0000 </r>
      </set>
      <set comment="kpoint 30">
       <r>  -31.2706    1.0000 </r>
       <r>  -14.2844    1.0000 </r>
       <r>  -14.2728    1.0000 </r>
       <r>  -14.2431    1.0000 </r>
       <r>  -14.2379    1.0000 </r>
       <r>  -14.2379    1.0000 </r>
       <r>   -9.3920    1.0000 </r>
       <r>   -9.3090    1.0000 </r>
       <r>   -9.3090    1.0000 </r>
       <r>   -3.0909    1.0000 </r>
       <r>    2.9395    1.0000 </r>
       <r>    4.3808    1.0000 </r>
       <r>    4.3808    1.0000 </r>
       <r>    4.6156    1.0000 </r>
       <r>    4.6720    1.0000 </r>
       <r>    5.9088    1.0000 </r>
       <r>    6.9033    1.0000 </r>
       <r>    6.9033    1.0000 </r>
       <r>    8.2951    1.0000 </r>
       <r>    9.2964    0.0000 </r>
       <r>   10.0817    0.0000 </r>
       <r>   10.0817    0.0000 </r>
       <r>   10.6031    0.0000 </r>
       <r>   10.7946    0.0000 </r>
      </set>
      <set comment="kpoint 31">
       <r>  -31.2696    1.0000 </r>
       <r>  -14.2840    1.0000 </r>
       <r>  -14.2732    1.0000 </r>
       <r>  -14.2438    1.0000 </r>
       <r>  -14.2374    1.0000 </r>
       <r>  -14.2372    1.0000 </r>
       <r>   -9.4267    1.0000 </r>
       <r>   -9.3101    1.0000 </r>
       <r>   -9.3086    1.0000 </r>
       <r>   -2.9802    1.0000 </r>
       <r>    2.8776    1.0000 </r>
       <r>    4.1945    1.0000 </r>
       <r>    4.3267    1.0000 </r>
       <r>    4.6765    1.0000 </r>
       <r>    4.7052    1.0000 </r>
       <r>    5.7489    1.0000 </r>
       <r>    6.7425    1.0000 </r>
       <r>    6.8984    1.0000 </r>
       <r>    8.4479    1.0000 </r>
       <r>    9.4616    0.0000 </r>
       <r>   10.2091    0.0000 </r>
       <r>   10.2987    0.0000 </r>
       <r>   10.5603    0.0000 </r>
       <r>   10.8450    0.0000 </r>
      </set>
      <set comment="kpoint 32">
       <r>  -31.2685    1.0000 </r>
       <r>  -14.2830    1.0000 </r>
       <r>  -14.2754    1.0000 </r>
       <r>  -14.2441    1.0000 </r>
       <r>  -14.2372    1.0000 </r>
       <r>  -14.2365    1.0000 </r>
       <r>   -9.4647    1.0000 </r>
       <r>   -9.3098    1.0000 </r>
       <r>   -9.3046    1.0000 </r>
       <r>   -2.8648    1.0000 </r>
       <r>    2.9284    1.0000 </r>
       <r>    3.9605    1.0000 </r>
       <r>    4.2200    1.0000 </r>
       <r>    4.7147    1.0000 </r>
       <r>    4.7758    1.0000 </r>
       <r>    5.5125    1.0000 </r>
       <r>    6.5193    1.0000 </r>
       <r>    6.9337    1.0000 </r>
       <r>    8.6111    1.0000 </r>
       <r>    9.7578    0.0000 </r>
       <r>   10.3074    0.0000 </r>
       <r>   10.5203    0.0000 </r>
       <r>   10.5719    0.0000 </r>
       <r>   10.8678    0.0000 </r>
      </set>
      <set comment="kpoint 33">
       <r>  -31.2676    1.0000 </r>
       <r>  -14.2815    1.0000 </r>
       <r>  -14.2787    1.0000 </r>
       <r>  -14.2438    1.0000 </r>
       <r>  -14.2375    1.0000 </r>
       <r>  -14.2361    1.0000 </r>
       <r>   -9.4913    1.0000 </r>
       <r>   -9.3188    1.0000 </r>
       <r>   -9.2937    1.0000 </r>
       <r>   -2.7673    1.0000 </r>
       <r>    3.0444    1.0000 </r>
       <r>    3.8075    1.0000 </r>
       <r>    4.0678    1.0000 </r>
       <r>    4.7443    1.0000 </r>
       <r>    4.8163    1.0000 </r>
       <r>    5.2765    1.0000 </r>
       <r>    6.3680    1.0000 </r>
       <r>    6.9504    1.0000 </r>
       <r>    8.6902    1.0000 </r>
       <r>    9.9766    0.0000 </r>
       <r>   10.3792    0.0000 </r>
       <r>   10.5919    0.0000 </r>
       <r>   10.6116    0.0000 </r>
       <r>   10.8928    0.0000 </r>
      </set>
      <set comment="kpoint 34">
       <r>  -31.2671    1.0000 </r>
       <r>  -14.2825    1.0000 </r>
       <r>  -14.2799    1.0000 </r>
       <r>  -14.2432    1.0000 </r>
       <r>  -14.2381    1.0000 </r>
       <r>  -14.2361    1.0000 </r>
       <r>   -9.5014    1.0000 </r>
       <r>   -9.3343    1.0000 </r>
       <r>   -9.2798    1.0000 </r>
       <r>   -2.6989    1.0000 </r>
       <r>    3.1252    1.0000 </r>
       <r>    3.7672    1.0000 </r>
       <r>    3.8922    1.0000 </r>
       <r>    4.7796    1.0000 </r>
       <r>    4.8189    1.0000 </r>
       <r>    5.1528    1.0000 </r>
       <r>    6.2746    1.0000 </r>
       <r>    6.9310    1.0000 </r>
       <r>    8.8127    0.0000 </r>
       <r>    9.9116    0.0000 </r>
       <r>   10.4089    0.0000 </r>
       <r>   10.6334    0.0000 </r>
       <r>   10.6478    0.0000 </r>
       <r>   10.8707    0.0000 </r>
      </set>
      <set comment="kpoint 35">
       <r>  -31.2671    1.0000 </r>
       <r>  -14.2859    1.0000 </r>
       <r>  -14.2786    1.0000 </r>
       <r>  -14.2422    1.0000 </r>
       <r>  -14.2389    1.0000 </r>
       <r>  -14.2364    1.0000 </r>
       <r>   -9.4961    1.0000 </r>
       <r>   -9.3502    1.0000 </r>
       <r>   -9.2661    1.0000 </r>
       <r>   -2.6672    1.0000 </r>
       <r>    3.0897    1.0000 </r>
       <r>    3.7304    1.0000 </r>
       <r>    3.8389    1.0000 </r>
       <r>    4.7119    1.0000 </r>
       <r>    4.9217    1.0000 </r>
       <r>    5.1907    1.0000 </r>
       <r>    6.1922    1.0000 </r>
       <r>    6.9031    1.0000 </r>
       <r>    8.9615    0.0000 </r>
       <r>    9.8400    0.0000 </r>
       <r>   10.3514    0.0000 </r>
       <r>   10.6390    0.0000 </r>
       <r>   10.6891    0.0000 </r>
       <r>   10.8698    0.0000 </r>
      </set>
      <set comment="kpoint 36">
       <r>  -31.2676    1.0000 </r>
       <r>  -14.2882    1.0000 </r>
       <r>  -14.2779    1.0000 </r>
       <r>  -14.2416    1.0000 </r>
       <r>  -14.2392    1.0000 </r>
       <r>  -14.2370    1.0000 </r>
       <r>   -9.4823    1.0000 </r>
       <r>   -9.3572    1.0000 </r>
       <r>   -9.2557    1.0000 </r>
       <r>   -2.6820    1.0000 </r>
       <r>    2.9896    1.0000 </r>
       <r>    3.6149    1.0000 </r>
       <r>    3.9806    1.0000 </r>
       <r>    4.6640    1.0000 </r>
       <r>    5.0153    1.0000 </r>
       <r>    5.3450    1.0000 </r>
       <r>    6.0993    1.0000 </r>
       <r>    6.9106    1.0000 </r>
       <r>    9.0359    0.0000 </r>
       <r>    9.8921    0.0000 </r>
       <r>   10.1771    0.0000 </r>
       <r>   10.6557    0.0000 </r>
       <r>   10.7111    0.0000 </r>
       <r>   10.8622    0.0000 </r>
      </set>
      <set comment="kpoint 37">
       <r>  -31.2686    1.0000 </r>
       <r>  -14.2887    1.0000 </r>
       <r>  -14.2778    1.0000 </r>
       <r>  -14.2417    1.0000 </r>
       <r>  -14.2389    1.0000 </r>
       <r>  -14.2377    1.0000 </r>
       <r>   -9.4691    1.0000 </r>
       <r>   -9.3462    1.0000 </r>
       <r>   -9.2510    1.0000 </r>
       <r>   -2.7521    1.0000 </r>
       <r>    2.9398    1.0000 </r>
       <r>    3.5677    1.0000 </r>
       <r>    4.1472    1.0000 </r>
       <r>    4.6288    1.0000 </r>
       <r>    5.0602    1.0000 </r>
       <r>    5.4881    1.0000 </r>
       <r>    6.0957    1.0000 </r>
       <r>    6.9840    1.0000 </r>
       <r>    9.0006    0.0000 </r>
       <r>    9.9161    0.0000 </r>
       <r>    9.9332    0.0000 </r>
       <r>   10.6802    0.0000 </r>
       <r>   10.6820    0.0000 </r>
       <r>   10.9051    0.0000 </r>
      </set>
      <set comment="kpoint 38">
       <r>  -31.2688    1.0000 </r>
       <r>  -14.2818    1.0000 </r>
       <r>  -14.2717    1.0000 </r>
       <r>  -14.2447    1.0000 </r>
       <r>  -14.2365    1.0000 </r>
       <r>  -14.2365    1.0000 </r>
       <r>   -9.4386    1.0000 </r>
       <r>   -9.3181    1.0000 </r>
       <r>   -9.3181    1.0000 </r>
       <r>   -2.9592    1.0000 </r>
       <r>    2.9086    1.0000 </r>
       <r>    4.3353    1.0000 </r>
       <r>    4.3353    1.0000 </r>
       <r>    4.4283    1.0000 </r>
       <r>    4.7491    1.0000 </r>
       <r>    5.6858    1.0000 </r>
       <r>    6.9103    1.0000 </r>
       <r>    6.9103    1.0000 </r>
       <r>    8.2931    1.0000 </r>
       <r>    9.6352    0.0000 </r>
       <r>   10.2982    0.0000 </r>
       <r>   10.2982    0.0000 </r>
       <r>   10.4686    0.0000 </r>
       <r>   10.8291    0.0000 </r>
      </set>
      <set comment="kpoint 39">
       <r>  -31.2679    1.0000 </r>
       <r>  -14.2793    1.0000 </r>
       <r>  -14.2721    1.0000 </r>
       <r>  -14.2452    1.0000 </r>
       <r>  -14.2361    1.0000 </r>
       <r>  -14.2358    1.0000 </r>
       <r>   -9.4617    1.0000 </r>
       <r>   -9.3233    1.0000 </r>
       <r>   -9.3187    1.0000 </r>
       <r>   -2.9212    1.0000 </r>
       <r>    3.0545    1.0000 </r>
       <r>    4.1112    1.0000 </r>
       <r>    4.2729    1.0000 </r>
       <r>    4.5385    1.0000 </r>
       <r>    4.7772    1.0000 </r>
       <r>    5.5190    1.0000 </r>
       <r>    6.7816    1.0000 </r>
       <r>    6.9615    1.0000 </r>
       <r>    8.4480    1.0000 </r>
       <r>    9.8212    0.0000 </r>
       <r>   10.3656    0.0000 </r>
       <r>   10.4270    0.0000 </r>
       <r>   10.4496    0.0000 </r>
       <r>   10.8162    0.0000 </r>
      </set>
      <set comment="kpoint 40">
       <r>  -31.2672    1.0000 </r>
       <r>  -14.2769    1.0000 </r>
       <r>  -14.2744    1.0000 </r>
       <r>  -14.2451    1.0000 </r>
       <r>  -14.2362    1.0000 </r>
       <r>  -14.2354    1.0000 </r>
       <r>   -9.4770    1.0000 </r>
       <r>   -9.3369    1.0000 </r>
       <r>   -9.3117    1.0000 </r>
       <r>   -2.8728    1.0000 </r>
       <r>    3.2690    1.0000 </r>
       <r>    3.9107    1.0000 </r>
       <r>    4.1541    1.0000 </r>
       <r>    4.6712    1.0000 </r>
       <r>    4.8105    1.0000 </r>
       <r>    5.3203    1.0000 </r>
       <r>    6.4871    1.0000 </r>
       <r>    6.9765    1.0000 </r>
       <r>    8.6055    1.0000 </r>
       <r>   10.0326    0.0000 </r>
       <r>   10.4191    0.0000 </r>
       <r>   10.5247    0.0000 </r>
       <r>   10.5371    0.0000 </r>
       <r>   10.8863    0.0000 </r>
      </set>
      <set comment="kpoint 41">
       <r>  -31.2667    1.0000 </r>
       <r>  -14.2780    1.0000 </r>
       <r>  -14.2754    1.0000 </r>
       <r>  -14.2443    1.0000 </r>
       <r>  -14.2371    1.0000 </r>
       <r>  -14.2354    1.0000 </r>
       <r>   -9.4767    1.0000 </r>
       <r>   -9.3612    1.0000 </r>
       <r>   -9.2987    1.0000 </r>
       <r>   -2.8168    1.0000 </r>
       <r>    3.4459    1.0000 </r>
       <r>    3.7958    1.0000 </r>
       <r>    3.9963    1.0000 </r>
       <r>    4.7372    1.0000 </r>
       <r>    4.8718    1.0000 </r>
       <r>    5.2004    1.0000 </r>
       <r>    6.2003    1.0000 </r>
       <r>    6.9318    1.0000 </r>
       <r>    8.7291    0.7618 </r>
       <r>   10.0003    0.0000 </r>
       <r>   10.4578    0.0000 </r>
       <r>   10.5796    0.0000 </r>
       <r>   10.6094    0.0000 </r>
       <r>   10.8661    0.0000 </r>
      </set>
      <set comment="kpoint 42">
       <r>  -31.2666    1.0000 </r>
       <r>  -14.2821    1.0000 </r>
       <r>  -14.2751    1.0000 </r>
       <r>  -14.2429    1.0000 </r>
       <r>  -14.2383    1.0000 </r>
       <r>  -14.2357    1.0000 </r>
       <r>   -9.4635    1.0000 </r>
       <r>   -9.3885    1.0000 </r>
       <r>   -9.2826    1.0000 </r>
       <r>   -2.7570    1.0000 </r>
       <r>    3.4276    1.0000 </r>
       <r>    3.7833    1.0000 </r>
       <r>    3.8329    1.0000 </r>
       <r>    4.7170    1.0000 </r>
       <r>    4.9479    1.0000 </r>
       <r>    5.2685    1.0000 </r>
       <r>    5.9876    1.0000 </r>
       <r>    6.8705    1.0000 </r>
       <r>    8.9027    0.0000 </r>
       <r>    9.8682    0.0000 </r>
       <r>   10.4581    0.0000 </r>
       <r>   10.6078    0.0000 </r>
       <r>   10.6327    0.0000 </r>
       <r>   10.8680    0.0000 </r>
      </set>
      <set comment="kpoint 43">
       <r>  -31.2670    1.0000 </r>
       <r>  -14.2858    1.0000 </r>
       <r>  -14.2760    1.0000 </r>
       <r>  -14.2415    1.0000 </r>
       <r>  -14.2395    1.0000 </r>
       <r>  -14.2363    1.0000 </r>
       <r>   -9.4618    1.0000 </r>
       <r>   -9.3911    1.0000 </r>
       <r>   -9.2671    1.0000 </r>
       <r>   -2.7055    1.0000 </r>
       <r>    3.2151    1.0000 </r>
       <r>    3.6970    1.0000 </r>
       <r>    3.8613    1.0000 </r>
       <r>    4.6926    1.0000 </r>
       <r>    5.0057    1.0000 </r>
       <r>    5.3945    1.0000 </r>
       <r>    5.9094    1.0000 </r>
       <r>    6.8525    1.0000 </r>
       <r>    9.0653    0.0000 </r>
       <r>    9.8059    0.0000 </r>
       <r>   10.3620    0.0000 </r>
       <r>   10.6341    0.0000 </r>
       <r>   10.6580    0.0000 </r>
       <r>   10.8698    0.0000 </r>
      </set>
      <set comment="kpoint 44">
       <r>  -31.2673    1.0000 </r>
       <r>  -14.2756    1.0000 </r>
       <r>  -14.2707    1.0000 </r>
       <r>  -14.2460    1.0000 </r>
       <r>  -14.2352    1.0000 </r>
       <r>  -14.2352    1.0000 </r>
       <r>   -9.4749    1.0000 </r>
       <r>   -9.3260    1.0000 </r>
       <r>   -9.3260    1.0000 </r>
       <r>   -2.9514    1.0000 </r>
       <r>    3.2698    1.0000 </r>
       <r>    4.2628    1.0000 </r>
       <r>    4.2680    1.0000 </r>
       <r>    4.2680    1.0000 </r>
       <r>    4.8161    1.0000 </r>
       <r>    5.3622    1.0000 </r>
       <r>    7.0419    1.0000 </r>
       <r>    7.0419    1.0000 </r>
       <r>    8.3712    1.0000 </r>
       <r>    9.9157    0.0000 </r>
       <r>   10.3478    0.0000 </r>
       <r>   10.4103    0.0000 </r>
       <r>   10.4103    0.0000 </r>
       <r>   10.7044    0.0000 </r>
      </set>
      <set comment="kpoint 45">
       <r>  -31.2668    1.0000 </r>
       <r>  -14.2730    1.0000 </r>
       <r>  -14.2713    1.0000 </r>
       <r>  -14.2462    1.0000 </r>
       <r>  -14.2350    1.0000 </r>
       <r>  -14.2348    1.0000 </r>
       <r>   -9.4847    1.0000 </r>
       <r>   -9.3345    1.0000 </r>
       <r>   -9.3250    1.0000 </r>
       <r>   -2.9502    1.0000 </r>
       <r>    3.5309    1.0000 </r>
       <r>    4.0345    1.0000 </r>
       <r>    4.2089    1.0000 </r>
       <r>    4.4374    1.0000 </r>
       <r>    4.8438    1.0000 </r>
       <r>    5.1552    1.0000 </r>
       <r>    6.9065    1.0000 </r>
       <r>    7.0795    1.0000 </r>
       <r>    8.4884    1.0000 </r>
       <r>   10.1101    0.0000 </r>
       <r>   10.3688    0.0000 </r>
       <r>   10.4522    0.0000 </r>
       <r>   10.4801    0.0000 </r>
       <r>   10.6449    0.0000 </r>
      </set>
      <set comment="kpoint 46">
       <r>  -31.2664    1.0000 </r>
       <r>  -14.2739    1.0000 </r>
       <r>  -14.2718    1.0000 </r>
       <r>  -14.2457    1.0000 </r>
       <r>  -14.2357    1.0000 </r>
       <r>  -14.2348    1.0000 </r>
       <r>   -9.4799    1.0000 </r>
       <r>   -9.3563    1.0000 </r>
       <r>   -9.3158    1.0000 </r>
       <r>   -2.9146    1.0000 </r>
       <r>    3.7263    1.0000 </r>
       <r>    3.8781    1.0000 </r>
       <r>    4.1007    1.0000 </r>
       <r>    4.6087    1.0000 </r>
       <r>    4.8841    1.0000 </r>
       <r>    5.0095    1.0000 </r>
       <r>    6.5323    1.0000 </r>
       <r>    7.0228    1.0000 </r>
       <r>    8.6042    1.0000 </r>
       <r>   10.1522    0.0000 </r>
       <r>   10.4502    0.0000 </r>
       <r>   10.5220    0.0000 </r>
       <r>   10.5386    0.0000 </r>
       <r>   10.8157    0.0000 </r>
      </set>
      <set comment="kpoint 47">
       <r>  -31.2664    1.0000 </r>
       <r>  -14.2778    1.0000 </r>
       <r>  -14.2726    1.0000 </r>
       <r>  -14.2444    1.0000 </r>
       <r>  -14.2369    1.0000 </r>
       <r>  -14.2351    1.0000 </r>
       <r>   -9.4624    1.0000 </r>
       <r>   -9.3857    1.0000 </r>
       <r>   -9.3006    1.0000 </r>
       <r>   -2.8467    1.0000 </r>
       <r>    3.7145    1.0000 </r>
       <r>    3.7737    1.0000 </r>
       <r>    3.9655    1.0000 </r>
       <r>    4.6894    1.0000 </r>
       <r>    4.9286    1.0000 </r>
       <r>    5.1070    1.0000 </r>
       <r>    6.1559    1.0000 </r>
       <r>    6.9246    1.0000 </r>
       <r>    8.7401    0.1981 </r>
       <r>   10.0147    0.0000 </r>
       <r>   10.4784    0.0000 </r>
       <r>   10.5494    0.0000 </r>
       <r>   10.6257    0.0000 </r>
       <r>   10.8732    0.0000 </r>
      </set>
      <set comment="kpoint 48">
       <r>  -31.2665    1.0000 </r>
       <r>  -14.2705    1.0000 </r>
       <r>  -14.2701    1.0000 </r>
       <r>  -14.2468    1.0000 </r>
       <r>  -14.2344    1.0000 </r>
       <r>  -14.2344    1.0000 </r>
       <r>   -9.4947    1.0000 </r>
       <r>   -9.3306    1.0000 </r>
       <r>   -9.3306    1.0000 </r>
       <r>   -2.9861    1.0000 </r>
       <r>    3.7839    1.0000 </r>
       <r>    4.1710    1.0000 </r>
       <r>    4.2212    1.0000 </r>
       <r>    4.2212    1.0000 </r>
       <r>    4.8551    1.0000 </r>
       <r>    4.9513    1.0000 </r>
       <r>    7.1654    1.0000 </r>
       <r>    7.1654    1.0000 </r>
       <r>    8.4556    1.0000 </r>
       <r>   10.1505    0.0000 </r>
       <r>   10.2766    0.0000 </r>
       <r>   10.4279    0.0000 </r>
       <r>   10.4623    0.0000 </r>
       <r>   10.4623    0.0000 </r>
      </set>
      <set comment="kpoint 49">
       <r>  -31.2664    1.0000 </r>
       <r>  -14.2711    1.0000 </r>
       <r>  -14.2701    1.0000 </r>
       <r>  -14.2466    1.0000 </r>
       <r>  -14.2347    1.0000 </r>
       <r>  -14.2344    1.0000 </r>
       <r>   -9.4927    1.0000 </r>
       <r>   -9.3387    1.0000 </r>
       <r>   -9.3273    1.0000 </r>
       <r>   -2.9740    1.0000 </r>
       <r>    3.8796    1.0000 </r>
       <r>    4.0053    1.0000 </r>
       <r>    4.1825    1.0000 </r>
       <r>    4.4091    1.0000 </r>
       <r>    4.8648    1.0000 </r>
       <r>    4.8696    1.0000 </r>
       <r>    6.9721    1.0000 </r>
       <r>    7.1372    1.0000 </r>
       <r>    8.5106    1.0000 </r>
       <r>   10.2852    0.0000 </r>
       <r>   10.3441    0.0000 </r>
       <r>   10.4543    0.0000 </r>
       <r>   10.4797    0.0000 </r>
       <r>   10.5029    0.0000 </r>
      </set>
      <set comment="kpoint 50">
       <r>  -31.2720    1.0000 </r>
       <r>  -14.2824    1.0000 </r>
       <r>  -14.2755    1.0000 </r>
       <r>  -14.2416    1.0000 </r>
       <r>  -14.2392    1.0000 </r>
       <r>  -14.2391    1.0000 </r>
       <r>   -9.3741    1.0000 </r>
       <r>   -9.3040    1.0000 </r>
       <r>   -9.2792    1.0000 </r>
       <r>   -3.2504    1.0000 </r>
       <r>    3.3633    1.0000 </r>
       <r>    4.0283    1.0000 </r>
       <r>    4.3856    1.0000 </r>
       <r>    4.6227    1.0000 </r>
       <r>    4.8988    1.0000 </r>
       <r>    5.9628    1.0000 </r>
       <r>    6.8178    1.0000 </r>
       <r>    7.2359    1.0000 </r>
       <r>    8.7014    1.0000 </r>
       <r>    8.8045    0.0000 </r>
       <r>    9.6059    0.0000 </r>
       <r>    9.9908    0.0000 </r>
       <r>   10.6131    0.0000 </r>
       <r>   10.7309    0.0000 </r>
      </set>
      <set comment="kpoint 51">
       <r>  -31.2708    1.0000 </r>
       <r>  -14.2851    1.0000 </r>
       <r>  -14.2770    1.0000 </r>
       <r>  -14.2421    1.0000 </r>
       <r>  -14.2388    1.0000 </r>
       <r>  -14.2385    1.0000 </r>
       <r>   -9.4237    1.0000 </r>
       <r>   -9.3066    1.0000 </r>
       <r>   -9.2687    1.0000 </r>
       <r>   -3.0446    1.0000 </r>
       <r>    3.1203    1.0000 </r>
       <r>    3.8365    1.0000 </r>
       <r>    4.2911    1.0000 </r>
       <r>    4.6546    1.0000 </r>
       <r>    4.9634    1.0000 </r>
       <r>    5.6627    1.0000 </r>
       <r>    6.6105    1.0000 </r>
       <r>    7.1403    1.0000 </r>
       <r>    8.6763    1.0000 </r>
       <r>    9.2650    0.0000 </r>
       <r>    9.8515    0.0000 </r>
       <r>   10.3478    0.0000 </r>
       <r>   10.7117    0.0000 </r>
       <r>   10.8159    0.0000 </r>
      </set>
      <set comment="kpoint 52">
       <r>  -31.2694    1.0000 </r>
       <r>  -14.2870    1.0000 </r>
       <r>  -14.2794    1.0000 </r>
       <r>  -14.2426    1.0000 </r>
       <r>  -14.2384    1.0000 </r>
       <r>  -14.2378    1.0000 </r>
       <r>   -9.4756    1.0000 </r>
       <r>   -9.3019    1.0000 </r>
       <r>   -9.2616    1.0000 </r>
       <r>   -2.8336    1.0000 </r>
       <r>    2.9399    1.0000 </r>
       <r>    3.7129    1.0000 </r>
       <r>    4.1475    1.0000 </r>
       <r>    4.6526    1.0000 </r>
       <r>    4.9534    1.0000 </r>
       <r>    5.3387    1.0000 </r>
       <r>    6.6030    1.0000 </r>
       <r>    7.0642    1.0000 </r>
       <r>    8.6359    1.0000 </r>
       <r>    9.7006    0.0000 </r>
       <r>   10.0868    0.0000 </r>
       <r>   10.5890    0.0000 </r>
       <r>   10.7008    0.0000 </r>
       <r>   10.8530    0.0000 </r>
      </set>
      <set comment="kpoint 53">
       <r>  -31.2683    1.0000 </r>
       <r>  -14.2878    1.0000 </r>
[...]
       <r>    9.1614    0.0000 </r>
       <r>    9.6184    0.0000 </r>
       <r>   10.4270    0.0000 </r>
       <r>   10.5440    0.0000 </r>
       <r>   10.6700    0.0000 </r>
       <r>   10.8339    0.0000 </r>
      </set>
      <set comment="kpoint 81">
       <r>  -31.2667    1.0000 </r>
       <r>  -14.2836    1.0000 </r>
       <r>  -14.2739    1.0000 </r>
       <r>  -14.2420    1.0000 </r>
       <r>  -14.2397    1.0000 </r>
       <r>  -14.2353    1.0000 </r>
       <r>   -9.4577    1.0000 </r>
       <r>   -9.3822    1.0000 </r>
       <r>   -9.2913    1.0000 </r>
       <r>   -2.7598    1.0000 </r>
       <r>    3.3734    1.0000 </r>
       <r>    3.6458    1.0000 </r>
       <r>    4.0672    1.0000 </r>
       <r>    4.7350    1.0000 </r>
       <r>    4.9344    1.0000 </r>
       <r>    5.3438    1.0000 </r>
       <r>    5.7133    1.0000 </r>
       <r>    7.0597    1.0000 </r>
       <r>    9.1828    0.0000 </r>
       <r>    9.6088    0.0000 </r>
       <r>   10.4079    0.0000 </r>
       <r>   10.5478    0.0000 </r>
       <r>   10.6822    0.0000 </r>
       <r>   10.8253    0.0000 </r>
      </set>
      <set comment="kpoint 82">
       <r>  -31.2664    1.0000 </r>
       <r>  -14.2781    1.0000 </r>
       <r>  -14.2704    1.0000 </r>
       <r>  -14.2446    1.0000 </r>
       <r>  -14.2374    1.0000 </r>
       <r>  -14.2344    1.0000 </r>
       <r>   -9.4653    1.0000 </r>
       <r>   -9.3609    1.0000 </r>
       <r>   -9.3250    1.0000 </r>
       <r>   -2.8725    1.0000 </r>
       <r>    3.6669    1.0000 </r>
       <r>    3.7906    1.0000 </r>
       <r>    4.1969    1.0000 </r>
       <r>    4.6634    1.0000 </r>
       <r>    4.9279    1.0000 </r>
       <r>    5.0416    1.0000 </r>
       <r>    5.9442    1.0000 </r>
       <r>    7.2236    1.0000 </r>
       <r>    8.8581    0.0000 </r>
       <r>    9.9554    0.0000 </r>
       <r>   10.3365    0.0000 </r>
       <r>   10.4594    0.0000 </r>
       <r>   10.5963    0.0000 </r>
       <r>   10.8399    0.0000 </r>
      </set>
      <set comment="kpoint 83">
       <r>  -31.2663    1.0000 </r>
       <r>  -14.2804    1.0000 </r>
       <r>  -14.2704    1.0000 </r>
       <r>  -14.2434    1.0000 </r>
       <r>  -14.2388    1.0000 </r>
       <r>  -14.2344    1.0000 </r>
       <r>   -9.4493    1.0000 </r>
       <r>   -9.3819    1.0000 </r>
       <r>   -9.3199    1.0000 </r>
       <r>   -2.8371    1.0000 </r>
       <r>    3.6289    1.0000 </r>
       <r>    3.7937    1.0000 </r>
       <r>    4.1547    1.0000 </r>
       <r>    4.7059    1.0000 </r>
       <r>    4.9614    1.0000 </r>
       <r>    5.1135    1.0000 </r>
       <r>    5.6421    1.0000 </r>
       <r>    7.2110    1.0000 </r>
       <r>    9.0351    0.0000 </r>
       <r>    9.7940    0.0000 </r>
       <r>   10.3847    0.0000 </r>
       <r>   10.4645    0.0000 </r>
       <r>   10.6396    0.0000 </r>
       <r>   10.8480    0.0000 </r>
      </set>
      <set comment="kpoint 84">
       <r>  -31.2663    1.0000 </r>
       <r>  -14.2817    1.0000 </r>
       <r>  -14.2704    1.0000 </r>
       <r>  -14.2423    1.0000 </r>
       <r>  -14.2400    1.0000 </r>
       <r>  -14.2344    1.0000 </r>
       <r>   -9.4416    1.0000 </r>
       <r>   -9.3867    1.0000 </r>
       <r>   -9.3213    1.0000 </r>
       <r>   -2.8182    1.0000 </r>
       <r>    3.5931    1.0000 </r>
       <r>    3.7624    1.0000 </r>
       <r>    4.1712    1.0000 </r>
       <r>    4.7245    1.0000 </r>
       <r>    4.9903    1.0000 </r>
       <r>    5.2086    1.0000 </r>
       <r>    5.4258    1.0000 </r>
       <r>    7.2341    1.0000 </r>
       <r>    9.2649    0.0000 </r>
       <r>    9.5756    0.0000 </r>
       <r>   10.3659    0.0000 </r>
       <r>   10.4611    0.0000 </r>
       <r>   10.6744    0.0000 </r>
       <r>   10.8231    0.0000 </r>
      </set>
     </set>
    </set>
   </array>
  </eigenvalues>
  <separator name="orbital magnetization" >
   <v name="MAGDIPOLOUT">      0.00000000      0.00000000      0.00000000</v>
  </separator>
  <dos>
   <i name="efermi">      8.73410019 </i>
   <total>
    <array>
     <dimension dim="1">gridpoints</dimension>
     <dimension dim="2">spin</dimension>
     <field>energy</field>
     <field>total</field>
     <field>integrated</field>
     <set>
      <set comment="spin 1">
       <r>   -33.3835     0.0000     0.0000 </r>
       <r>   -33.2288     0.0000     0.0000 </r>
       <r>   -33.0742     0.0000     0.0000 </r>
       <r>   -32.9195     0.0000     0.0000 </r>
       <r>   -32.7648     0.0000     0.0000 </r>
       <r>   -32.6101     0.0000     0.0000 </r>
       <r>   -32.4554     0.0000     0.0000 </r>
       <r>   -32.3007     0.0000     0.0000 </r>
       <r>   -32.1460     0.0000     0.0000 </r>
       <r>   -31.9914     0.0000     0.0000 </r>
       <r>   -31.8367     0.0000     0.0000 </r>
       <r>   -31.6820     0.0000     0.0000 </r>
       <r>   -31.5273     0.0000     0.0000 </r>
       <r>   -31.3726     0.0000     0.0000 </r>
       <r>   -31.2179    12.9295     2.0000 </r>
       <r>   -31.0632     0.0000     2.0000 </r>
       <r>   -30.9086     0.0000     2.0000 </r>
       <r>   -30.7539     0.0000     2.0000 </r>
       <r>   -30.5992     0.0000     2.0000 </r>
       <r>   -30.4445     0.0000     2.0000 </r>
       <r>   -30.2898     0.0000     2.0000 </r>
       <r>   -30.1351     0.0000     2.0000 </r>
       <r>   -29.9804     0.0000     2.0000 </r>
       <r>   -29.8258     0.0000     2.0000 </r>
       <r>   -29.6711     0.0000     2.0000 </r>
       <r>   -29.5164     0.0000     2.0000 </r>
       <r>   -29.3617     0.0000     2.0000 </r>
       <r>   -29.2070     0.0000     2.0000 </r>
       <r>   -29.0523     0.0000     2.0000 </r>
       <r>   -28.8977     0.0000     2.0000 </r>
       <r>   -28.7430     0.0000     2.0000 </r>
       <r>   -28.5883     0.0000     2.0000 </r>
       <r>   -28.4336     0.0000     2.0000 </r>
       <r>   -28.2789     0.0000     2.0000 </r>
       <r>   -28.1242     0.0000     2.0000 </r>
       <r>   -27.9695     0.0000     2.0000 </r>
       <r>   -27.8149     0.0000     2.0000 </r>
       <r>   -27.6602     0.0000     2.0000 </r>
       <r>   -27.5055     0.0000     2.0000 </r>
       <r>   -27.3508     0.0000     2.0000 </r>
       <r>   -27.1961     0.0000     2.0000 </r>
       <r>   -27.0414     0.0000     2.0000 </r>
       <r>   -26.8867     0.0000     2.0000 </r>
       <r>   -26.7321     0.0000     2.0000 </r>
       <r>   -26.5774     0.0000     2.0000 </r>
       <r>   -26.4227     0.0000     2.0000 </r>
       <r>   -26.2680     0.0000     2.0000 </r>
       <r>   -26.1133     0.0000     2.0000 </r>
       <r>   -25.9586     0.0000     2.0000 </r>
       <r>   -25.8039     0.0000     2.0000 </r>
       <r>   -25.6493     0.0000     2.0000 </r>
       <r>   -25.4946     0.0000     2.0000 </r>
       <r>   -25.3399     0.0000     2.0000 </r>
       <r>   -25.1852     0.0000     2.0000 </r>
       <r>   -25.0305     0.0000     2.0000 </r>
       <r>   -24.8758     0.0000     2.0000 </r>
       <r>   -24.7212     0.0000     2.0000 </r>
       <r>   -24.5665     0.0000     2.0000 </r>
       <r>   -24.4118     0.0000     2.0000 </r>
       <r>   -24.2571     0.0000     2.0000 </r>
       <r>   -24.1024     0.0000     2.0000 </r>
       <r>   -23.9477     0.0000     2.0000 </r>
       <r>   -23.7930     0.0000     2.0000 </r>
       <r>   -23.6384     0.0000     2.0000 </r>
       <r>   -23.4837     0.0000     2.0000 </r>
       <r>   -23.3290     0.0000     2.0000 </r>
       <r>   -23.1743     0.0000     2.0000 </r>
       <r>   -23.0196     0.0000     2.0000 </r>
       <r>   -22.8649     0.0000     2.0000 </r>
       <r>   -22.7102     0.0000     2.0000 </r>
       <r>   -22.5556     0.0000     2.0000 </r>
       <r>   -22.4009     0.0000     2.0000 </r>
       <r>   -22.2462     0.0000     2.0000 </r>
       <r>   -22.0915     0.0000     2.0000 </r>
       <r>   -21.9368     0.0000     2.0000 </r>
       <r>   -21.7821     0.0000     2.0000 </r>
       <r>   -21.6274     0.0000     2.0000 </r>
       <r>   -21.4728     0.0000     2.0000 </r>
       <r>   -21.3181     0.0000     2.0000 </r>
       <r>   -21.1634     0.0000     2.0000 </r>
       <r>   -21.0087     0.0000     2.0000 </r>
       <r>   -20.8540     0.0000     2.0000 </r>
       <r>   -20.6993     0.0000     2.0000 </r>
       <r>   -20.5446     0.0000     2.0000 </r>
       <r>   -20.3900     0.0000     2.0000 </r>
       <r>   -20.2353     0.0000     2.0000 </r>
       <r>   -20.0806     0.0000     2.0000 </r>
       <r>   -19.9259     0.0000     2.0000 </r>
       <r>   -19.7712     0.0000     2.0000 </r>
       <r>   -19.6165     0.0000     2.0000 </r>
       <r>   -19.4619     0.0000     2.0000 </r>
       <r>   -19.3072     0.0000     2.0000 </r>
       <r>   -19.1525     0.0000     2.0000 </r>
       <r>   -18.9978     0.0000     2.0000 </r>
       <r>   -18.8431     0.0000     2.0000 </r>
       <r>   -18.6884     0.0000     2.0000 </r>
       <r>   -18.5337     0.0000     2.0000 </r>
       <r>   -18.3791     0.0000     2.0000 </r>
       <r>   -18.2244     0.0000     2.0000 </r>
       <r>   -18.0697     0.0000     2.0000 </r>
       <r>   -17.9150     0.0000     2.0000 </r>
       <r>   -17.7603     0.0000     2.0000 </r>
       <r>   -17.6056     0.0000     2.0000 </r>
       <r>   -17.4509     0.0000     2.0000 </r>
       <r>   -17.2963     0.0000     2.0000 </r>
       <r>   -17.1416     0.0000     2.0000 </r>
       <r>   -16.9869     0.0000     2.0000 </r>
       <r>   -16.8322     0.0000     2.0000 </r>
       <r>   -16.6775     0.0000     2.0000 </r>
       <r>   -16.5228     0.0000     2.0000 </r>
       <r>   -16.3681     0.0000     2.0000 </r>
       <r>   -16.2135     0.0000     2.0000 </r>
       <r>   -16.0588     0.0000     2.0000 </r>
       <r>   -15.9041     0.0000     2.0000 </r>
       <r>   -15.7494     0.0000     2.0000 </r>
       <r>   -15.5947     0.0000     2.0000 </r>
       <r>   -15.4400     0.0000     2.0000 </r>
       <r>   -15.2854     0.0000     2.0000 </r>
       <r>   -15.1307     0.0000     2.0000 </r>
       <r>   -14.9760     0.0000     2.0000 </r>
       <r>   -14.8213     0.0000     2.0000 </r>
       <r>   -14.6666     0.0000     2.0000 </r>
       <r>   -14.5119     0.0000     2.0000 </r>
       <r>   -14.3572     0.0000     2.0000 </r>
       <r>   -14.2026    55.3608    12.0000 </r>
       <r>   -14.0479     0.0000    12.0000 </r>
       <r>   -13.8932     0.0000    12.0000 </r>
       <r>   -13.7385     0.0000    12.0000 </r>
       <r>   -13.5838     0.0000    12.0000 </r>
       <r>   -13.4291     0.0000    12.0000 </r>
       <r>   -13.2744     0.0000    12.0000 </r>
       <r>   -13.1198     0.0000    12.0000 </r>
       <r>   -12.9651     0.0000    12.0000 </r>
       <r>   -12.8104     0.0000    12.0000 </r>
       <r>   -12.6557     0.0000    12.0000 </r>
       <r>   -12.5010     0.0000    12.0000 </r>
       <r>   -12.3463     0.0000    12.0000 </r>
       <r>   -12.1916     0.0000    12.0000 </r>
       <r>   -12.0370     0.0000    12.0000 </r>
       <r>   -11.8823     0.0000    12.0000 </r>
       <r>   -11.7276     0.0000    12.0000 </r>
       <r>   -11.5729     0.0000    12.0000 </r>
       <r>   -11.4182     0.0000    12.0000 </r>
       <r>   -11.2635     0.0000    12.0000 </r>
       <r>   -11.1089     0.0000    12.0000 </r>
       <r>   -10.9542     0.0000    12.0000 </r>
       <r>   -10.7995     0.0000    12.0000 </r>
       <r>   -10.6448     0.0000    12.0000 </r>
       <r>   -10.4901     0.0000    12.0000 </r>
       <r>   -10.3354     0.0000    12.0000 </r>
       <r>   -10.1807     0.0000    12.0000 </r>
       <r>   -10.0261     0.0000    12.0000 </r>
       <r>    -9.8714     0.0000    12.0000 </r>
       <r>    -9.7167     0.0000    12.0000 </r>
       <r>    -9.5620     0.0631    12.0098 </r>
       <r>    -9.4073     8.1972    13.8524 </r>
       <r>    -9.2526    18.6790    17.8589 </r>
       <r>    -9.0979     0.0000    18.0000 </r>
       <r>    -8.9433     0.0000    18.0000 </r>
       <r>    -8.7886     0.0000    18.0000 </r>
       <r>    -8.6339     0.0000    18.0000 </r>
       <r>    -8.4792     0.0000    18.0000 </r>
       <r>    -8.3245     0.0000    18.0000 </r>
       <r>    -8.1698     0.0000    18.0000 </r>
       <r>    -8.0151     0.0000    18.0000 </r>
       <r>    -7.8605     0.0000    18.0000 </r>
       <r>    -7.7058     0.0000    18.0000 </r>
       <r>    -7.5511     0.0000    18.0000 </r>
       <r>    -7.3964     0.0000    18.0000 </r>
       <r>    -7.2417     0.0000    18.0000 </r>
       <r>    -7.0870     0.0000    18.0000 </r>
       <r>    -6.9323     0.0000    18.0000 </r>
       <r>    -6.7777     0.0000    18.0000 </r>
       <r>    -6.6230     0.0000    18.0000 </r>
       <r>    -6.4683     0.0000    18.0000 </r>
       <r>    -6.3136     0.0000    18.0000 </r>
       <r>    -6.1589     0.0000    18.0000 </r>
       <r>    -6.0042     0.0000    18.0000 </r>
       <r>    -5.8496     0.0000    18.0000 </r>
       <r>    -5.6949     0.0000    18.0000 </r>
       <r>    -5.5402     0.0000    18.0000 </r>
       <r>    -5.3855     0.0000    18.0000 </r>
       <r>    -5.2308     0.0000    18.0000 </r>
       <r>    -5.0761     0.0000    18.0000 </r>
       <r>    -4.9214     0.0000    18.0000 </r>
       <r>    -4.7668     0.0000    18.0000 </r>
       <r>    -4.6121     0.0000    18.0000 </r>
       <r>    -4.4574     0.0000    18.0000 </r>
       <r>    -4.3027     0.0000    18.0000 </r>
       <r>    -4.1480     0.0000    18.0000 </r>
       <r>    -3.9933     0.0000    18.0000 </r>
       <r>    -3.8386     0.0000    18.0000 </r>
       <r>    -3.6840     0.0000    18.0000 </r>
       <r>    -3.5293     0.0761    18.0127 </r>
       <r>    -3.3746     0.2396    18.0507 </r>
       <r>    -3.2199     0.2825    18.1029 </r>
       <r>    -3.0652     0.1411    18.1684 </r>
       <r>    -2.9105     1.3541    18.4671 </r>
       <r>    -2.7558     3.0132    19.2499 </r>
       <r>    -2.6012     1.5830    19.8589 </r>
       <r>    -2.4465     0.1883    20.0000 </r>
       <r>    -2.2918     0.0000    20.0000 </r>
       <r>    -2.1371     0.0000    20.0000 </r>
       <r>    -1.9824     0.0000    20.0000 </r>
       <r>    -1.8277     0.0000    20.0000 </r>
       <r>    -1.6731     0.0000    20.0000 </r>
       <r>    -1.5184     0.0000    20.0000 </r>
       <r>    -1.3637     0.0000    20.0000 </r>
       <r>    -1.2090     0.0000    20.0000 </r>
       <r>    -1.0543     0.0000    20.0000 </r>
       <r>    -0.8996     0.0000    20.0000 </r>
       <r>    -0.7449     0.0000    20.0000 </r>
       <r>    -0.5903     0.0000    20.0000 </r>
       <r>    -0.4356     0.0000    20.0000 </r>
       <r>    -0.2809     0.0000    20.0000 </r>
       <r>    -0.1262     0.0000    20.0000 </r>
       <r>     0.0285     0.0000    20.0000 </r>
       <r>     0.1832     0.0000    20.0000 </r>
       <r>     0.3379     0.0000    20.0000 </r>
       <r>     0.4925     0.0000    20.0000 </r>
       <r>     0.6472     0.0000    20.0000 </r>
       <r>     0.8019     0.0000    20.0000 </r>
       <r>     0.9566     0.0000    20.0000 </r>
       <r>     1.1113     0.0000    20.0000 </r>
       <r>     1.2660     0.0000    20.0000 </r>
       <r>     1.4207     0.0000    20.0000 </r>
       <r>     1.5753     0.0000    20.0000 </r>
       <r>     1.7300     0.0000    20.0000 </r>
       <r>     1.8847     0.0000    20.0000 </r>
       <r>     2.0394     0.0000    20.0000 </r>
       <r>     2.1941     0.0000    20.0000 </r>
       <r>     2.3488     0.0000    20.0000 </r>
       <r>     2.5034     0.0000    20.0000 </r>
       <r>     2.6581     0.1619    20.0250 </r>
       <r>     2.8128     0.3324    20.1242 </r>
       <r>     2.9675     2.3256    20.6802 </r>
       <r>     3.1222     1.4054    21.0840 </r>
       <r>     3.2769     1.3568    21.3460 </r>
       <r>     3.4316     0.5629    21.5127 </r>
       <r>     3.5862     1.3665    21.7589 </r>
       <r>     3.7409     4.8894    22.8610 </r>
       <r>     3.8956     3.0038    23.8493 </r>
       <r>     4.0503     2.7159    24.6113 </r>
       <r>     4.2050     2.4409    25.3917 </r>
       <r>     4.3597     1.0050    25.9233 </r>
       <r>     4.5144     0.2825    26.0710 </r>
       <r>     4.6690     4.3839    26.8001 </r>
       <r>     4.8237     3.8033    28.4745 </r>
       <r>     4.9784     5.2241    29.9961 </r>
       <r>     5.1331     1.4229    30.4805 </r>
       <r>     5.2878     2.1084    31.0526 </r>
       <r>     5.4425     0.7844    31.5087 </r>
       <r>     5.5972     0.6065    31.7215 </r>
       <r>     5.7518     0.4871    31.9506 </r>
       <r>     5.9065     0.1881    32.0737 </r>
       <r>     6.0612     1.1770    32.4397 </r>
       <r>     6.2159     0.8689    32.6506 </r>
       <r>     6.3706     1.6356    33.0149 </r>
       <r>     6.5253     0.4950    33.1662 </r>
       <r>     6.6800     1.5565    33.4852 </r>
       <r>     6.8346     0.3451    33.6474 </r>
       <r>     6.9893     4.4635    34.5248 </r>
       <r>     7.1440     3.3680    35.6562 </r>
       <r>     7.2987     0.7768    35.9254 </r>
       <r>     7.4534     0.0706    35.9727 </r>
       <r>     7.6081     0.0074    35.9993 </r>
       <r>     7.7627     0.0000    36.0009 </r>
       <r>     7.9174     0.0471    36.0082 </r>
       <r>     8.0721     0.0479    36.0156 </r>
       <r>     8.2268     0.1177    36.0464 </r>
       <r>     8.3815     0.4742    36.1307 </r>
       <r>     8.5362     0.3801    36.3364 </r>
       <r>     8.6909     2.0419    36.8302 </r>
       <r>     8.8455     1.8767    37.3727 </r>
       <r>     9.0002     1.4397    37.7530 </r>
       <r>     9.1549     0.5920    38.0433 </r>
       <r>     9.3096     0.9002    38.2621 </r>
       <r>     9.4643     0.1673    38.3327 </r>
       <r>     9.6190     1.4763    38.6225 </r>
       <r>     9.7737     1.9414    39.0167 </r>
       <r>     9.9283     2.7906    39.7389 </r>
       <r>    10.0830     2.0567    40.3882 </r>
       <r>    10.2377     1.6667    40.9287 </r>
       <r>    10.3924     3.3839    41.7788 </r>
       <r>    10.5471     3.4297    43.1150 </r>
       <r>    10.7018    10.7543    45.7063 </r>
       <r>    10.8565     6.0254    47.1250 </r>
       <r>    11.0111     0.0000    48.0000 </r>
       <r>    11.1658     0.0000    48.0000 </r>
       <r>    11.3205     0.0000    48.0000 </r>
       <r>    11.4752     0.0000    48.0000 </r>
       <r>    11.6299     0.0000    48.0000 </r>
       <r>    11.7846     0.0000    48.0000 </r>
       <r>    11.9392     0.0000    48.0000 </r>
       <r>    12.0939     0.0000    48.0000 </r>
       <r>    12.2486     0.0000    48.0000 </r>
       <r>    12.4033     0.0000    48.0000 </r>
       <r>    12.5580     0.0000    48.0000 </r>
       <r>    12.7127     0.0000    48.0000 </r>
       <r>    12.8674     0.0000    48.0000 </r>
       <r>    13.0220     0.0000    48.0000 </r>
      </set>
     </set>
    </array>
   </total>
  </dos>
 </calculation>
 <structure name="finalpos" >
  <crystal>
   <varray name="basis" >
    <v>       0.00000000       3.40187268       3.40187268 </v>
    <v>       3.40187268       0.00000000       3.40187268 </v>
    <v>       3.40187268       3.40187268       0.00000000 </v>
   </varray>
   <i name="volume">     78.73796040 </i>
   <varray name="rec_basis" >
    <v>      -0.14697787       0.14697787       0.14697787 </v>
    <v>       0.14697787      -0.14697787       0.14697787 </v>
    <v>       0.14697787       0.14697787      -0.14697787 </v>
   </varray>
  </crystal>
  <varray name="positions" >
   <v>       0.25000000       0.25000000       0.25000000 </v>
   <v>       0.75000000       0.75000000       0.75000000 </v>
   <v>       0.00000000       0.00000000       0.00000000 </v>
  </varray>
 </structure>
</modeling>
