   3   3   0   0
  0.2142530E+02  0.4496290E-09  0.4496290E-09  0.4496290E-09  0.5000000E-15
  1.000000000000000E-004
  CAR
 unknown system
     16.37651356    -30.13092678  301     11.43696514      1.00000000
    -30.131  0.0000E+00  0.0000E+00
    -29.976  0.0000E+00  0.0000E+00
    -29.821  0.0000E+00  0.0000E+00
    -29.666  0.0000E+00  0.0000E+00
    -29.511  0.0000E+00  0.0000E+00
    -29.356  0.0000E+00  0.0000E+00
    -29.201  0.0000E+00  0.0000E+00
    -29.046  0.0000E+00  0.0000E+00
    -28.891  0.0000E+00  0.0000E+00
    -28.736  0.0000E+00  0.0000E+00
    -28.581  0.0000E+00  0.0000E+00
    -28.426  0.0000E+00  0.0000E+00
    -28.271  0.0000E+00  0.0000E+00
    -28.116  0.0000E+00  0.0000E+00
    -27.961  0.1290E+02  0.2000E+01
    -27.806  0.0000E+00  0.2000E+01
    -27.651  0.0000E+00  0.2000E+01
    -27.496  0.0000E+00  0.2000E+01
    -27.340  0.0000E+00  0.2000E+01
    -27.185  0.0000E+00  0.2000E+01
    -27.030  0.0000E+00  0.2000E+01
    -26.875  0.0000E+00  0.2000E+01
    -26.720  0.0000E+00  0.2000E+01
    -26.565  0.0000E+00  0.2000E+01
    -26.410  0.0000E+00  0.2000E+01
    -26.255  0.0000E+00  0.2000E+01
    -26.100  0.0000E+00  0.2000E+01
    -25.945  0.0000E+00  0.2000E+01
    -25.790  0.0000E+00  0.2000E+01
    -25.635  0.0000E+00  0.2000E+01
    -25.480  0.0000E+00  0.2000E+01
    -25.325  0.0000E+00  0.2000E+01
    -25.170  0.0000E+00  0.2000E+01
    -25.015  0.0000E+00  0.2000E+01
    -24.860  0.0000E+00  0.2000E+01
    -24.705  0.0000E+00  0.2000E+01
    -24.550  0.0000E+00  0.2000E+01
    -24.395  0.0000E+00  0.2000E+01
    -24.240  0.0000E+00  0.2000E+01
    -24.085  0.0000E+00  0.2000E+01
    -23.930  0.0000E+00  0.2000E+01
    -23.775  0.0000E+00  0.2000E+01
    -23.620  0.0000E+00  0.2000E+01
    -23.465  0.0000E+00  0.2000E+01
    -23.310  0.0000E+00  0.2000E+01
    -23.155  0.0000E+00  0.2000E+01
    -23.000  0.0000E+00  0.2000E+01
    -22.845  0.0000E+00  0.2000E+01
    -22.690  0.0000E+00  0.2000E+01
    -22.535  0.0000E+00  0.2000E+01
    -22.380  0.0000E+00  0.2000E+01
    -22.225  0.0000E+00  0.2000E+01
    -22.070  0.0000E+00  0.2000E+01
    -21.915  0.0000E+00  0.2000E+01
    -21.760  0.0000E+00  0.2000E+01
    -21.605  0.0000E+00  0.2000E+01
    -21.450  0.0000E+00  0.2000E+01
    -21.295  0.0000E+00  0.2000E+01
    -21.139  0.0000E+00  0.2000E+01
    -20.984  0.0000E+00  0.2000E+01
    -20.829  0.0000E+00  0.2000E+01
    -20.674  0.0000E+00  0.2000E+01
    -20.519  0.0000E+00  0.2000E+01
    -20.364  0.0000E+00  0.2000E+01
    -20.209  0.0000E+00  0.2000E+01
    -20.054  0.0000E+00  0.2000E+01
    -19.899  0.0000E+00  0.2000E+01
    -19.744  0.0000E+00  0.2000E+01
    -19.589  0.0000E+00  0.2000E+01
    -19.434  0.0000E+00  0.2000E+01
    -19.279  0.0000E+00  0.2000E+01
    -19.124  0.0000E+00  0.2000E+01
    -18.969  0.0000E+00  0.2000E+01
    -18.814  0.0000E+00  0.2000E+01
    -18.659  0.0000E+00  0.2000E+01
    -18.504  0.0000E+00  0.2000E+01
    -18.349  0.0000E+00  0.2000E+01
    -18.194  0.0000E+00  0.2000E+01
    -18.039  0.0000E+00  0.2000E+01
    -17.884  0.0000E+00  0.2000E+01
    -17.729  0.0000E+00  0.2000E+01
    -17.574  0.0000E+00  0.2000E+01
    -17.419  0.0000E+00  0.2000E+01
    -17.264  0.0000E+00  0.2000E+01
    -17.109  0.0000E+00  0.2000E+01
    -16.954  0.0000E+00  0.2000E+01
    -16.799  0.0000E+00  0.2000E+01
    -16.644  0.0000E+00  0.2000E+01
    -16.489  0.0000E+00  0.2000E+01
    -16.334  0.0000E+00  0.2000E+01
    -16.179  0.0000E+00  0.2000E+01
    -16.024  0.0000E+00  0.2000E+01
    -15.869  0.0000E+00  0.2000E+01
    -15.714  0.0000E+00  0.2000E+01
    -15.559  0.0000E+00  0.2000E+01
    -15.404  0.0000E+00  0.2000E+01
    -15.249  0.0000E+00  0.2000E+01
    -15.094  0.0000E+00  0.2000E+01
    -14.938  0.0000E+00  0.2000E+01
    -14.783  0.0000E+00  0.2000E+01
    -14.628  0.0000E+00  0.2000E+01
    -14.473  0.0000E+00  0.2000E+01
    -14.318  0.0000E+00  0.2000E+01
    -14.163  0.0000E+00  0.2000E+01
    -14.008  0.0000E+00  0.2000E+01
    -13.853  0.0000E+00  0.2000E+01
    -13.698  0.0000E+00  0.2000E+01
    -13.543  0.0000E+00  0.2000E+01
    -13.388  0.0000E+00  0.2000E+01
    -13.233  0.0000E+00  0.2000E+01
    -13.078  0.0000E+00  0.2000E+01
    -12.923  0.0000E+00  0.2000E+01
    -12.768  0.0000E+00  0.2000E+01
    -12.613  0.0000E+00  0.2000E+01
    -12.458  0.0000E+00  0.2000E+01
    -12.303  0.0000E+00  0.2000E+01
    -12.148  0.0000E+00  0.2000E+01
    -11.993  0.2555E+02  0.5961E+01
    -11.838  0.0000E+00  0.1200E+02
    -11.683  0.0000E+00  0.1200E+02
    -11.528  0.0000E+00  0.1200E+02
    -11.373  0.0000E+00  0.1200E+02
    -11.218  0.0000E+00  0.1200E+02
    -11.063  0.0000E+00  0.1200E+02
    -10.908  0.0000E+00  0.1200E+02
    -10.753  0.0000E+00  0.1200E+02
    -10.598  0.0000E+00  0.1200E+02
    -10.443  0.0000E+00  0.1200E+02
    -10.288  0.0000E+00  0.1200E+02
    -10.133  0.0000E+00  0.1200E+02
     -9.978  0.0000E+00  0.1200E+02
     -9.823  0.0000E+00  0.1200E+02
     -9.668  0.0000E+00  0.1200E+02
     -9.513  0.0000E+00  0.1200E+02
     -9.358  0.0000E+00  0.1200E+02
     -9.203  0.0000E+00  0.1200E+02
     -9.048  0.0000E+00  0.1200E+02
     -8.893  0.0000E+00  0.1200E+02
     -8.738  0.0000E+00  0.1200E+02
     -8.582  0.0000E+00  0.1200E+02
     -8.427  0.0000E+00  0.1200E+02
     -8.272  0.0000E+00  0.1200E+02
     -8.117  0.0000E+00  0.1200E+02
     -7.962  0.0000E+00  0.1200E+02
     -7.807  0.0000E+00  0.1200E+02
     -7.652  0.0000E+00  0.1200E+02
     -7.497  0.0000E+00  0.1200E+02
     -7.342  0.0000E+00  0.1200E+02
     -7.187  0.0000E+00  0.1200E+02
     -7.032  0.3721E+00  0.1206E+02
     -6.877  0.2716E+01  0.1268E+02
     -6.722  0.1565E+01  0.1386E+02
     -6.567  0.2130E+01  0.1429E+02
     -6.412  0.8430E+01  0.1612E+02
     -6.257  0.4862E+01  0.1800E+02
     -6.102  0.0000E+00  0.1800E+02
     -5.947  0.0000E+00  0.1800E+02
     -5.792  0.0000E+00  0.1800E+02
     -5.637  0.0000E+00  0.1800E+02
     -5.482  0.0000E+00  0.1800E+02
     -5.327  0.0000E+00  0.1800E+02
     -5.172  0.0000E+00  0.1800E+02
     -5.017  0.0000E+00  0.1800E+02
     -4.862  0.0000E+00  0.1800E+02
     -4.707  0.0000E+00  0.1800E+02
     -4.552  0.0000E+00  0.1800E+02
     -4.397  0.0000E+00  0.1800E+02
     -4.242  0.0000E+00  0.1800E+02
     -4.087  0.0000E+00  0.1800E+02
     -3.932  0.0000E+00  0.1800E+02
     -3.777  0.0000E+00  0.1800E+02
     -3.622  0.0000E+00  0.1800E+02
     -3.467  0.0000E+00  0.1800E+02
     -3.312  0.0000E+00  0.1800E+02
     -3.157  0.0000E+00  0.1800E+02
     -3.002  0.0000E+00  0.1800E+02
     -2.847  0.0000E+00  0.1800E+02
     -2.692  0.0000E+00  0.1800E+02
     -2.537  0.0000E+00  0.1800E+02
     -2.381  0.0000E+00  0.1800E+02
     -2.226  0.0000E+00  0.1800E+02
     -2.071  0.5872E-02  0.1800E+02
     -1.916  0.8221E-01  0.1801E+02
     -1.761  0.7047E-01  0.1802E+02
     -1.606  0.4698E-01  0.1805E+02
     -1.451  0.1064E-02  0.1806E+02
     -1.296  0.2170E+00  0.1814E+02
     -1.141  0.4628E+00  0.1828E+02
     -0.986  0.1271E+01  0.1866E+02
     -0.831  0.1371E+01  0.1908E+02
     -0.676  0.1305E+01  0.1946E+02
     -0.521  0.9355E+00  0.1978E+02
     -0.366  0.3388E+00  0.1993E+02
     -0.211  0.1474E+00  0.1999E+02
     -0.056  0.0000E+00  0.2000E+02
      0.099  0.0000E+00  0.2000E+02
      0.254  0.0000E+00  0.2000E+02
      0.409  0.0000E+00  0.2000E+02
      0.564  0.0000E+00  0.2000E+02
      0.719  0.0000E+00  0.2000E+02
      0.874  0.0000E+00  0.2000E+02
      1.029  0.0000E+00  0.2000E+02
      1.184  0.0000E+00  0.2000E+02
      1.339  0.0000E+00  0.2000E+02
      1.494  0.0000E+00  0.2000E+02
      1.649  0.0000E+00  0.2000E+02
      1.804  0.0000E+00  0.2000E+02
      1.959  0.0000E+00  0.2000E+02
      2.114  0.0000E+00  0.2000E+02
      2.269  0.0000E+00  0.2000E+02
      2.424  0.0000E+00  0.2000E+02
      2.579  0.0000E+00  0.2000E+02
      2.734  0.0000E+00  0.2000E+02
      2.889  0.0000E+00  0.2000E+02
      3.044  0.0000E+00  0.2000E+02
      3.199  0.0000E+00  0.2000E+02
      3.354  0.0000E+00  0.2000E+02
      3.509  0.0000E+00  0.2000E+02
      3.664  0.0000E+00  0.2000E+02
      3.820  0.0000E+00  0.2000E+02
      3.975  0.0000E+00  0.2000E+02
      4.130  0.0000E+00  0.2000E+02
      4.285  0.4008E-02  0.2000E+02
      4.440  0.7318E+00  0.2012E+02
      4.595  0.1985E+01  0.2055E+02
      4.750  0.1927E+00  0.2079E+02
      4.905  0.1533E+01  0.2111E+02
      5.060  0.2638E+01  0.2168E+02
      5.215  0.3155E+01  0.2252E+02
      5.370  0.2345E+01  0.2314E+02
      5.525  0.2203E+01  0.2385E+02
      5.680  0.2389E+01  0.2458E+02
      5.835  0.1803E+01  0.2526E+02
      5.990  0.1333E+01  0.2563E+02
      6.145  0.9148E+00  0.2593E+02
      6.300  0.3559E+01  0.2659E+02
      6.455  0.4466E+01  0.2798E+02
      6.610  0.2099E+01  0.2867E+02
      6.765  0.3277E+01  0.2958E+02
      6.920  0.8643E+00  0.2996E+02
      7.075  0.5091E+00  0.3012E+02
      7.230  0.8746E+00  0.3031E+02
      7.385  0.4656E+00  0.3057E+02
      7.540  0.1076E+01  0.3105E+02
      7.695  0.1072E+01  0.3140E+02
      7.850  0.5760E+00  0.3158E+02
      8.005  0.1069E+01  0.3182E+02
      8.160  0.3884E+00  0.3198E+02
      8.315  0.4352E+00  0.3209E+02
      8.470  0.8022E+00  0.3239E+02
      8.625  0.5637E+00  0.3260E+02
      8.780  0.1114E+01  0.3290E+02
      8.935  0.9736E+00  0.3319E+02
      9.090  0.7420E+00  0.3339E+02
      9.245  0.8471E+00  0.3363E+02
      9.400  0.1647E+01  0.3394E+02
      9.555  0.3520E+01  0.3495E+02
      9.710  0.5727E+00  0.3550E+02
      9.865  0.9375E+00  0.3578E+02
     10.020  0.2987E+00  0.3591E+02
     10.176  0.0000E+00  0.3600E+02
     10.331  0.0000E+00  0.3600E+02
     10.486  0.1630E-17  0.3600E+02
     10.641  0.0000E+00  0.3600E+02
     10.796  0.4240E-11  0.3600E+02
     10.951  0.1223E+00  0.3603E+02
     11.106  0.3522E+00  0.3613E+02
     11.261  0.1306E+01  0.3645E+02
     11.416  0.2394E+01  0.3697E+02
     11.571  0.1713E+01  0.3739E+02
     11.726  0.1697E+01  0.3781E+02
     11.881  0.8678E+00  0.3802E+02
     12.036  0.5149E+00  0.3816E+02
     12.191  0.5915E+00  0.3826E+02
     12.346  0.8025E+00  0.3841E+02
     12.501  0.5604E+00  0.3865E+02
     12.656  0.1055E+01  0.3915E+02
     12.811  0.2492E+01  0.3977E+02
     12.966  0.1098E+01  0.4017E+02
     13.121  0.1128E+01  0.4061E+02
     13.276  0.1290E+01  0.4108E+02
     13.431  0.3524E+01  0.4184E+02
     13.586  0.2082E+01  0.4266E+02
     13.741  0.3259E+01  0.4350E+02
     13.896  0.5929E+01  0.4541E+02
     14.051  0.1286E+01  0.4622E+02
     14.206  0.6631E+01  0.4754E+02
     14.361  0.0000E+00  0.4800E+02
     14.516  0.0000E+00  0.4800E+02
     14.671  0.0000E+00  0.4800E+02
     14.826  0.0000E+00  0.4800E+02
     14.981  0.0000E+00  0.4800E+02
     15.136  0.0000E+00  0.4800E+02
     15.291  0.0000E+00  0.4800E+02
     15.446  0.0000E+00  0.4800E+02
     15.601  0.0000E+00  0.4800E+02
     15.756  0.0000E+00  0.4800E+02
     15.911  0.0000E+00  0.4800E+02
     16.066  0.0000E+00  0.4800E+02
     16.221  0.0000E+00  0.4800E+02
     16.377  0.0000E+00  0.4800E+02
