       N       E                     dE             d eps       ncg     rms          rms(c)
DAV:   1     0.455840483915E+03    0.45584E+03   -0.21005E+04  4032   0.214E+03
DAV:   2     0.481353957162E+02   -0.40771E+03   -0.39816E+03  4080   0.519E+02
DAV:   3    -0.169392796010E+02   -0.65075E+02   -0.64248E+02  5600   0.175E+02
DAV:   4    -0.210588479212E+02   -0.41196E+01   -0.41111E+01  7128   0.441E+01
DAV:   5    -0.211637765553E+02   -0.10493E+00   -0.10489E+00  5728   0.569E+00    0.484E+01
DAV:   6    -0.204293475977E+02    0.73443E+00   -0.12835E+00  5224   0.848E+00    0.289E+01
DAV:   7    -0.202515629955E+02    0.17778E+00   -0.13898E+00  5976   0.785E+00    0.512E+00
DAV:   8    -0.202302498990E+02    0.21313E-01   -0.26867E-01  5616   0.302E+00    0.252E+00
DAV:   9    -0.202256710520E+02    0.45788E-02   -0.72949E-02  5840   0.177E+00    0.243E+00
DAV:  10    -0.202235433780E+02    0.21277E-02   -0.12466E-02  5944   0.656E-01    0.659E-01
DAV:  11    -0.202235665698E+02   -0.23192E-04   -0.51753E-04  5560   0.147E-01    0.447E-01
DAV:  12    -0.202235433992E+02    0.23171E-04   -0.18455E-04  6360   0.784E-02    0.610E-02
DAV:  13    -0.202235452502E+02   -0.18510E-05   -0.16805E-05  5888   0.249E-02    0.278E-02
DAV:  14    -0.202235450683E+02    0.18186E-06   -0.86986E-07  5392   0.641E-03    0.176E-02
DAV:  15    -0.202235447785E+02    0.28984E-06   -0.65854E-07  5920   0.555E-03    0.129E-03
DAV:  16    -0.202235447657E+02    0.12795E-07   -0.38508E-08  3440   0.124E-03
   1 F= -.20223545E+02 E0= -.20223484E+02  d E =-.122401E-03
