 vasp.6.0.8 29Jun18 (build Jun 13 2019 12:54:44) complex

 executed on      IFC18_CrayMPICH date 2021.12.05  14:21:52
 running   64 mpi-ranks, with    1 threads/rank
 distrk:  each k-point on   16 cores,    4 groups
 distr:  one band on NCORES_PER_BAND=   4 cores,    4 groups


--------------------------------------------------------------------------------------------------------


 INCAR:
 POTCAR:    PAW_PBE Th 07Sep2000
 POTCAR:    PAW_PBE Bi_d 06Sep2000
 POTCAR:    PAW_PBE Pt 04Feb2005
 POTCAR:    PAW_PBE Th 07Sep2000
   VRHFIN =Th:  [Xe,5d,4f]
   LEXCH  = PE
   EATOM  =   984.7553 eV,   72.3775 Ry

   TITEL  = PAW_PBE Th 07Sep2000
   LULTRA =        F    use ultrasoft PP ?
   IUNSCR =        1    unscreen: 0-lin 1-nonlin 2-no
   RPACOR =    2.200    partial core radius
   POMASS =  232.039; ZVAL   =   12.000    mass and valenz
   RCORE  =    2.800    outmost cutoff radius
   RWIGS  =    3.000; RWIGS  =    1.588    wigner-seitz radius (au A)
   ENMAX  =  247.306; ENMIN  =  185.480 eV
   RCLOC  =    2.211    cutoff for local pot
   LCOR   =        T    correct aug charges
   LPAW   =        T    paw PP
   EAUG   =  535.431
   DEXC   =    0.000
   RMAX   =    2.862    core radius for proj-oper
   RAUG   =    1.300    factor for augmentation sphere
   RDEP   =    2.926    radius for radial grids
   RDEPT  =    2.250    core radius for aug-charge

   Atomic configuration
   18 entries
     n  l   j            E        occ.
     1  0  0.50   -109990.1879   2.0000
     2  0  0.50    -20388.0147   2.0000
     2  1  1.50    -17049.6156   6.0000
     3  0  0.50     -5106.5436   2.0000
     3  1  1.50     -4175.1262   6.0000
     3  2  2.50     -3342.8437  10.0000
     4  0  0.50     -1280.8211   2.0000
     4  1  1.50      -976.4859   6.0000
     4  2  2.50      -661.8358  10.0000
     4  3  3.50      -324.9124  14.0000
     5  0  0.50      -278.7726   2.0000
     5  1  1.50      -186.2212   6.0000
     5  2  2.50       -86.9031  10.0000
     6  0  0.50       -43.3059   2.0000
     7  0  0.50        -4.0783   2.0000
     6  1  1.50       -21.4071   6.0000
     6  2  1.50        -2.3664   1.0000
     5  3  2.50        -1.2804   1.0000
   Description
     l       E           TYP  RCUT    TYP  RCUT
     0    -43.3059201     23  2.800
     0     -4.0782900     23  2.800
     1    -21.4071032     23  2.500
     1    -22.7676858     23  2.500
     2     -2.3664170     23  2.500
     2      3.0546543     23  2.500
     3     -1.2803910     23  2.800
     3      0.1360583     23  2.800
  local pseudopotential read in
  partial core-charges read in
  partial kinetic energy density read in
  atomic valenz-charges read in
  non local Contribution for L=           0  read in
    real space projection operators read in
  non local Contribution for L=           0  read in
    real space projection operators read in
  non local Contribution for L=           1  read in
    real space projection operators read in
  non local Contribution for L=           1  read in
    real space projection operators read in
  non local Contribution for L=           2  read in
    real space projection operators read in
  non local Contribution for L=           2  read in
    real space projection operators read in
  non local Contribution for L=           3  read in
    real space projection operators read in
  non local Contribution for L=           3  read in
    real space projection operators read in
    PAW grid and wavefunctions read in

   number of l-projection  operators is LMAX  =           8
   number of lm-projection operators is LMMAX =          32

 POTCAR:    PAW_PBE Bi_d 06Sep2000
   VRHFIN =Bi:
   LEXCH  = PE
   EATOM  =  1959.2045 eV,  143.9975 Ry

   TITEL  = PAW_PBE Bi_d 06Sep2000
   LULTRA =        F    use ultrasoft PP ?
   IUNSCR =        1    unscreen: 0-lin 1-nonlin 2-no
   RPACOR =    2.200    partial core radius
   POMASS =  208.980; ZVAL   =   15.000    mass and valenz
   RCORE  =    2.500    outmost cutoff radius
   RWIGS  =    3.090; RWIGS  =    1.635    wigner-seitz radius (au A)
   ENMAX  =  242.839; ENMIN  =  182.129 eV
   ICORE  =        3    local potential
   LCOR   =        T    correct aug charges
   LPAW   =        T    paw PP
   EAUG   =  442.899
   DEXC   =    0.000
   RMAX   =    2.551    core radius for proj-oper
   RAUG   =    1.300    factor for augmentation sphere
   RDEP   =    2.650    radius for radial grids
   RDEPT  =    2.039    core radius for aug-charge

   Atomic configuration
   16 entries
     n  l   j            E        occ.
     1  0  0.50    -90639.6581   2.0000
     2  0  0.50    -16282.4666   2.0000
     2  1  1.50    -13922.8286   6.0000
     3  0  0.50     -3930.4763   2.0000
     3  1  1.50     -3256.7013   6.0000
     3  2  2.50     -2581.6168  10.0000
     4  0  0.50      -902.2614   2.0000
     4  1  1.50      -681.5915   6.0000
     4  2  2.50      -429.8249  10.0000
     4  3  3.50      -152.6004  14.0000
     5  0  0.50      -157.7156   2.0000
     5  1  1.50       -95.8054   6.0000
     5  2  2.50       -27.0806  10.0000
     6  0  0.50       -14.4732   2.0000
     6  1  1.50        -4.5702   3.0000
     5  3  2.50        -2.7212   0.0000
   Description
     l       E           TYP  RCUT    TYP  RCUT
     2    -27.0805982     23  2.500
     2     -1.3605826     23  2.500
     0    -14.4732271     23  2.500
     0      6.8029130     23  2.500
     1     -4.5701651     23  2.500
     1     13.6058260     23  2.500
     3     -1.3605826      7  2.500
  local pseudopotential read in
  partial core-charges read in
  partial kinetic energy density read in
  atomic valenz-charges read in
  non local Contribution for L=           2  read in
    real space projection operators read in
  non local Contribution for L=           2  read in
    real space projection operators read in
  non local Contribution for L=           0  read in
    real space projection operators read in
  non local Contribution for L=           0  read in
    real space projection operators read in
  non local Contribution for L=           1  read in
    real space projection operators read in
  non local Contribution for L=           1  read in
    real space projection operators read in
    PAW grid and wavefunctions read in

   number of l-projection  operators is LMAX  =           6
   number of lm-projection operators is LMMAX =          18

 POTCAR:    PAW_PBE Pt 04Feb2005
   VRHFIN =Pt: s1d9
   LEXCH  = PE
   EATOM  =   729.1176 eV,   53.5886 Ry

   TITEL  = PAW_PBE Pt 04Feb2005
   LULTRA =        F    use ultrasoft PP ?
   IUNSCR =        1    unscreen: 0-lin 1-nonlin 2-no
   RPACOR =    2.330    partial core radius
   POMASS =  195.080; ZVAL   =   10.000    mass and valenz
   RCORE  =    2.600    outmost cutoff radius
   RWIGS  =    2.750; RWIGS  =    1.455    wigner-seitz radius (au A)
   ENMAX  =  230.283; ENMIN  =  172.712 eV
   ICORE  =        3    local potential
   LCOR   =        T    correct aug charges
   LPAW   =        T    paw PP
   EAUG   =  358.966
   DEXC   =    0.000
   RMAX   =    2.658    core radius for proj-oper
   RAUG   =    1.300    factor for augmentation sphere
   RDEP   =    2.761    radius for radial grids
   RDEPT  =    2.203    core radius for aug-charge

   Atomic configuration
   16 entries
     n  l   j            E        occ.
     1  0  0.50    -78401.1885   2.0000
     2  0  0.50    -13770.7750   2.0000
     2  1  1.50    -11931.0468   6.0000
     3  0  0.50     -3234.7234   2.0000
     3  1  1.50     -2699.2216   6.0000
     3  2  2.50     -2119.5714  10.0000
     4  0  0.50      -695.1528   2.0000
     4  1  1.50      -519.6034   6.0000
     4  2  2.50      -306.6786  10.0000
     4  3  3.50       -70.1041  14.0000
     5  0  0.50      -101.7747   2.0000
     5  1  1.50       -55.9873   6.0000
     5  2  2.50        -6.1423   9.0000
     6  0  0.50        -5.6573   1.0000
     6  1  1.50        -6.8029   0.0000
     5  3  2.50        -1.3606   0.0000
   Description
     l       E           TYP  RCUT    TYP  RCUT
     2     -6.1423404     23  2.500
     2     -7.5029230     23  2.500
     0     -5.6573207     23  2.500
     0      0.7416693     23  2.500
     1     -2.7211652     23  2.600
     1     20.4087390     23  2.600
     3     -1.3605826     23  2.500
  local pseudopotential read in
  partial core-charges read in
  partial kinetic energy density read in
  atomic valenz-charges read in
  non local Contribution for L=           2  read in
    real space projection operators read in
  non local Contribution for L=           2  read in
    real space projection operators read in
  non local Contribution for L=           0  read in
    real space projection operators read in
  non local Contribution for L=           0  read in
    real space projection operators read in
  non local Contribution for L=           1  read in
    real space projection operators read in
  non local Contribution for L=           1  read in
    real space projection operators read in
    PAW grid and wavefunctions read in

   number of l-projection  operators is LMAX  =           6
   number of lm-projection operators is LMMAX =          18

 WARNING: PSMAXN for non-local potential too small
          PSMAXN should be >   13.5545592237991       NTYP=           1

 -----------------------------------------------------------------------------
|                                                                             |
|  ADVICE TO THIS USER RUNNING 'VASP/VAMP'   (HEAR YOUR MASTER'S VOICE ...):  |
|                                                                             |
|      You enforced a specific xc-type in the INCAR file,                     |
|      a different type was found on the POTCAR file                          |
|          I HOPE YOU KNOW, WHAT YOU ARE  DOING                               |
|                                                                             |
 -----------------------------------------------------------------------------

  PAW_PBE Th 07Sep2000                  :
 energy of atom  1       EATOM= -984.7553
 kinetic energy error for atom=    0.0005 (will be added to EATOM!!)
  PAW_PBE Bi_d 06Sep2000                :
 energy of atom  2       EATOM=-1959.2045
 kinetic energy error for atom=    0.0012 (will be added to EATOM!!)
  PAW_PBE Pt 04Feb2005                  :
 energy of atom  3       EATOM= -729.1176
 kinetic energy error for atom=    0.0010 (will be added to EATOM!!)


 POSCAR: Th1 Bi1 Pt1
  positions in direct lattice
  No initial velocities read in
 exchange correlation table for  LEXCH =       14
   RHO(1)=    0.500       N(1)  =     2000
   RHO(2)=  100.500       N(2)  =     4000



--------------------------------------------------------------------------------------------------------


 ion  position               nearest neighbor table
   1  0.250  0.250  0.250-   3 2.75   3 2.75   3 2.75   3 2.75   2 3.18   2 3.18   2 3.18   2 3.18
                             2 3.18   2 3.18
   2  0.750  0.750  0.750-   3 2.75   3 2.75   3 2.75   3 2.75   1 3.18   1 3.18   1 3.18   1 3.18
                             1 3.18   1 3.18
   3  0.000  0.000  0.000-   2 2.75   2 2.75   2 2.75   1 2.75   2 2.75   1 2.75   1 2.75   1 2.75


  LATTYP: Found a face centered cubic cell.
 ALAT       =     6.3587149164

  Lattice vectors:

 A1 = (   0.0000000000,   3.1793574582,   3.1793574582)
 A2 = (   3.1793574582,   0.0000000000,   3.1793574582)
 A3 = (   3.1793574582,   3.1793574582,   0.0000000000)


Analysis of symmetry for initial positions (statically):
=====================================================================
 Subroutine PRICEL returns:
 Original cell was already a primitive cell.


 Routine SETGRP: Setting up the symmetry group for a
 face centered cubic supercell.


 Subroutine GETGRP returns: Found 24 space group operations
 (whereof 24 operations were pure point group operations)
 out of a pool of 48 trial point group operations.


The static configuration has the point symmetry T_d .


Analysis of symmetry for dynamics (positions and initial velocities):
=====================================================================
 Subroutine PRICEL returns:
 Original cell was already a primitive cell.


 Routine SETGRP: Setting up the symmetry group for a
 face centered cubic supercell.


 Subroutine GETGRP returns: Found 24 space group operations
 (whereof 24 operations were pure point group operations)
 out of a pool of 48 trial point group operations.


The dynamic configuration has the point symmetry T_d .


 Subroutine INISYM returns: Found 24 space group operations
 (whereof 24 operations are pure point group operations),
 and found     1 'primitive' translations


----------------------------------------------------------------------------------------

                                     Primitive cell

  volume of cell :      64.2759

  direct lattice vectors                    reciprocal lattice vectors
     0.000000000  3.179357458  3.179357458    -0.157264481  0.157264481  0.157264481
     3.179357458  0.000000000  3.179357458     0.157264481 -0.157264481  0.157264481
     3.179357458  3.179357458  0.000000000     0.157264481  0.157264481 -0.157264481

  length of vectors
     4.496290437  4.496290437  4.496290437     0.272390071  0.272390071  0.272390071

  position of ions in fractional coordinates (direct lattice)
     0.250000000  0.250000000  0.250000000
     0.750000000  0.750000000  0.750000000
     0.000000000  0.000000000  0.000000000

  ion indices of the primitive-cell ions
   primitive index   ion index
                 1           1
                 2           2
                 3           3

----------------------------------------------------------------------------------------



 KPOINTS: KPOINTS

Automatic generation of k-mesh.
Space group operators:
 irot       det(A)        alpha          n_x          n_y          n_z        tau_x        tau_y        tau_z
    1     1.000000     0.000001     1.000000     0.000000     0.000000     0.000000     0.000000     0.000000
    2     1.000000   120.000000    -0.577350    -0.577350    -0.577350     0.000000     0.000000     0.000000
    3     1.000000   120.000000     0.577350     0.577350     0.577350     0.000000     0.000000     0.000000
    4    -1.000000    90.000000     0.000000     0.000000    -1.000000     0.000000     0.000000     0.000000
    5    -1.000000   180.000000    -0.000000     0.707107     0.707107     0.000000     0.000000     0.000000
    6    -1.000000    90.000000     0.000000     1.000000    -0.000000     0.000000     0.000000     0.000000
    7     1.000000   180.000000     0.000000    -0.000000     1.000000     0.000000     0.000000     0.000000
    8     1.000000   120.000000    -0.577350     0.577350     0.577350     0.000000     0.000000     0.000000
    9     1.000000   120.000000    -0.577350     0.577350    -0.577350     0.000000     0.000000     0.000000
   10    -1.000000    90.000000     0.000000     0.000000     1.000000     0.000000     0.000000     0.000000
   11    -1.000000    90.000000    -1.000000    -0.000000     0.000000     0.000000     0.000000     0.000000
   12    -1.000000   180.000000     0.707107     0.000000     0.707107     0.000000     0.000000     0.000000
   13     1.000000   120.000000     0.577350    -0.577350     0.577350     0.000000     0.000000     0.000000
   14     1.000000   120.000000    -0.577350    -0.577350     0.577350     0.000000     0.000000     0.000000
   15     1.000000   180.000000     1.000000     0.000000     0.000000     0.000000     0.000000     0.000000
   16    -1.000000    90.000000     0.000000    -1.000000     0.000000     0.000000     0.000000     0.000000
   17    -1.000000   180.000000     0.707107     0.707107     0.000000     0.000000     0.000000     0.000000
   18    -1.000000    90.000000     1.000000     0.000000    -0.000000     0.000000     0.000000     0.000000
   19     1.000000   120.000000     0.577350    -0.577350    -0.577350     0.000000     0.000000     0.000000
   20     1.000000   180.000000    -0.000000    -1.000000    -0.000000     0.000000     0.000000     0.000000
   21     1.000000   120.000000     0.577350     0.577350    -0.577350     0.000000     0.000000     0.000000
   22    -1.000000   180.000000    -0.000000    -0.707107     0.707107     0.000000     0.000000     0.000000
   23    -1.000000   180.000000     0.707107    -0.707107    -0.000000     0.000000     0.000000     0.000000
   24    -1.000000   180.000000     0.707107     0.000000    -0.707107     0.000000     0.000000     0.000000

 Subroutine IBZKPT returns following result:
 ===========================================

 Found     84 irreducible k-points:

 Following reciprocal coordinates:
            Coordinates               Weight
  0.000000  0.000000  0.000000      1.000000
  0.076923  0.000000 -0.000000      8.000000
  0.153846  0.000000 -0.000000      8.000000
  0.230769  0.000000 -0.000000      8.000000
  0.307692  0.000000 -0.000000      8.000000
  0.384615  0.000000 -0.000000      8.000000
  0.461538 -0.000000  0.000000      8.000000
  0.076923  0.076923 -0.000000      6.000000
  0.153846  0.076923 -0.000000     24.000000
  0.230769  0.076923 -0.000000     24.000000
  0.307692  0.076923 -0.000000     24.000000
  0.384615  0.076923 -0.000000     24.000000
  0.461538  0.076923 -0.000000     24.000000
 -0.461538  0.076923 -0.000000     24.000000
 -0.384615  0.076923  0.000000     24.000000
 -0.307692  0.076923  0.000000     24.000000
 -0.230769  0.076923  0.000000     24.000000
 -0.153846  0.076923  0.000000     24.000000
 -0.076923  0.076923  0.000000     12.000000
  0.153846  0.153846 -0.000000      6.000000
  0.230769  0.153846 -0.000000     24.000000
  0.307692  0.153846  0.000000     24.000000
  0.384615  0.153846 -0.000000     24.000000
  0.461538  0.153846 -0.000000     24.000000
 -0.461538  0.153846  0.000000     24.000000
 -0.384615  0.153846  0.000000     24.000000
 -0.307692  0.153846  0.000000     24.000000
 -0.230769  0.153846  0.000000     24.000000
 -0.153846  0.153846  0.000000     12.000000
  0.230769  0.230769 -0.000000      6.000000
  0.307692  0.230769 -0.000000     24.000000
  0.384615  0.230769 -0.000000     24.000000
  0.461538  0.230769 -0.000000     24.000000
 -0.461538  0.230769  0.000000     24.000000
 -0.384615  0.230769 -0.000000     24.000000
 -0.307692  0.230769 -0.000000     24.000000
 -0.230769  0.230769  0.000000     12.000000
  0.307692  0.307692 -0.000000      6.000000
  0.384615  0.307692 -0.000000     24.000000
  0.461538  0.307692 -0.000000     24.000000
 -0.461538  0.307692 -0.000000     24.000000
 -0.384615  0.307692  0.000000     24.000000
 -0.307692  0.307692  0.000000     12.000000
  0.384615  0.384615 -0.000000      6.000000
  0.461538  0.384615 -0.000000     24.000000
 -0.461538  0.384615  0.000000     24.000000
 -0.384615  0.384615  0.000000     12.000000
  0.461538  0.461538 -0.000000      6.000000
 -0.461538  0.461538  0.000000     12.000000
  0.230769  0.153846  0.076923     24.000000
  0.307692  0.153846  0.076923     48.000000
  0.384615  0.153846  0.076923     48.000000
  0.461538  0.153846  0.076923     48.000000
 -0.461538  0.153846  0.076923     48.000000
  0.307692  0.230769  0.076923     24.000000
  0.384615  0.230769  0.076923     48.000000
  0.461538  0.230769  0.076923     48.000000
 -0.461538  0.230769  0.076923     48.000000
 -0.384615  0.230769  0.076923     48.000000
 -0.307692  0.230769  0.076923     48.000000
 -0.230769  0.230769  0.076923     48.000000
 -0.153846  0.230769  0.076923     24.000000
  0.384615  0.307692  0.076923     24.000000
  0.461538  0.307692  0.076923     48.000000
 -0.461538  0.307692  0.076923     48.000000
 -0.384615  0.307692  0.076923     48.000000
 -0.307692  0.307692  0.076923     48.000000
 -0.230769  0.307692  0.076923     24.000000
  0.461538  0.384615  0.076923     24.000000
 -0.461538  0.384615  0.076923     48.000000
 -0.384615  0.384615  0.076923     48.000000
 -0.307692  0.384615  0.076923     24.000000
 -0.461538  0.461538  0.076923     24.000000
 -0.384615  0.461538  0.076923     24.000000
  0.461538  0.307692  0.153846     24.000000
 -0.461538  0.307692  0.153846     48.000000
 -0.384615  0.307692  0.153846     48.000000
 -0.461538  0.384615  0.153846     24.000000
 -0.384615  0.384615  0.153846     48.000000
 -0.307692  0.384615  0.153846     48.000000
 -0.230769  0.384615  0.153846     24.000000
 -0.384615  0.461538  0.153846     24.000000
 -0.307692  0.461538  0.153846     24.000000
 -0.307692  0.461538  0.230769     24.000000

 Following cartesian coordinates:
            Coordinates               Weight
  0.000000  0.000000  0.000000      1.000000
 -0.011230  0.011230  0.011230      8.000000
 -0.022460  0.022460  0.022460      8.000000
 -0.033690  0.033690  0.033690      8.000000
 -0.044920  0.044920  0.044920      8.000000
 -0.056151  0.056151  0.056151      8.000000
 -0.067381  0.067381  0.067381      8.000000
 -0.000000 -0.000000  0.022460      6.000000
 -0.011230  0.011230  0.033690     24.000000
 -0.022460  0.022460  0.044920     24.000000
 -0.033690  0.033690  0.056151     24.000000
 -0.044920  0.044920  0.067381     24.000000
 -0.056151  0.056151  0.078611     24.000000
  0.078611 -0.078611 -0.056151     24.000000
  0.067381 -0.067381 -0.044920     24.000000
  0.056151 -0.056151 -0.033690     24.000000
  0.044920 -0.044920 -0.022460     24.000000
  0.033690 -0.033690 -0.011230     24.000000
  0.022460 -0.022460 -0.000000     12.000000
 -0.000000 -0.000000  0.044920      6.000000
 -0.011230  0.011230  0.056151     24.000000
 -0.022460  0.022460  0.067381     24.000000
 -0.033690  0.033690  0.078611     24.000000
 -0.044920  0.044920  0.089841     24.000000
  0.089841 -0.089841 -0.044920     24.000000
  0.078611 -0.078611 -0.033690     24.000000
  0.067381 -0.067381 -0.022460     24.000000
  0.056151 -0.056151 -0.011230     24.000000
  0.044920 -0.044920 -0.000000     12.000000
 -0.000000  0.000000  0.067381      6.000000
 -0.011230  0.011230  0.078611     24.000000
 -0.022460  0.022460  0.089841     24.000000
 -0.033690  0.033690  0.101071     24.000000
  0.101071 -0.101071 -0.033690     24.000000
  0.089841 -0.089841 -0.022460     24.000000
  0.078611 -0.078611 -0.011230     24.000000
  0.067381 -0.067381 -0.000000     12.000000
 -0.000000 -0.000000  0.089841      6.000000
 -0.011230  0.011230  0.101071     24.000000
 -0.022460  0.022460  0.112301     24.000000
  0.112301 -0.112301 -0.022460     24.000000
  0.101071 -0.101071 -0.011230     24.000000
  0.089841 -0.089841 -0.000000     12.000000
 -0.000000 -0.000000  0.112301      6.000000
 -0.011230  0.011230  0.123531     24.000000
  0.123531 -0.123531 -0.011230     24.000000
  0.112301 -0.112301  0.000000     12.000000
  0.000000 -0.000000  0.134761      6.000000
  0.134761 -0.134761 -0.000000     12.000000
 -0.000000  0.022460  0.044920     24.000000
 -0.011230  0.033690  0.056151     48.000000
 -0.022460  0.044920  0.067381     48.000000
 -0.033690  0.056151  0.078611     48.000000
  0.101071 -0.078611 -0.056151     48.000000
  0.000000  0.022460  0.067381     24.000000
 -0.011230  0.033690  0.078611     48.000000
 -0.022460  0.044920  0.089841     48.000000
  0.112301 -0.089841 -0.044920     48.000000
  0.101071 -0.078611 -0.033690     48.000000
  0.089841 -0.067381 -0.022460     48.000000
  0.078611 -0.056151 -0.011230     48.000000
  0.067381 -0.044920 -0.000000     24.000000
  0.000000  0.022460  0.089841     24.000000
 -0.011230  0.033690  0.101071     48.000000
  0.123531 -0.101071 -0.033690     48.000000
  0.112301 -0.089841 -0.022460     48.000000
  0.101071 -0.078611 -0.011230     48.000000
  0.089841 -0.067381 -0.000000     24.000000
  0.000000  0.022460  0.112301     24.000000
  0.134761 -0.112301 -0.022460     48.000000
  0.123531 -0.101071 -0.011230     48.000000
  0.112301 -0.089841 -0.000000     24.000000
  0.145991 -0.123531 -0.011230     24.000000
  0.134761 -0.112301 -0.000000     24.000000
 -0.000000  0.044920  0.089841     24.000000
  0.134761 -0.089841 -0.044920     48.000000
  0.123531 -0.078611 -0.033690     48.000000
  0.145991 -0.101071 -0.033690     24.000000
  0.134761 -0.089841 -0.022460     48.000000
  0.123531 -0.078611 -0.011230     48.000000
  0.112301 -0.067381 -0.000000     24.000000
  0.145991 -0.101071 -0.011230     24.000000
  0.134761 -0.089841 -0.000000     24.000000
  0.145991 -0.078611 -0.011230     24.000000



--------------------------------------------------------------------------------------------------------




 Dimension of arrays:
   k-points           NKPTS =     84   k-points in BZ     NKDIM =     84   number of bands    NBANDS=     24
   number of dos      NEDOS =    301   number of ions     NIONS =      3
   non local maximal  LDIM  =      8   non local SUM 2l+1 LMDIM =     32
   total plane-waves  NPLWV =  64000
   max r-space proj   IRMAX =      1   max aug-charges    IRDMAX= 482603
   dimension x,y,z NGX =    40 NGY =   40 NGZ =   40
   dimension x,y,z NGXF=    80 NGYF=   80 NGZF=   80
   support grid    NGXF=   160 NGYF=  160 NGZF=  160
   ions per type =               1   1   1
   NGX,Y,Z   is equivalent  to a cutoff of  14.79, 14.79, 14.79 a.u.
   NGXF,Y,Z  is equivalent  to a cutoff of  29.58, 29.58, 29.58 a.u.

 SYSTEM =  unknown system
 POSCAR =  Th1 Bi1 Pt1

 Startparameter for this run:
   NWRITE =      2    write-flag & timer
   PREC   = acc       normal or accurate (medium, high low for compatibility)
   ISTART =      0    job   : 0-new  1-cont  2-samecut
   ICHARG =      2    charge: 1-file 2-atom 10-const
   ISPIN  =      1    spin polarized calculation?
   LNONCOLLINEAR =      F non collinear calculations
   LSORBIT =      F    spin-orbit coupling
   INIWAV =      1    electr: 0-lowe 1-rand  2-diag
   LASPH  =      F    aspherical Exc in radial PAW
   METAGGA=      F    non-selfconsistent MetaGGA calc.

 Electronic Relaxation 1
   ENCUT  =  700.0 eV  51.45 Ry    7.17 a.u.   9.70  9.70  9.70*2*pi/ulx,y,z
   ENINI  =  700.0     initial cutoff
   ENAUG  =  535.4 eV  augmentation charge cutoff
   NELM   =     60;   NELMIN=  5; NELMDL= -5     # of ELM steps
   EDIFF  = 0.1E-06   stopping-criterion for ELM
   LREAL  =      F    real-space projection
   NLSPLINE    = F    spline interpolate recip. space projectors
   LCOMPAT=      F    compatible to vasp.4.4
   GGA_COMPAT  = T    GGA compatible to vasp.4.4-vasp.4.6
   LMAXPAW     = -100 max onsite density
   LMAXMIX     =    2 max onsite mixed and CHGCAR
   VOSKOWN=      0    Vosko Wilk Nusair interpolation
   ROPT   =    0.00000   0.00000   0.00000
 Ionic relaxation
   EDIFFG = 0.1E-05   stopping-criterion for IOM
   NSW    =      0    number of steps for IOM
   NBLOCK =      1;   KBLOCK =      1    inner block; outer block
   IBRION =     -1    ionic relax: 0-MD 1-quasi-New 2-CG
   NFREE  =      0    steps in history (QN), initial steepest desc. (CG)
   ISIF   =      3    stress and relaxation
   IWAVPR =     10    prediction:  0-non 1-charg 2-wave 3-comb
   ISYM   =      2    0-nonsym 1-usesym 2-fastsym
   LCORR  =      T    Harris-Foulkes like correction to forces

   POTIM  = 0.5000    time-step for ionic-motion
   TEIN   =    0.0    initial temperature
   TEBEG  =    0.0;   TEEND  =   0.0 temperature during run
   SMASS  =  -3.00    Nose mass-parameter (am)
   estimated Nose-frequenzy (Omega)   =  0.10E-29 period in steps = 0.13E+47 mass=  -0.462E-27a.u.
   SCALEE = 1.0000    scale energy and forces
   NPACO  =    256;   APACO  = 16.0  distance and # of slots for P.C.
   PSTRESS=    0.0 pullay stress

  Mass of Ions in am
   POMASS = 232.04208.98195.08
  Ionic Valenz
   ZVAL   =  12.00 15.00 10.00
  Atomic Wigner-Seitz radii
   RWIGS  =  -1.00 -1.00 -1.00
  virtual crystal weights
   VCA    =   1.00  1.00  1.00
   NELECT =      37.0000    total number of electrons
   NUPDOWN=      -1.0000    fix difference up-down

 DOS related values:
   EMIN   =  10.00;   EMAX   =-10.00  energy-range for DOS
   EFERMI =   0.00
   ISMEAR =     0;   SIGMA  =   0.01  broadening in eV -4-tet -1-fermi 0-gaus

 Electronic relaxation 2 (details)
   IALGO  =     38    algorithm
   LDIAG  =      T    sub-space diagonalisation (order eigenvalues)
   LSUBROT=      F    optimize rotation matrix (better conditioning)
   TURBO    =      0    0=normal 1=particle mesh
   IRESTART =      0    0=no restart 2=restart with 2 vectors
   NREBOOT  =      0    no. of reboots
   NMIN     =      0    reboot dimension
   EREF     =   0.00    reference energy to select bands
   IMIX   =      4    mixing-type and parameters
     AMIX     =   0.40;   BMIX     =  1.00
     AMIX_MAG =   1.60;   BMIX_MAG =  1.00
     AMIN     =   0.10
     WC   =   100.;   INIMIX=   1;  MIXPRE=   1;  MAXMIX= -45

 Intra band minimization:
   WEIMIN = 0.0000     energy-eigenvalue tresh-hold
   EBREAK =  0.10E-08  absolut break condition
   DEPER  =   0.30     relativ break condition

   TIME   =   0.40     timestep for ELM

  volume/ion in A,a.u.               =      21.43       144.59
  Fermi-wavevector in a.u.,A,eV,Ry     =   1.361840  2.573504 25.233472  1.854608
  Thomas-Fermi vector in A             =   2.488381

 Write flags
   LWAVE        =      F    write WAVECAR
   LDOWNSAMPLE  =      F    k-point downsampling of WAVECAR
   LCHARG       =      F    write CHGCAR
   LVTOT        =      F    write LOCPOT, total local potential
   LVHAR        =      F    write LOCPOT, Hartree potential only
   LELF         =      F    write electronic localiz. function (ELF)
   LORBIT       =      0    0 simple, 1 ext, 2 COOP (PROOUT), +10 PAW based schemes


 Dipole corrections
   LMONO  =      F    monopole corrections only (constant potential shift)
   LDIPOL =      F    correct potential (dipole corrections)
   IDIPOL =      0    1-x, 2-y, 3-z, 4-all directions
   EPSILON=  1.0000000 bulk dielectric constant

 Exchange correlation treatment:
   GGA     =    PS    GGA type
   LEXCH   =    14    internal setting for exchange type
   VOSKOWN=      0    Vosko Wilk Nusair interpolation
   LHFCALC =     F    Hartree Fock is set to
   LHFONE  =     F    Hartree Fock one center treatment
   AEXX    =    0.0000 exact exchange contribution

 Linear response parameters
   LEPSILON=     F    determine dielectric tensor
   LRPA    =     F    only Hartree local field effects (RPA)
   LNABLA  =     F    use nabla operator in PAW spheres
   LVEL    =     F    velocity operator in full k-point grid
   LINTERFAST=   F  fast interpolation
   KINTER  =     0    interpolate to denser k-point grid
   CSHIFT  =0.1000    complex shift for real part using Kramers Kronig
   OMEGAMAX=  -1.0    maximum frequency
   DEG_THRESHOLD= 0.2000000E-02 threshold for treating states as degnerate
   RTIME   =   -0.100 relaxation time in fs
  (WPLASMAI=    0.000 imaginary part of plasma frequency in eV, 0.658/RTIME)
   DFIELD  = 0.0000000 0.0000000 0.0000000 field for delta impulse in time

 Orbital magnetization related:
   ORBITALMAG=     F  switch on orbital magnetization
   LCHIMAG   =     F  perturbation theory with respect to B field
   DQ        =  0.001000  dq finite difference perturbation B field
   LLRAUG    =     F  two centre corrections for induced B field



--------------------------------------------------------------------------------------------------------


 Static calculation
 charge density and potential will be updated during run
 non-spin polarized calculation
 Variant of blocked Davidson
 Davidson routine will perform the subspace rotation
 perform sub-space diagonalisation
    after iterative eigenvector-optimisation
 modified Broyden-mixing scheme, WC =      100.0
 initial mixing is a Kerker type mixing with AMIX =  0.4000 and BMIX =      1.0000
 Hartree-type preconditioning will be used
 using additional bands            5
 reciprocal scheme for non local part
 use partial core corrections
 calculate Harris-corrections to forces
   (improved forces if not selfconsistent)
 use gradient corrections
 use of overlap-Matrix (Vanderbilt PP)
 Gauss-broadening in eV      SIGMA  =   0.01


--------------------------------------------------------------------------------------------------------


  energy-cutoff  :      700.00
  volume of cell :       64.28
      direct lattice vectors                 reciprocal lattice vectors
     0.000000000  3.179357458  3.179357458    -0.157264481  0.157264481  0.157264481
     3.179357458  0.000000000  3.179357458     0.157264481 -0.157264481  0.157264481
     3.179357458  3.179357458  0.000000000     0.157264481  0.157264481 -0.157264481

  length of vectors
     4.496290437  4.496290437  4.496290437     0.272390071  0.272390071  0.272390071



 k-points in units of 2pi/SCALE and weight: KPOINTS
   0.00000000  0.00000000  0.00000000       0.000
  -0.01123011  0.01123011  0.01123011       0.004
  -0.02246022  0.02246022  0.02246022       0.004
  -0.03369033  0.03369033  0.03369033       0.004
  -0.04492043  0.04492043  0.04492043       0.004
  -0.05615054  0.05615054  0.05615054       0.004
  -0.06738065  0.06738065  0.06738065       0.004
  -0.00000000 -0.00000000  0.02246022       0.003
  -0.01123011  0.01123011  0.03369033       0.011
  -0.02246022  0.02246022  0.04492043       0.011
  -0.03369033  0.03369033  0.05615054       0.011
  -0.04492043  0.04492043  0.06738065       0.011
  -0.05615054  0.05615054  0.07861076       0.011
   0.07861076 -0.07861076 -0.05615054       0.011
   0.06738065 -0.06738065 -0.04492043       0.011
   0.05615054 -0.05615054 -0.03369033       0.011
   0.04492043 -0.04492043 -0.02246022       0.011
   0.03369033 -0.03369033 -0.01123011       0.011
   0.02246022 -0.02246022 -0.00000000       0.005
  -0.00000000 -0.00000000  0.04492043       0.003
  -0.01123011  0.01123011  0.05615054       0.011
  -0.02246022  0.02246022  0.06738065       0.011
  -0.03369033  0.03369033  0.07861076       0.011
  -0.04492043  0.04492043  0.08984087       0.011
   0.08984087 -0.08984087 -0.04492043       0.011
   0.07861076 -0.07861076 -0.03369033       0.011
   0.06738065 -0.06738065 -0.02246022       0.011
   0.05615054 -0.05615054 -0.01123011       0.011
   0.04492043 -0.04492043 -0.00000000       0.005
  -0.00000000  0.00000000  0.06738065       0.003
  -0.01123011  0.01123011  0.07861076       0.011
  -0.02246022  0.02246022  0.08984087       0.011
  -0.03369033  0.03369033  0.10107098       0.011
   0.10107098 -0.10107098 -0.03369033       0.011
   0.08984087 -0.08984087 -0.02246022       0.011
   0.07861076 -0.07861076 -0.01123011       0.011
   0.06738065 -0.06738065 -0.00000000       0.005
  -0.00000000 -0.00000000  0.08984087       0.003
  -0.01123011  0.01123011  0.10107098       0.011
  -0.02246022  0.02246022  0.11230109       0.011
   0.11230109 -0.11230109 -0.02246022       0.011
   0.10107098 -0.10107098 -0.01123011       0.011
   0.08984087 -0.08984087 -0.00000000       0.005
  -0.00000000 -0.00000000  0.11230109       0.003
  -0.01123011  0.01123011  0.12353119       0.011
   0.12353119 -0.12353119 -0.01123011       0.011
   0.11230109 -0.11230109  0.00000000       0.005
   0.00000000 -0.00000000  0.13476130       0.003
   0.13476130 -0.13476130 -0.00000000       0.005
  -0.00000000  0.02246022  0.04492043       0.011
  -0.01123011  0.03369033  0.05615054       0.022
  -0.02246022  0.04492043  0.06738065       0.022
  -0.03369033  0.05615054  0.07861076       0.022
   0.10107098 -0.07861076 -0.05615054       0.022
   0.00000000  0.02246022  0.06738065       0.011
  -0.01123011  0.03369033  0.07861076       0.022
  -0.02246022  0.04492043  0.08984087       0.022
   0.11230109 -0.08984087 -0.04492043       0.022
   0.10107098 -0.07861076 -0.03369033       0.022
   0.08984087 -0.06738065 -0.02246022       0.022
   0.07861076 -0.05615054 -0.01123011       0.022
   0.06738065 -0.04492043 -0.00000000       0.011
   0.00000000  0.02246022  0.08984087       0.011
  -0.01123011  0.03369033  0.10107098       0.022
   0.12353119 -0.10107098 -0.03369033       0.022
   0.11230109 -0.08984087 -0.02246022       0.022
   0.10107098 -0.07861076 -0.01123011       0.022
   0.08984087 -0.06738065 -0.00000000       0.011
   0.00000000  0.02246022  0.11230109       0.011
   0.13476130 -0.11230109 -0.02246022       0.022
   0.12353119 -0.10107098 -0.01123011       0.022
   0.11230109 -0.08984087 -0.00000000       0.011
   0.14599141 -0.12353119 -0.01123011       0.011
   0.13476130 -0.11230109 -0.00000000       0.011
  -0.00000000  0.04492043  0.08984087       0.011
   0.13476130 -0.08984087 -0.04492043       0.022
   0.12353119 -0.07861076 -0.03369033       0.022
   0.14599141 -0.10107098 -0.03369033       0.011
   0.13476130 -0.08984087 -0.02246022       0.022
   0.12353119 -0.07861076 -0.01123011       0.022
   0.11230109 -0.06738065 -0.00000000       0.011
   0.14599141 -0.10107098 -0.01123011       0.011
   0.13476130 -0.08984087 -0.00000000       0.011
   0.14599141 -0.07861076 -0.01123011       0.011

 k-points in reciprocal lattice and weights: KPOINTS
   0.00000000  0.00000000  0.00000000       0.000
   0.07692308  0.00000000 -0.00000000       0.004
   0.15384615  0.00000000 -0.00000000       0.004
   0.23076923  0.00000000 -0.00000000       0.004
   0.30769231  0.00000000 -0.00000000       0.004
   0.38461538  0.00000000 -0.00000000       0.004
   0.46153846 -0.00000000  0.00000000       0.004
   0.07692308  0.07692308 -0.00000000       0.003
   0.15384615  0.07692308 -0.00000000       0.011
   0.23076923  0.07692308 -0.00000000       0.011
   0.30769231  0.07692308 -0.00000000       0.011
   0.38461538  0.07692308 -0.00000000       0.011
   0.46153846  0.07692308 -0.00000000       0.011
  -0.46153846  0.07692308 -0.00000000       0.011
  -0.38461538  0.07692308  0.00000000       0.011
  -0.30769231  0.07692308  0.00000000       0.011
  -0.23076923  0.07692308  0.00000000       0.011
  -0.15384615  0.07692308  0.00000000       0.011
  -0.07692308  0.07692308  0.00000000       0.005
   0.15384615  0.15384615 -0.00000000       0.003
   0.23076923  0.15384615 -0.00000000       0.011
   0.30769231  0.15384615  0.00000000       0.011
   0.38461538  0.15384615 -0.00000000       0.011
   0.46153846  0.15384615 -0.00000000       0.011
  -0.46153846  0.15384615  0.00000000       0.011
  -0.38461538  0.15384615  0.00000000       0.011
  -0.30769231  0.15384615  0.00000000       0.011
  -0.23076923  0.15384615  0.00000000       0.011
  -0.15384615  0.15384615  0.00000000       0.005
   0.23076923  0.23076923 -0.00000000       0.003
   0.30769231  0.23076923 -0.00000000       0.011
   0.38461538  0.23076923 -0.00000000       0.011
   0.46153846  0.23076923 -0.00000000       0.011
  -0.46153846  0.23076923  0.00000000       0.011
  -0.38461538  0.23076923 -0.00000000       0.011
  -0.30769231  0.23076923 -0.00000000       0.011
  -0.23076923  0.23076923  0.00000000       0.005
   0.30769231  0.30769231 -0.00000000       0.003
   0.38461538  0.30769231 -0.00000000       0.011
   0.46153846  0.30769231 -0.00000000       0.011
  -0.46153846  0.30769231 -0.00000000       0.011
  -0.38461538  0.30769231  0.00000000       0.011
  -0.30769231  0.30769231  0.00000000       0.005
   0.38461538  0.38461538 -0.00000000       0.003
   0.46153846  0.38461538 -0.00000000       0.011
  -0.46153846  0.38461538  0.00000000       0.011
  -0.38461538  0.38461538  0.00000000       0.005
   0.46153846  0.46153846 -0.00000000       0.003
  -0.46153846  0.46153846  0.00000000       0.005
   0.23076923  0.15384615  0.07692308       0.011
   0.30769231  0.15384615  0.07692308       0.022
   0.38461538  0.15384615  0.07692308       0.022
   0.46153846  0.15384615  0.07692308       0.022
  -0.46153846  0.15384615  0.07692308       0.022
   0.30769231  0.23076923  0.07692308       0.011
   0.38461538  0.23076923  0.07692308       0.022
   0.46153846  0.23076923  0.07692308       0.022
  -0.46153846  0.23076923  0.07692308       0.022
  -0.38461538  0.23076923  0.07692308       0.022
  -0.30769231  0.23076923  0.07692308       0.022
  -0.23076923  0.23076923  0.07692308       0.022
  -0.15384615  0.23076923  0.07692308       0.011
   0.38461538  0.30769231  0.07692308       0.011
   0.46153846  0.30769231  0.07692308       0.022
  -0.46153846  0.30769231  0.07692308       0.022
  -0.38461538  0.30769231  0.07692308       0.022
  -0.30769231  0.30769231  0.07692308       0.022
  -0.23076923  0.30769231  0.07692308       0.011
   0.46153846  0.38461538  0.07692308       0.011
  -0.46153846  0.38461538  0.07692308       0.022
  -0.38461538  0.38461538  0.07692308       0.022
  -0.30769231  0.38461538  0.07692308       0.011
  -0.46153846  0.46153846  0.07692308       0.011
  -0.38461538  0.46153846  0.07692308       0.011
   0.46153846  0.30769231  0.15384615       0.011
  -0.46153846  0.30769231  0.15384615       0.022
  -0.38461538  0.30769231  0.15384615       0.022
  -0.46153846  0.38461538  0.15384615       0.011
  -0.38461538  0.38461538  0.15384615       0.022
  -0.30769231  0.38461538  0.15384615       0.022
  -0.23076923  0.38461538  0.15384615       0.011
  -0.38461538  0.46153846  0.15384615       0.011
  -0.30769231  0.46153846  0.15384615       0.011
  -0.30769231  0.46153846  0.23076923       0.011

 position of ions in fractional coordinates (direct lattice)
   0.25000000  0.25000000  0.25000000
   0.75000000  0.75000000  0.75000000
   0.00000000  0.00000000  0.00000000

 position of ions in cartesian coordinates  (Angst):
   1.58967873  1.58967873  1.58967873
   4.76903619  4.76903619  4.76903619
   0.00000000  0.00000000  0.00000000



--------------------------------------------------------------------------------------------------------


 k-point  1 :   0.0000 0.0000 0.0000  plane waves:    2733
 k-point  2 :   0.0769 0.0000-0.0000  plane waves:    2718
 k-point  3 :   0.1538 0.0000-0.0000  plane waves:    2704
 k-point  4 :   0.2308 0.0000-0.0000  plane waves:    2701
 k-point  5 :   0.3077 0.0000-0.0000  plane waves:    2695
 k-point  6 :   0.3846 0.0000-0.0000  plane waves:    2713
 k-point  7 :   0.4615-0.0000 0.0000  plane waves:    2719
 k-point  8 :   0.0769 0.0769-0.0000  plane waves:    2717
 k-point  9 :   0.1538 0.0769-0.0000  plane waves:    2707
 k-point 10 :   0.2308 0.0769-0.0000  plane waves:    2706
 k-point 11 :   0.3077 0.0769-0.0000  plane waves:    2709
 k-point 12 :   0.3846 0.0769-0.0000  plane waves:    2709
 k-point 13 :   0.4615 0.0769-0.0000  plane waves:    2703
 k-point 14 :  -0.4615 0.0769-0.0000  plane waves:    2712
 k-point 15 :  -0.3846 0.0769 0.0000  plane waves:    2705
 k-point 16 :  -0.3077 0.0769 0.0000  plane waves:    2704
 k-point 17 :  -0.2308 0.0769 0.0000  plane waves:    2704
 k-point 18 :  -0.1538 0.0769 0.0000  plane waves:    2718
 k-point 19 :  -0.0769 0.0769 0.0000  plane waves:    2707
 k-point 20 :   0.1538 0.1538-0.0000  plane waves:    2714
 k-point 21 :   0.2308 0.1538-0.0000  plane waves:    2702
 k-point 22 :   0.3077 0.1538 0.0000  plane waves:    2705
 k-point 23 :   0.3846 0.1538-0.0000  plane waves:    2711
 k-point 24 :   0.4615 0.1538-0.0000  plane waves:    2707
 k-point 25 :  -0.4615 0.1538 0.0000  plane waves:    2701
 k-point 26 :  -0.3846 0.1538 0.0000  plane waves:    2703
 k-point 27 :  -0.3077 0.1538 0.0000  plane waves:    2703
 k-point 28 :  -0.2308 0.1538 0.0000  plane waves:    2698
 k-point 29 :  -0.1538 0.1538 0.0000  plane waves:    2712
 k-point 30 :   0.2308 0.2308-0.0000  plane waves:    2698
 k-point 31 :   0.3077 0.2308-0.0000  plane waves:    2700
 k-point 32 :   0.3846 0.2308-0.0000  plane waves:    2712
 k-point 33 :   0.4615 0.2308-0.0000  plane waves:    2698
 k-point 34 :  -0.4615 0.2308 0.0000  plane waves:    2702
 k-point 35 :  -0.3846 0.2308-0.0000  plane waves:    2703
 k-point 36 :  -0.3077 0.2308-0.0000  plane waves:    2702
 k-point 37 :  -0.2308 0.2308 0.0000  plane waves:    2710
 k-point 38 :   0.3077 0.3077-0.0000  plane waves:    2714
 k-point 39 :   0.3846 0.3077-0.0000  plane waves:    2702
 k-point 40 :   0.4615 0.3077-0.0000  plane waves:    2708
 k-point 41 :  -0.4615 0.3077-0.0000  plane waves:    2695
 k-point 42 :  -0.3846 0.3077 0.0000  plane waves:    2696
 k-point 43 :  -0.3077 0.3077 0.0000  plane waves:    2704
 k-point 44 :   0.3846 0.3846-0.0000  plane waves:    2710
 k-point 45 :   0.4615 0.3846-0.0000  plane waves:    2711
 k-point 46 :  -0.4615 0.3846 0.0000  plane waves:    2697
 k-point 47 :  -0.3846 0.3846 0.0000  plane waves:    2694
 k-point 48 :   0.4615 0.4615-0.0000  plane waves:    2714
 k-point 49 :  -0.4615 0.4615 0.0000  plane waves:    2722
 k-point 50 :   0.2308 0.1538 0.0769  plane waves:    2717
 k-point 51 :   0.3077 0.1538 0.0769  plane waves:    2701
 k-point 52 :   0.3846 0.1538 0.0769  plane waves:    2709
 k-point 53 :   0.4615 0.1538 0.0769  plane waves:    2705
 k-point 54 :  -0.4615 0.1538 0.0769  plane waves:    2705
 k-point 55 :   0.3077 0.2308 0.0769  plane waves:    2700
 k-point 56 :   0.3846 0.2308 0.0769  plane waves:    2712
 k-point 57 :   0.4615 0.2308 0.0769  plane waves:    2713
 k-point 58 :  -0.4615 0.2308 0.0769  plane waves:    2699
 k-point 59 :  -0.3846 0.2308 0.0769  plane waves:    2697
 k-point 60 :  -0.3077 0.2308 0.0769  plane waves:    2690
 k-point 61 :  -0.2308 0.2308 0.0769  plane waves:    2706
 k-point 62 :  -0.1538 0.2308 0.0769  plane waves:    2695
 k-point 63 :   0.3846 0.3077 0.0769  plane waves:    2708
 k-point 64 :   0.4615 0.3077 0.0769  plane waves:    2700
 k-point 65 :  -0.4615 0.3077 0.0769  plane waves:    2700
 k-point 66 :  -0.3846 0.3077 0.0769  plane waves:    2703
 k-point 67 :  -0.3077 0.3077 0.0769  plane waves:    2696
 k-point 68 :  -0.2308 0.3077 0.0769  plane waves:    2698
 k-point 69 :   0.4615 0.3846 0.0769  plane waves:    2699
 k-point 70 :  -0.4615 0.3846 0.0769  plane waves:    2698
 k-point 71 :  -0.3846 0.3846 0.0769  plane waves:    2691
 k-point 72 :  -0.3077 0.3846 0.0769  plane waves:    2692
 k-point 73 :  -0.4615 0.4615 0.0769  plane waves:    2708
 k-point 74 :  -0.3846 0.4615 0.0769  plane waves:    2699
 k-point 75 :   0.4615 0.3077 0.1538  plane waves:    2711
 k-point 76 :  -0.4615 0.3077 0.1538  plane waves:    2699
 k-point 77 :  -0.3846 0.3077 0.1538  plane waves:    2702
 k-point 78 :  -0.4615 0.3846 0.1538  plane waves:    2702
 k-point 79 :  -0.3846 0.3846 0.1538  plane waves:    2704
 k-point 80 :  -0.3077 0.3846 0.1538  plane waves:    2703
 k-point 81 :  -0.2308 0.3846 0.1538  plane waves:    2705
 k-point 82 :  -0.3846 0.4615 0.1538  plane waves:    2698
 k-point 83 :  -0.3077 0.4615 0.1538  plane waves:    2691
 k-point 84 :  -0.3077 0.4615 0.2308  plane waves:    2707

 maximum and minimum number of plane-waves per node :       689      661

 maximum number of plane-waves:      2733
 maximum index in each direction:
   IXMAX=   10   IYMAX=    9   IZMAX=    9
   IXMIN=  -10   IYMIN=  -10   IZMIN=   -9


 parallel 3D FFT for wavefunctions:
    minimum data exchange during FFTs selected (reduces bandwidth)
 parallel 3D FFT for charge:
    minimum data exchange during FFTs selected (reduces bandwidth)


 total amount of memory used by VASP MPI-rank0    88498. kBytes
=======================================================================

   base      :      30000. kBytes
   nonl-proj :      44675. kBytes
   fftplans  :       5204. kBytes
   grid      :       2732. kBytes
   one-center:         49. kBytes
   wavefun   :       5838. kBytes

     INWAV:  cpu time    0.0003: real time    0.0004
 Broyden mixing: mesh for mixing (old mesh)
   NGX = 19   NGY = 19   NGZ = 19
  (NGX  = 80   NGY  = 80   NGZ  = 80)
  gives a total of   6859 points

 initial charge density was supplied:
 charge density of overlapping atoms calculated
 number of electron      37.0000000 magnetization
 keeping initial charge density in first step


--------------------------------------------------------------------------------------------------------


 Maximum index for augmentation-charges        29427 (set IRDMAX)


--------------------------------------------------------------------------------------------------------


 First call to EWALD:  gamma=   0.442
 Maximum number of real-space cells 3x 3x 3
 Maximum number of reciprocal cells 3x 3x 3

    FEWALD:  cpu time    0.0053: real time    0.0060


--------------------------------------- Iteration      1(   1)  ---------------------------------------


    POTLOK:  cpu time    0.0512: real time    0.1688
    SETDIJ:  cpu time    0.1007: real time    0.1009
     EDDAV:  cpu time    1.3961: real time    1.4205
       DOS:  cpu time    0.0036: real time    0.0053
    --------------------------------------------
      LOOP:  cpu time    1.5519: real time    1.6961

 eigenvalue-minimisations  :  4032
 total energy-change (2. order) : 0.4558405E+03  (-0.2100474E+04)
 number of electron      37.0000000 magnetization
 augmentation part       37.0000000 magnetization

 Free energy of the ion-electron system (eV)
  ---------------------------------------------------
  alpha Z        PSCENC =       267.30962477
  Ewald energy   TEWEN  =     -3369.29095555
  -Hartree energ DENC   =      -658.81514705
  -exchange      EXHF   =         0.00000000
  -V(xc)+E(xc)   XCENC  =        71.01237523
  PAW double counting   =      3147.30828992    -3070.62761383
  entropy T*S    EENTRO =        -0.00008984
  eigenvalues    EBANDS =       394.27057764
  atomic energy  EATOM  =      3674.67342263
  Solvation  Ediel_sol  =         0.00000000
  ---------------------------------------------------
  free energy    TOTEN  =       455.84048391 eV

  energy without entropy =      455.84057376  energy(sigma->0) =      455.84052884


--------------------------------------------------------------------------------------------------------




--------------------------------------- Iteration      1(   2)  ---------------------------------------


     EDDAV:  cpu time    1.4460: real time    1.4651
       DOS:  cpu time    0.0031: real time    0.0034
    --------------------------------------------
      LOOP:  cpu time    1.4492: real time    1.4706

 eigenvalue-minimisations  :  4080
 total energy-change (2. order) :-0.4077051E+03  (-0.3981579E+03)
 number of electron      37.0000000 magnetization
 augmentation part       37.0000000 magnetization

 Free energy of the ion-electron system (eV)
  ---------------------------------------------------
  alpha Z        PSCENC =       267.30962477
  Ewald energy   TEWEN  =     -3369.29095555
  -Hartree energ DENC   =      -658.81514705
  -exchange      EXHF   =         0.00000000
  -V(xc)+E(xc)   XCENC  =        71.01237523
  PAW double counting   =      3147.30828992    -3070.62761383
  entropy T*S    EENTRO =        -0.00010087
  eigenvalues    EBANDS =       -13.43449953
  atomic energy  EATOM  =      3674.67342263
  Solvation  Ediel_sol  =         0.00000000
  ---------------------------------------------------
  free energy    TOTEN  =        48.13539572 eV

  energy without entropy =       48.13549659  energy(sigma->0) =       48.13544615


--------------------------------------------------------------------------------------------------------




--------------------------------------- Iteration      1(   3)  ---------------------------------------


     EDDAV:  cpu time    1.7861: real time    1.8080
       DOS:  cpu time    0.0028: real time    0.0036
    --------------------------------------------
      LOOP:  cpu time    1.7889: real time    1.8115

 eigenvalue-minimisations  :  5600
 total energy-change (2. order) :-0.6507468E+02  (-0.6424752E+02)
 number of electron      37.0000000 magnetization
 augmentation part       37.0000000 magnetization

 Free energy of the ion-electron system (eV)
  ---------------------------------------------------
  alpha Z        PSCENC =       267.30962477
  Ewald energy   TEWEN  =     -3369.29095555
  -Hartree energ DENC   =      -658.81514705
  -exchange      EXHF   =         0.00000000
  -V(xc)+E(xc)   XCENC  =        71.01237523
  PAW double counting   =      3147.30828992    -3070.62761383
  entropy T*S    EENTRO =        -0.00008920
  eigenvalues    EBANDS =       -78.50918652
  atomic energy  EATOM  =      3674.67342263
  Solvation  Ediel_sol  =         0.00000000
  ---------------------------------------------------
  free energy    TOTEN  =       -16.93927960 eV

  energy without entropy =      -16.93919040  energy(sigma->0) =      -16.93923500


--------------------------------------------------------------------------------------------------------




--------------------------------------- Iteration      1(   4)  ---------------------------------------


     EDDAV:  cpu time    2.1797: real time    2.2034
       DOS:  cpu time    0.0030: real time    0.0032
    --------------------------------------------
      LOOP:  cpu time    2.1826: real time    2.2060

 eigenvalue-minimisations  :  7128
 total energy-change (2. order) :-0.4119568E+01  (-0.4111081E+01)
 number of electron      37.0000000 magnetization
 augmentation part       37.0000000 magnetization

 Free energy of the ion-electron system (eV)
  ---------------------------------------------------
  alpha Z        PSCENC =       267.30962477
  Ewald energy   TEWEN  =     -3369.29095555
  -Hartree energ DENC   =      -658.81514705
  -exchange      EXHF   =         0.00000000
  -V(xc)+E(xc)   XCENC  =        71.01237523
  PAW double counting   =      3147.30828992    -3070.62761383
  entropy T*S    EENTRO =        -0.00047471
  eigenvalues    EBANDS =       -82.62836933
  atomic energy  EATOM  =      3674.67342263
  Solvation  Ediel_sol  =         0.00000000
  ---------------------------------------------------
  free energy    TOTEN  =       -21.05884792 eV

  energy without entropy =      -21.05837321  energy(sigma->0) =      -21.05861057


--------------------------------------------------------------------------------------------------------




--------------------------------------- Iteration      1(   5)  ---------------------------------------


     EDDAV:  cpu time    1.8284: real time    1.8476
       DOS:  cpu time    0.0029: real time    0.0031
    CHARGE:  cpu time    0.3248: real time    0.3256
    MIXING:  cpu time    0.0059: real time    0.0073
    --------------------------------------------
      LOOP:  cpu time    2.1621: real time    2.1829

 eigenvalue-minimisations  :  5728
 total energy-change (2. order) :-0.1049286E+00  (-0.1048947E+00)
 number of electron      37.0000000 magnetization
 augmentation part        5.9271413 magnetization

 Broyden mixing:
  rms(total) = 0.48431E+01    rms(broyden)= 0.48431E+01
  rms(prec ) = 0.50544E+01
  weight for this iteration     100.00

 Free energy of the ion-electron system (eV)
  ---------------------------------------------------
  alpha Z        PSCENC =       267.30962477
  Ewald energy   TEWEN  =     -3369.29095555
  -Hartree energ DENC   =      -658.81514705
  -exchange      EXHF   =         0.00000000
  -V(xc)+E(xc)   XCENC  =        71.01237523
  PAW double counting   =      3147.30828992    -3070.62761383
  entropy T*S    EENTRO =        -0.00045293
  eigenvalues    EBANDS =       -82.73331975
  atomic energy  EATOM  =      3674.67342263
  Solvation  Ediel_sol  =         0.00000000
  ---------------------------------------------------
  free energy    TOTEN  =       -21.16377656 eV

  energy without entropy =      -21.16332363  energy(sigma->0) =      -21.16355009


--------------------------------------------------------------------------------------------------------




--------------------------------------- Iteration      1(   6)  ---------------------------------------


    POTLOK:  cpu time    0.0331: real time    0.0675
    SETDIJ:  cpu time    0.1048: real time    0.1050
     EDDAV:  cpu time    1.7047: real time    1.7050
       DOS:  cpu time    0.0031: real time    0.0034
    CHARGE:  cpu time    0.2978: real time    0.2979
    MIXING:  cpu time    0.0041: real time    0.0044
    --------------------------------------------
      LOOP:  cpu time    2.1477: real time    2.1836

 eigenvalue-minimisations  :  5224
 total energy-change (2. order) : 0.7344290E+00  (-0.1283505E+00)
 number of electron      37.0000000 magnetization
 augmentation part        5.9982910 magnetization

 Broyden mixing:
  rms(total) = 0.28852E+01    rms(broyden)= 0.28852E+01
  rms(prec ) = 0.29602E+01
  weight for this iteration     100.00

 eigenvalues of (default mixing * dielectric matrix)
  average eigenvalue GAMMA=   2.4409
  2.4409

 Free energy of the ion-electron system (eV)
  ---------------------------------------------------
  alpha Z        PSCENC =       267.30962477
  Ewald energy   TEWEN  =     -3369.29095555
  -Hartree energ DENC   =      -642.50871812
  -exchange      EXHF   =         0.00000000
  -V(xc)+E(xc)   XCENC  =        70.55802087
  PAW double counting   =      3733.12390388    -3662.28825888
  entropy T*S    EENTRO =        -0.00018555
  eigenvalues    EBANDS =       -92.00620165
  atomic energy  EATOM  =      3674.67342263
  Solvation  Ediel_sol  =         0.00000000
  ---------------------------------------------------
  free energy    TOTEN  =       -20.42934760 eV

  energy without entropy =      -20.42916205  energy(sigma->0) =      -20.42925482


--------------------------------------------------------------------------------------------------------




--------------------------------------- Iteration      1(   7)  ---------------------------------------


    POTLOK:  cpu time    0.0321: real time    0.0603
    SETDIJ:  cpu time    0.0930: real time    0.0932
     EDDAV:  cpu time    1.8871: real time    1.8874
       DOS:  cpu time    0.0029: real time    0.0031
    CHARGE:  cpu time    0.2766: real time    0.2768
    MIXING:  cpu time    0.0050: real time    0.0052
    --------------------------------------------
      LOOP:  cpu time    2.2966: real time    2.3265

 eigenvalue-minimisations  :  5976
 total energy-change (2. order) : 0.1777846E+00  (-0.1389848E+00)
 number of electron      37.0000000 magnetization
 augmentation part        5.9490680 magnetization

 Broyden mixing:
  rms(total) = 0.51226E+00    rms(broyden)= 0.51226E+00
  rms(prec ) = 0.58737E+00
  weight for this iteration     100.00

 eigenvalues of (default mixing * dielectric matrix)
  average eigenvalue GAMMA=   2.0267
  1.1947  2.8586

 Free energy of the ion-electron system (eV)
  ---------------------------------------------------
  alpha Z        PSCENC =       267.30962477
  Ewald energy   TEWEN  =     -3369.29095555
  -Hartree energ DENC   =      -629.77801651
  -exchange      EXHF   =         0.00000000
  -V(xc)+E(xc)   XCENC  =        70.33895750
  PAW double counting   =      4607.96549468    -4544.20444901
  entropy T*S    EENTRO =        -0.00013517
  eigenvalues    EBANDS =       -97.26550636
  atomic energy  EATOM  =      3674.67342263
  Solvation  Ediel_sol  =         0.00000000
  ---------------------------------------------------
  free energy    TOTEN  =       -20.25156300 eV

  energy without entropy =      -20.25142783  energy(sigma->0) =      -20.25149541


--------------------------------------------------------------------------------------------------------




--------------------------------------- Iteration      1(   8)  ---------------------------------------


    POTLOK:  cpu time    0.0313: real time    0.0644
    SETDIJ:  cpu time    0.0922: real time    0.0928
     EDDAV:  cpu time    1.7830: real time    1.7833
       DOS:  cpu time    0.0030: real time    0.0032
    CHARGE:  cpu time    0.2749: real time    0.2763
    MIXING:  cpu time    0.0037: real time    0.0053
    --------------------------------------------
      LOOP:  cpu time    2.1882: real time    2.2253

 eigenvalue-minimisations  :  5616
 total energy-change (2. order) : 0.2131310E-01  (-0.2686729E-01)
 number of electron      37.0000000 magnetization
 augmentation part        5.9175526 magnetization

 Broyden mixing:
  rms(total) = 0.25217E+00    rms(broyden)= 0.25217E+00
  rms(prec ) = 0.29423E+00
  weight for this iteration     100.00

 eigenvalues of (default mixing * dielectric matrix)
  average eigenvalue GAMMA=   1.9176
  3.3207  1.6835  0.7486

 Free energy of the ion-electron system (eV)
  ---------------------------------------------------
  alpha Z        PSCENC =       267.30962477
  Ewald energy   TEWEN  =     -3369.29095555
  -Hartree energ DENC   =      -629.35074385
  -exchange      EXHF   =         0.00000000
  -V(xc)+E(xc)   XCENC  =        70.33560203
  PAW double counting   =      4685.64044598    -4622.27181615
  entropy T*S    EENTRO =        -0.00011897
  eigenvalues    EBANDS =       -97.27571079
  atomic energy  EATOM  =      3674.67342263
  Solvation  Ediel_sol  =         0.00000000
  ---------------------------------------------------
  free energy    TOTEN  =       -20.23024990 eV

  energy without entropy =      -20.23013093  energy(sigma->0) =      -20.23019041


--------------------------------------------------------------------------------------------------------




--------------------------------------- Iteration      1(   9)  ---------------------------------------


    POTLOK:  cpu time    0.0339: real time    0.0658
    SETDIJ:  cpu time    0.0948: real time    0.0949
     EDDAV:  cpu time    1.8292: real time    1.8295
       DOS:  cpu time    0.0030: real time    0.0033
    CHARGE:  cpu time    0.2758: real time    0.2759
    MIXING:  cpu time    0.0038: real time    0.0056
    --------------------------------------------
      LOOP:  cpu time    2.2404: real time    2.2745

 eigenvalue-minimisations  :  5840
 total energy-change (2. order) : 0.4578847E-02  (-0.7294948E-02)
 number of electron      37.0000000 magnetization
 augmentation part        5.9139628 magnetization

 Broyden mixing:
  rms(total) = 0.24258E+00    rms(broyden)= 0.24258E+00
  rms(prec ) = 0.24893E+00
  weight for this iteration     100.00

 eigenvalues of (default mixing * dielectric matrix)
  average eigenvalue GAMMA=   1.4811
  2.3630  1.3992  1.3992  0.7630

 Free energy of the ion-electron system (eV)
  ---------------------------------------------------
  alpha Z        PSCENC =       267.30962477
  Ewald energy   TEWEN  =     -3369.29095555
  -Hartree energ DENC   =      -631.33047817
  -exchange      EXHF   =         0.00000000
  -V(xc)+E(xc)   XCENC  =        70.35648347
  PAW double counting   =      4736.82765512    -4673.29571963
  entropy T*S    EENTRO =        -0.00014005
  eigenvalues    EBANDS =       -95.47556365
  atomic energy  EATOM  =      3674.67342263
  Solvation  Ediel_sol  =         0.00000000
  ---------------------------------------------------
  free energy    TOTEN  =       -20.22567105 eV

  energy without entropy =      -20.22553101  energy(sigma->0) =      -20.22560103


--------------------------------------------------------------------------------------------------------




--------------------------------------- Iteration      1(  10)  ---------------------------------------


    POTLOK:  cpu time    0.0342: real time    0.0627
    SETDIJ:  cpu time    0.0945: real time    0.0947
     EDDAV:  cpu time    1.8406: real time    1.8413
       DOS:  cpu time    0.0032: real time    0.0036
    CHARGE:  cpu time    0.2755: real time    0.2765
    MIXING:  cpu time    0.0054: real time    0.0055
    --------------------------------------------
      LOOP:  cpu time    2.2534: real time    2.2840

 eigenvalue-minimisations  :  5944
 total energy-change (2. order) : 0.2127674E-02  (-0.1246619E-02)
 number of electron      37.0000000 magnetization
 augmentation part        5.9169050 magnetization

 Broyden mixing:
  rms(total) = 0.65902E-01    rms(broyden)= 0.65902E-01
  rms(prec ) = 0.67897E-01
  weight for this iteration     100.00

 eigenvalues of (default mixing * dielectric matrix)
  average eigenvalue GAMMA=   1.4848
  2.0781  2.0781  1.6865  0.7906  0.7906

 Free energy of the ion-electron system (eV)
  ---------------------------------------------------
  alpha Z        PSCENC =       267.30962477
  Ewald energy   TEWEN  =     -3369.29095555
  -Hartree energ DENC   =      -631.42180072
  -exchange      EXHF   =         0.00000000
  -V(xc)+E(xc)   XCENC  =        70.34686304
  PAW double counting   =      4663.66677943    -4599.68557455
  entropy T*S    EENTRO =        -0.00012550
  eigenvalues    EBANDS =       -95.82177693
  atomic energy  EATOM  =      3674.67342263
  Solvation  Ediel_sol  =         0.00000000
  ---------------------------------------------------
  free energy    TOTEN  =       -20.22354338 eV

  energy without entropy =      -20.22341788  energy(sigma->0) =      -20.22348063


--------------------------------------------------------------------------------------------------------




--------------------------------------- Iteration      1(  11)  ---------------------------------------


    POTLOK:  cpu time    0.0549: real time    0.0752
    SETDIJ:  cpu time    0.0948: real time    0.0950
     EDDAV:  cpu time    1.7786: real time    1.7788
       DOS:  cpu time    0.0030: real time    0.0034
    CHARGE:  cpu time    0.2764: real time    0.2767
    MIXING:  cpu time    0.0050: real time    0.0051
    --------------------------------------------
      LOOP:  cpu time    2.2127: real time    2.2352

 eigenvalue-minimisations  :  5560
 total energy-change (2. order) :-0.2319187E-04  (-0.5175265E-04)
 number of electron      37.0000000 magnetization
 augmentation part        5.9175521 magnetization

 Broyden mixing:
  rms(total) = 0.44658E-01    rms(broyden)= 0.44658E-01
  rms(prec ) = 0.45854E-01
  weight for this iteration     100.00

 eigenvalues of (default mixing * dielectric matrix)
  average eigenvalue GAMMA=   1.4309
  2.5234  2.1870  1.3659  0.8839  0.8839  0.7411

 Free energy of the ion-electron system (eV)
  ---------------------------------------------------
  alpha Z        PSCENC =       267.30962477
  Ewald energy   TEWEN  =     -3369.29095555
  -Hartree energ DENC   =      -631.46887696
  -exchange      EXHF   =         0.00000000
  -V(xc)+E(xc)   XCENC  =        70.34046459
  PAW double counting   =      4674.07163821    -4610.05107722
  entropy T*S    EENTRO =        -0.00012442
  eigenvalues    EBANDS =       -95.80768263
  atomic energy  EATOM  =      3674.67342263
  Solvation  Ediel_sol  =         0.00000000
  ---------------------------------------------------
  free energy    TOTEN  =       -20.22356657 eV

  energy without entropy =      -20.22344215  energy(sigma->0) =      -20.22350436


--------------------------------------------------------------------------------------------------------




--------------------------------------- Iteration      1(  12)  ---------------------------------------


    POTLOK:  cpu time    0.0452: real time    0.0677
    SETDIJ:  cpu time    0.0947: real time    0.0948
     EDDAV:  cpu time    1.9573: real time    1.9576
       DOS:  cpu time    0.0027: real time    0.0028
    CHARGE:  cpu time    0.2768: real time    0.2769
    MIXING:  cpu time    0.0042: real time    0.0043
    --------------------------------------------
      LOOP:  cpu time    2.3810: real time    2.4040

 eigenvalue-minimisations  :  6360
 total energy-change (2. order) : 0.2317061E-04  (-0.1845549E-04)
 number of electron      37.0000000 magnetization
 augmentation part        5.9189165 magnetization

 Broyden mixing:
  rms(total) = 0.60980E-02    rms(broyden)= 0.60980E-02
  rms(prec ) = 0.63497E-02
  weight for this iteration     100.00

 eigenvalues of (default mixing * dielectric matrix)
  average eigenvalue GAMMA=   1.4380
  2.5775  2.0915  1.5103  1.1935  0.7531  0.9701  0.9701

 Free energy of the ion-electron system (eV)
  ---------------------------------------------------
  alpha Z        PSCENC =       267.30962477
  Ewald energy   TEWEN  =     -3369.29095555
  -Hartree energ DENC   =      -631.47350666
  -exchange      EXHF   =         0.00000000
  -V(xc)+E(xc)   XCENC  =        70.33773368
  PAW double counting   =      4682.67837149    -4618.64702899
  entropy T*S    EENTRO =        -0.00012270
  eigenvalues    EBANDS =       -95.81108207
  atomic energy  EATOM  =      3674.67342263
  Solvation  Ediel_sol  =         0.00000000
  ---------------------------------------------------
  free energy    TOTEN  =       -20.22354340 eV

  energy without entropy =      -20.22342070  energy(sigma->0) =      -20.22348205


--------------------------------------------------------------------------------------------------------




--------------------------------------- Iteration      1(  13)  ---------------------------------------


    POTLOK:  cpu time    0.0459: real time    0.0648
    SETDIJ:  cpu time    0.0956: real time    0.0957
     EDDAV:  cpu time    1.8551: real time    1.8553
       DOS:  cpu time    0.0028: real time    0.0032
    CHARGE:  cpu time    0.2756: real time    0.2758
    MIXING:  cpu time    0.0057: real time    0.0058
    --------------------------------------------
      LOOP:  cpu time    2.2806: real time    2.2997

 eigenvalue-minimisations  :  5888
 total energy-change (2. order) :-0.1850975E-05  (-0.1680527E-05)
 number of electron      37.0000000 magnetization
 augmentation part        5.9194061 magnetization

 Broyden mixing:
  rms(total) = 0.27751E-02    rms(broyden)= 0.27751E-02
  rms(prec ) = 0.28365E-02
  weight for this iteration     100.00

 eigenvalues of (default mixing * dielectric matrix)
  average eigenvalue GAMMA=   1.4733
  2.6038  2.0321  1.8502  1.6402  0.9770  0.7625  0.9604  0.9604

 Free energy of the ion-electron system (eV)
  ---------------------------------------------------
  alpha Z        PSCENC =       267.30962477
  Ewald energy   TEWEN  =     -3369.29095555
  -Hartree energ DENC   =      -631.46399974
  -exchange      EXHF   =         0.00000000
  -V(xc)+E(xc)   XCENC  =        70.33615446
  PAW double counting   =      4685.09893528    -4621.05103988
  entropy T*S    EENTRO =        -0.00012223
  eigenvalues    EBANDS =       -95.83556499
  atomic energy  EATOM  =      3674.67342263
  Solvation  Ediel_sol  =         0.00000000
  ---------------------------------------------------
  free energy    TOTEN  =       -20.22354525 eV

  energy without entropy =      -20.22342302  energy(sigma->0) =      -20.22348414


--------------------------------------------------------------------------------------------------------




--------------------------------------- Iteration      1(  14)  ---------------------------------------


    POTLOK:  cpu time    0.0428: real time    0.0624
    SETDIJ:  cpu time    0.0958: real time    0.0959
     EDDAV:  cpu time    1.7203: real time    1.7205
       DOS:  cpu time    0.0030: real time    0.0032
    CHARGE:  cpu time    0.2758: real time    0.2759
    MIXING:  cpu time    0.0056: real time    0.0057
    --------------------------------------------
      LOOP:  cpu time    2.1432: real time    2.1638

 eigenvalue-minimisations  :  5392
 total energy-change (2. order) : 0.1818607E-06  (-0.8698584E-07)
 number of electron      37.0000000 magnetization
 augmentation part        5.9194584 magnetization

 Broyden mixing:
  rms(total) = 0.17576E-02    rms(broyden)= 0.17576E-02
  rms(prec ) = 0.18212E-02
  weight for this iteration     100.00

 eigenvalues of (default mixing * dielectric matrix)
  average eigenvalue GAMMA=   1.4900
  2.5779  2.5779  2.1173  1.4477  0.9735  0.9735  1.1427  0.7719  0.8277

 Free energy of the ion-electron system (eV)
  ---------------------------------------------------
  alpha Z        PSCENC =       267.30962477
  Ewald energy   TEWEN  =     -3369.29095555
  -Hartree energ DENC   =      -631.46876605
  -exchange      EXHF   =         0.00000000
  -V(xc)+E(xc)   XCENC  =        70.33638983
  PAW double counting   =      4684.99011366    -4620.93872012
  entropy T*S    EENTRO =        -0.00012231
  eigenvalues    EBANDS =       -95.83453193
  atomic energy  EATOM  =      3674.67342263
  Solvation  Ediel_sol  =         0.00000000
  ---------------------------------------------------
  free energy    TOTEN  =       -20.22354507 eV

  energy without entropy =      -20.22342276  energy(sigma->0) =      -20.22348391


--------------------------------------------------------------------------------------------------------




--------------------------------------- Iteration      1(  15)  ---------------------------------------


    POTLOK:  cpu time    0.0480: real time    0.0701
    SETDIJ:  cpu time    0.0958: real time    0.0961
     EDDAV:  cpu time    1.8477: real time    1.8479
       DOS:  cpu time    0.0030: real time    0.0032
    CHARGE:  cpu time    0.2742: real time    0.2744
    MIXING:  cpu time    0.0061: real time    0.0061
    --------------------------------------------
      LOOP:  cpu time    2.2748: real time    2.2989

 eigenvalue-minimisations  :  5920
 total energy-change (2. order) : 0.2898396E-06  (-0.6585366E-07)
 number of electron      37.0000000 magnetization
 augmentation part        5.9194321 magnetization

 Broyden mixing:
  rms(total) = 0.12857E-03    rms(broyden)= 0.12833E-03
  rms(prec ) = 0.13559E-03
  weight for this iteration     100.00

 eigenvalues of (default mixing * dielectric matrix)
  average eigenvalue GAMMA=   1.4570
  2.4501  2.4501  2.2070  1.6521  0.9576  0.9576  0.7621  1.0728  1.0302  1.0302

 Free energy of the ion-electron system (eV)
  ---------------------------------------------------
  alpha Z        PSCENC =       267.30962477
  Ewald energy   TEWEN  =     -3369.29095555
  -Hartree energ DENC   =      -631.46984205
  -exchange      EXHF   =         0.00000000
  -V(xc)+E(xc)   XCENC  =        70.33653179
  PAW double counting   =      4684.88675615    -4620.83409189
  entropy T*S    EENTRO =        -0.00012240
  eigenvalues    EBANDS =       -95.83486824
  atomic energy  EATOM  =      3674.67342263
  Solvation  Ediel_sol  =         0.00000000
  ---------------------------------------------------
  free energy    TOTEN  =       -20.22354478 eV

  energy without entropy =      -20.22342238  energy(sigma->0) =      -20.22348358


--------------------------------------------------------------------------------------------------------




--------------------------------------- Iteration      1(  16)  ---------------------------------------


    POTLOK:  cpu time    0.0341: real time    0.0638
    SETDIJ:  cpu time    0.0944: real time    0.0946
     EDDAV:  cpu time    1.2805: real time    1.2807
       DOS:  cpu time    0.0029: real time    0.0034
    --------------------------------------------
      LOOP:  cpu time    1.4118: real time    1.4399

 eigenvalue-minimisations  :  3440
 total energy-change (2. order) : 0.1279477E-07  (-0.3850817E-08)
 number of electron      37.0000000 magnetization
 augmentation part        5.9194321 magnetization

 Free energy of the ion-electron system (eV)
  ---------------------------------------------------
  alpha Z        PSCENC =       267.30962477
  Ewald energy   TEWEN  =     -3369.29095555
  -Hartree energ DENC   =      -631.47035097
  -exchange      EXHF   =         0.00000000
  -V(xc)+E(xc)   XCENC  =        70.33656858
  PAW double counting   =      4684.84740308    -4620.79490882
  entropy T*S    EENTRO =        -0.00012240
  eigenvalues    EBANDS =       -95.83422609
  atomic energy  EATOM  =      3674.67342263
  Solvation  Ediel_sol  =         0.00000000
  ---------------------------------------------------
  free energy    TOTEN  =       -20.22354477 eV

  energy without entropy =      -20.22342236  energy(sigma->0) =      -20.22348356


--------------------------------------------------------------------------------------------------------




 average (electrostatic) potential at core
  the test charge radii are     1.1985  1.0856  1.2059
  (the norm of the test charge is              1.0000)
       1 -53.2759       2 -99.7448       3 -63.5612



 E-fermi :  11.4370     XC(G=0): -12.1776     alpha+bet :-17.5031


 k-point     1 :       0.0000    0.0000    0.0000
  band No.  band energies     occupation
      1     -28.0170      2.00000
      2     -12.0163      2.00000
      3     -12.0163      2.00000
      4     -11.9626      2.00000
      5     -11.9626      2.00000
      6     -11.9626      2.00000
      7      -6.4259      2.00000
      8      -6.4259      2.00000
      9      -6.4259      2.00000
     10      -2.1182      2.00000
     11       6.1177      2.00000
     12       6.1177      2.00000
     13       6.2274      2.00000
     14       6.2274      2.00000
     15       6.2274      2.00000
     16       9.9833      2.00000
     17       9.9833      2.00000
     18       9.9833      2.00000
     19      10.5429      2.00000
     20      11.5868      0.00000
     21      11.5868      0.00000
     22      11.5868      0.00000
     23      12.6872      0.00000
     24      14.0364      0.00000

 k-point     2 :       0.0769    0.0000   -0.0000
  band No.  band energies     occupation
      1     -28.0157      2.00000
      2     -12.0185      2.00000
      3     -12.0185      2.00000
      4     -11.9631      2.00000
      5     -11.9622      2.00000
      6     -11.9622      2.00000
      7      -6.4803      2.00000
      8      -6.4177      2.00000
      9      -6.4177      2.00000
     10      -1.9916      2.00000
     11       5.8646      2.00000
     12       5.8646      2.00000
     13       6.0865      2.00000
     14       6.4621      2.00000
     15       6.4621      2.00000
     16       9.2584      2.00000
     17       9.8892      2.00000
     18       9.8892      2.00000
     19      10.9597      2.00000
     20      11.7074      0.00000
     21      11.7074      0.00000
     22      11.8113      0.00000
     23      13.0380      0.00000
     24      14.0417      0.00000

 k-point     3 :       0.1538    0.0000   -0.0000
  band No.  band energies     occupation
      1     -28.0121      2.00000
      2     -12.0246      2.00000
      3     -12.0246      2.00000
      4     -11.9648      2.00000
      5     -11.9612      2.00000
      6     -11.9612      2.00000
      7      -6.6162      2.00000
      8      -6.3950      2.00000
      9      -6.3950      2.00000
     10      -1.6530      2.00000
     11       5.6000      2.00000
     12       5.6000      2.00000
     13       5.7137      2.00000
     14       6.6531      2.00000
     15       6.6531      2.00000
     16       8.4206      2.00000
     17       9.7101      2.00000
     18       9.7101      2.00000
     19      10.9424      2.00000
     20      11.9911      0.00000
     21      11.9911      0.00000
     22      12.6542      0.00000
     23      13.7183      0.00000
     24      14.0460      0.00000

 k-point     4 :       0.2308    0.0000   -0.0000
  band No.  band energies     occupation
      1     -28.0071      2.00000
      2     -12.0332      2.00000
      3     -12.0332      2.00000
      4     -11.9677      2.00000
      5     -11.9598      2.00000
      6     -11.9598      2.00000
      7      -6.7785      2.00000
      8      -6.3633      2.00000
      9      -6.3633      2.00000
     10      -1.2005      2.00000
     11       5.2318      2.00000
     12       5.4037      2.00000
     13       5.4037      2.00000
     14       6.6891      2.00000
     15       6.6891      2.00000
     16       7.7677      2.00000
     17       9.5921      2.00000
     18       9.5921      2.00000
     19      10.9105      2.00000
     20      12.3342      0.00000
     21      12.3342      0.00000
     22      13.4724      0.00000
     23      14.0273      0.00000
     24      14.0278      0.00000

 k-point     5 :       0.3077    0.0000   -0.0000
  band No.  band energies     occupation
      1     -28.0019      2.00000
      2     -12.0422      2.00000
      3     -12.0422      2.00000
      4     -11.9713      2.00000
      5     -11.9582      2.00000
      6     -11.9582      2.00000
      7      -6.9224      2.00000
      8      -6.3297      2.00000
      9      -6.3297      2.00000
     10      -0.7466      2.00000
     11       4.7788      2.00000
[...]
  212              fftbas_plan_mpi                       0.063910                     12   6
  213                dfftw_execute                         0.025487                   36   7
  214                map_backward                          0.004355                   12   7
  215                  map_gather                            0.000964                  6   8
  216                  m_alltoallv_z                         0.001879                  6   8
  217                  map_scatter                           0.001240                  6   8
  218                map_forward                           0.030969                   12   7
  219                  map_gather                            0.016801                  6   8
  220                  m_alltoallv_z                         0.006880                  6   8
  221                  map_scatter                           0.006965                  6   8
  222            M_sumb_d                              0.004599                        6   5
  223          M_sumb_d                              0.000026                          1   4
  224        setdij_                               1.498817                           20   3
  225          fft3d_mpi                             0.220587                         40   4
  226            fftbas_plan_mpi                       0.203404                       40   5
  227              dfftw_execute                         0.088747                    120   6
  228              map_backward                          0.012710                     40   6
  229                map_gather                            0.002760                   20   7
  230                m_alltoallv_z                         0.005130                   20   7
  231                map_scatter                           0.003901                   20   7
  232              map_forward                           0.091431                     40   6
  233                map_gather                            0.049778                   20   7
  234                m_alltoallv_z                         0.018204                   20   7
  235                map_scatter                           0.022469                   20   7
  236          M_sumb_d                              0.012700                         20   4
  237        set_dd_magatom                        0.000003                            1   3
  238        set_dd_paw                            0.015250                            1   3
  239          set_rsgf_all                          0.000004                          1   4
  240          M_sumb_d                              0.015099                          8   4
  241        strkin                                0.001041                            1   3
  242          M_sumb_d                              0.000481                          1   4
  243        strelo                                0.002665                            1   3
  244          M_sumb_d                              0.000574                          2   4
  245        strenl                                0.948693                            1   3
  246          spher                                 0.706466                         19   4
  247          phase                                 0.011476                        189   4
  248          proj1                                 0.206492                       1134   4
  249            crexp_mul_wave                        0.028960                     3402   5
  250            M_sumb_d                              0.055310                     1134   5
  251          M_sumb_d                              0.002828                          1   4
  252        M_sumb_d                              0.000218                            6   3
  253        fft3d_mpi                             0.015247                           11   3
  254          fftbas_plan_mpi                       0.014244                         11   4
  255            dfftw_execute                         0.005155                       33   5
  256            map_forward                           0.002731                       10   5
  257              map_gather                            0.000600                      5   6
  258              m_alltoallv_z                         0.001268                      5   6
  259              map_scatter                           0.000630                      5   6
  260            map_backward                          0.003763                       12   5
  261              map_gather                            0.000769                      6   6
  262              m_alltoallv_z                         0.001608                      6   6
  263              map_scatter                           0.001108                      6   6
  264        ggaall_grid                           0.001492                            1   3
  265        forhar                                0.006106                            2   3
  266          M_sumb_d                              0.000274                          2   4
  267        strehar                               0.002765                            1   3
  268          M_sumb_d                              0.000239                          1   4
  269        chggra                                0.006128                            1   3
  270          fft3d_mpi                             0.004128                          3   4
  271            fftbas_plan_mpi                       0.003851                        3   5
  272              dfftw_execute                         0.001431                      9   6
  273              map_backward                          0.000673                      2   6
  274                map_gather                            0.000119                    1   7
  275                m_alltoallv_z                         0.000313                    1   7
  276                map_scatter                           0.000189                    1   7
  277              map_forward                           0.001039                      4   6
  278                map_gather                            0.000236                    2   7
  279                m_alltoallv_z                         0.000454                    2   7
  280                map_scatter                           0.000250                    2   7
  281          M_sumb_d                              0.000149                          3   4
  282        brmix                                 0.009218                            1   3
  283          M_sumb_d                              0.000253                          6   4
  284          brpre                                 0.000057                          1   4
  285          setg0                                 0.001376                          1   4
  286          broyd                                 0.002447                          1   4
  287            M_sumb_d                              0.000688                       18   5
  288            brget                                 0.000296                       64   5
  289            brsav                                 0.000093                       16   5
  290          M_bcast_z                             0.004148                          1   4
  291          M_bcast_d                             0.000054                          1   4
  292        M_bcast_d                             0.000441                            2   3
  293      potlok                                0.026461                              1   2
  294        fft3d_mpi                             0.018359                           13   3
  295          fftbas_plan_mpi                       0.017163                         13   4
  296            dfftw_execute                         0.005856                       39   5
  297            map_forward                           0.003891                       14   5
  298              map_gather                            0.000773                      8   6
  299              m_alltoallv_z                         0.001869                      8   6
  300              map_scatter                           0.000900                      8   6
  301            map_backward                          0.004140                       12   5
  302              map_gather                            0.000912                      6   6
  303              m_alltoallv_z                         0.001719                      6   6
  304              map_scatter                           0.001202                      6   6
  305        ggaall_grid                           0.001521                            1   3
  306        M_sumb_d                              0.000303                            6   3
  307        M_bcast_d                             0.000112                            1   3
  308      potlok_metagga                        0.000004                              1   2
  309      set_dd_magatom                        0.000003                              1   2
  310      set_dd_paw                            0.000512                              1   2
  311        set_rsgf_all                          0.000004                            1   3
  312        M_sumb_d                              0.000311                            8   3
  313      densta                                0.002320                              1   2
  314        M_sumb_d                              0.000801                           40   3
  315      lprj_proall                           0.000008                              1   2

 Flat profile
 ============

             routine name                   CPU           calls
 ---------------------------------------------------------------
 total_time                             16.947473           1
 eddav                                   5.199203          16
 dfftw_execute                           4.822234       49524
 fftbas_plan_mpi                         3.290450       16510
 setdij_                                 2.697998          40
 M_sumb_d                                2.618820       45964
 set_charge                              2.143281          12
 m_alltoallv_z                           1.801654       16533
 pdssyex_zheevx                          1.482302         336
 elmin                                   1.220298           1
 M_alltoall_d                            1.134601       55006
 orth1                                   0.868931       11241
 proj1                                   0.845004        6724
 spher                                   0.814932          20
 vhamil                                  0.761554        7480
 gemm                                    0.757795       22440
 map_forward                             0.640488       17758
 fftwav_mpi                              0.636749        8740
 map_gather                              0.600010       16533
 map_scatter                             0.557519       16533
 vnlac0                                  0.495388        7480
 M_bcast_z                               0.471713        6291
 redis_pw                                0.456160       21138
 redis_proj                              0.407448       26623
 hamiltmu                                0.404353        3740
 w1_copy                                 0.304280       22440
 map_backward                            0.270072       15258
 fft3d_mpi                               0.264825       16508
 crpa_reader                             0.259388           1
 work_mul_crexp                          0.238460       22440
 fftext_mpi                              0.235708        7480
 crexp_mul_wave                          0.187994       20172
 eccp                                    0.183708        2016
 overl                                   0.147937       12965
 kinhamil                                0.146338        7480
 M_bcast_d                               0.120721        3772
 overl1                                  0.095747        7480
 potlok                                  0.088700          13
 pw_charge                               0.078605        1260
 apply_precond                           0.072945        5464
 setup_precond                           0.064833        2016
 w1_projall                              0.059457        2732
 lincom                                  0.053877         357
 force_and_stress                        0.053085           1
 fornl                                   0.042277           1
 phase                                   0.034262         568
 truncate_high_frequency_w1              0.032186        9496
 soft_charge                             0.032012          12
 densta                                  0.025172          17
 ggaall_grid                             0.021774          14
 strenl                                  0.021431           1
 brmix                                   0.017317          12
 setg0                                   0.014227          13
 broyd                                   0.008630          12
 forhar                                  0.005832           2
 depsum                                  0.005167          12
 forloc                                  0.002861           1
 set_dd_paw                              0.002741          14
 strehar                                 0.002526           1
 strelo                                  0.002091           1
 orthch                                  0.002049           1
 brget                                   0.001947         432
 chggra                                  0.001851           1
 choleski                                0.001791          21
 proj                                    0.001466          21
 brgrid                                  0.001293           1
 brsav                                   0.001022         128
 brpre                                   0.000780          12
 strkin                                  0.000560           1
 fordep                                  0.000128           1
 vectorpot                               0.000070          13
 set_rsgf_all                            0.000067          14
 potlok_metagga                          0.000051          13
 set_dd_magatom                          0.000051          14
 set_kineden                             0.000039          11
 rotate_active_occupied_orbital          0.000014           1
 lprj_proall                             0.000008           1
 redis_pw_over_bands                     0.000004           1
 ---------------------------------------------------------------
  summed up times    55.2867338657379

 Accumulative profile
 ====================

             routine name                   CPU           calls
 ---------------------------------------------------------------
 total_time                             55.286734           1
 elmin                                  33.935748           1
 eddav                                  28.053002          16
 fft3d_mpi                              12.212003       16508
 fftbas_plan_mpi                        11.982428       16510
 hamiltmu                                8.654889        3740
 fftwav_mpi                              6.887402        8740
 kinhamil                                5.435229        7480
 fftext_mpi                              5.288890        7480
 dfftw_execute                           4.822234       49524
 set_charge                              3.370925          12
 force_and_stress                        3.365487           1
 setdij_                                 3.205512          40
 M_sumb_d                                2.618820       45964
 map_forward                             2.260353       17758
 vnlac0                                  1.958007        7480
 m_alltoallv_z                           1.801654       16533
 map_backward                            1.609390       15258
 pdssyex_zheevx                          1.482302         336
 proj1                                   1.441618        6724
 w1_projall                              1.271343        2732
 M_alltoall_d                            1.134601       55006
 redis_pw                                1.090329       21138
 soft_charge                             1.050834          12
 strenl                                  0.948693           1
 redis_proj                              0.907879       26623
 orth1                                   0.868931       11241
 spher                                   0.814932          20
 vhamil                                  0.761554        7480
 gemm                                    0.757795       22440
 map_gather                              0.600010       16533
 map_scatter                             0.557519       16533
 fordep                                  0.472985           1
 M_bcast_z                               0.471713        6291
 potlok                                  0.346552          13
 w1_copy                                 0.304280       22440
 eccp                                    0.300022        2016
 crpa_reader                             0.259388           1
 work_mul_crexp                          0.238460       22440
 crexp_mul_wave                          0.187994       20172
 set_dd_paw                              0.172073          14
 overl                                   0.147937       12965
 M_bcast_d                               0.120721        3772
 setup_precond                           0.112019        2016
 overl1                                  0.095747        7480
 pw_charge                               0.078605        1260
 apply_precond                           0.072945        5464
 brmix                                   0.061975          12
 fornl                                   0.056707           1
 lincom                                  0.053877         357
 densta                                  0.038014          17
 phase                                   0.034262         568
 truncate_high_frequency_w1              0.032186        9496
 orthch                                  0.028632           1
 proj                                    0.024706          21
 ggaall_grid                             0.021774          14
 broyd                                   0.016702          12
 setg0                                   0.014227          13
 depsum                                  0.008130          12
 chggra                                  0.006128           1
 forhar                                  0.006106           2
 forloc                                  0.003724           1
 strehar                                 0.002765           1
 strelo                                  0.002665           1
 brget                                   0.001947         432
 choleski                                0.001791          21
 brgrid                                  0.001293           1
 strkin                                  0.001041           1
 brsav                                   0.001022         128
 brpre                                   0.000780          12
 vectorpot                               0.000070          13
 set_rsgf_all                            0.000067          14
 potlok_metagga                          0.000051          13
 set_dd_magatom                          0.000051          14
 set_kineden                             0.000039          11
 rotate_active_occupied_orbital          0.000014           1
 lprj_proall                             0.000008           1
 redis_pw_over_bands                     0.000004           1
 ---------------------------------------------------------------

Profiling took   1.302586  1.572456  0.006506  0.005103 seconds
Profiling took   1.265500 seconds
