<?xml version="1.0" encoding="ISO-8859-1"?>
<modeling>
 <generator>
  <i name="program" type="string">vasp </i>
  <i name="version" type="string">6.0.8  </i>
  <i name="subversion" type="string">29Jun18 (build Jun 13 2019 12:54:44) complex                          parallel </i>
  <i name="platform" type="string">IFC18_CrayMPICH </i>
  <i name="date" type="string">2021 12 05 </i>
  <i name="time" type="string">14:21:52 </i>
 </generator>
 <incar>
  <i type="int" name="KPAR">     4</i>
  <i type="int" name="NPAR">     4</i>
  <i type="int" name="ISTART">     0</i>
  <i type="string" name="PREC"> ACC</i>
  <i type="string" name="ALGO"> Normal</i>
  <i type="logical" name="ADDGRID"> T  </i>
  <i type="int" name="ISPIN">     1</i>
  <i type="int" name="NELMIN">     5</i>
  <i type="int" name="IBRION">    -1</i>
  <i name="EDIFF">      0.00000010</i>
  <i type="int" name="NSW">     0</i>
  <i type="int" name="ISIF">     3</i>
  <i name="ENCUT">    700.00000000</i>
  <i type="logical" name="LREAL"> F  </i>
  <i type="int" name="ISMEAR">     0</i>
  <i name="SIGMA">      0.01000000</i>
  <i type="logical" name="LWAVE"> F  </i>
  <i type="logical" name="LCHARG"> F  </i>
  <i type="logical" name="LVTOT"> F  </i>
  <i type="string" name="ALGO"> Normal</i>
  <i type="string" name="GGA"> PS</i>
  <i name="EDIFF">      0.00000010</i>
  <i type="int" name="ISPIN">     1</i>
 </incar>
 <structure name="primitive_cell" >
  <crystal>
   <varray name="basis" >
    <v>       0.00000000       3.17935746       3.17935746 </v>
    <v>       3.17935746       0.00000000       3.17935746 </v>
    <v>       3.17935746       3.17935746       0.00000000 </v>
   </varray>
   <i name="volume">     64.27588604 </i>
   <varray name="rec_basis" >
    <v>      -0.15726448       0.15726448       0.15726448 </v>
    <v>       0.15726448      -0.15726448       0.15726448 </v>
    <v>       0.15726448       0.15726448      -0.15726448 </v>
   </varray>
  </crystal>
  <varray name="positions" >
   <v>       0.25000000       0.25000000       0.25000000 </v>
   <v>       0.75000000       0.75000000       0.75000000 </v>
   <v>       0.00000000       0.00000000       0.00000000 </v>
  </varray>
 </structure>
 <varray name="primitive_index" >
  <v type="int" >        1 </v>
  <v type="int" >        2 </v>
  <v type="int" >        3 </v>
 </varray>
 <kpoints>
  <generation param="Gamma">
   <v type="int" name="divisions">      13       13       13 </v>
   <v name="usershift">      0.00000000       0.00000000       0.00000000 </v>
   <v name="genvec1">      0.07692308       0.00000000      -0.00000000 </v>
   <v name="genvec2">      0.00000000       0.07692308       0.00000000 </v>
   <v name="genvec3">     -0.00000000      -0.00000000       0.07692308 </v>
   <v name="shift">      0.00000000       0.00000000       0.00000000 </v>
  </generation>
  <varray name="kpointlist" >
   <v>       0.00000000       0.00000000       0.00000000 </v>
   <v>       0.07692308       0.00000000      -0.00000000 </v>
   <v>       0.15384615       0.00000000      -0.00000000 </v>
   <v>       0.23076923       0.00000000      -0.00000000 </v>
   <v>       0.30769231       0.00000000      -0.00000000 </v>
   <v>       0.38461538       0.00000000      -0.00000000 </v>
   <v>       0.46153846      -0.00000000       0.00000000 </v>
   <v>       0.07692308       0.07692308      -0.00000000 </v>
   <v>       0.15384615       0.07692308      -0.00000000 </v>
   <v>       0.23076923       0.07692308      -0.00000000 </v>
   <v>       0.30769231       0.07692308      -0.00000000 </v>
   <v>       0.38461538       0.07692308      -0.00000000 </v>
   <v>       0.46153846       0.07692308      -0.00000000 </v>
   <v>      -0.46153846       0.07692308      -0.00000000 </v>
   <v>      -0.38461538       0.07692308       0.00000000 </v>
   <v>      -0.30769231       0.07692308       0.00000000 </v>
   <v>      -0.23076923       0.07692308       0.00000000 </v>
   <v>      -0.15384615       0.07692308       0.00000000 </v>
   <v>      -0.07692308       0.07692308       0.00000000 </v>
   <v>       0.15384615       0.15384615      -0.00000000 </v>
   <v>       0.23076923       0.15384615      -0.00000000 </v>
   <v>       0.30769231       0.15384615       0.00000000 </v>
   <v>       0.38461538       0.15384615      -0.00000000 </v>
   <v>       0.46153846       0.15384615      -0.00000000 </v>
   <v>      -0.46153846       0.15384615       0.00000000 </v>
   <v>      -0.38461538       0.15384615       0.00000000 </v>
   <v>      -0.30769231       0.15384615       0.00000000 </v>
   <v>      -0.23076923       0.15384615       0.00000000 </v>
   <v>      -0.15384615       0.15384615       0.00000000 </v>
   <v>       0.23076923       0.23076923      -0.00000000 </v>
   <v>       0.30769231       0.23076923      -0.00000000 </v>
   <v>       0.38461538       0.23076923      -0.00000000 </v>
   <v>       0.46153846       0.23076923      -0.00000000 </v>
   <v>      -0.46153846       0.23076923       0.00000000 </v>
   <v>      -0.38461538       0.23076923      -0.00000000 </v>
   <v>      -0.30769231       0.23076923      -0.00000000 </v>
   <v>      -0.23076923       0.23076923       0.00000000 </v>
   <v>       0.30769231       0.30769231      -0.00000000 </v>
   <v>       0.38461538       0.30769231      -0.00000000 </v>
   <v>       0.46153846       0.30769231      -0.00000000 </v>
   <v>      -0.46153846       0.30769231      -0.00000000 </v>
   <v>      -0.38461538       0.30769231       0.00000000 </v>
   <v>      -0.30769231       0.30769231       0.00000000 </v>
   <v>       0.38461538       0.38461538      -0.00000000 </v>
   <v>       0.46153846       0.38461538      -0.00000000 </v>
   <v>      -0.46153846       0.38461538       0.00000000 </v>
   <v>      -0.38461538       0.38461538       0.00000000 </v>
   <v>       0.46153846       0.46153846      -0.00000000 </v>
   <v>      -0.46153846       0.46153846       0.00000000 </v>
   <v>       0.23076923       0.15384615       0.07692308 </v>
   <v>       0.30769231       0.15384615       0.07692308 </v>
   <v>       0.38461538       0.15384615       0.07692308 </v>
   <v>       0.46153846       0.15384615       0.07692308 </v>
   <v>      -0.46153846       0.15384615       0.07692308 </v>
   <v>       0.30769231       0.23076923       0.07692308 </v>
   <v>       0.38461538       0.23076923       0.07692308 </v>
   <v>       0.46153846       0.23076923       0.07692308 </v>
   <v>      -0.46153846       0.23076923       0.07692308 </v>
   <v>      -0.38461538       0.23076923       0.07692308 </v>
   <v>      -0.30769231       0.23076923       0.07692308 </v>
   <v>      -0.23076923       0.23076923       0.07692308 </v>
   <v>      -0.15384615       0.23076923       0.07692308 </v>
   <v>       0.38461538       0.30769231       0.07692308 </v>
   <v>       0.46153846       0.30769231       0.07692308 </v>
   <v>      -0.46153846       0.30769231       0.07692308 </v>
   <v>      -0.38461538       0.30769231       0.07692308 </v>
   <v>      -0.30769231       0.30769231       0.07692308 </v>
   <v>      -0.23076923       0.30769231       0.07692308 </v>
   <v>       0.46153846       0.38461538       0.07692308 </v>
   <v>      -0.46153846       0.38461538       0.07692308 </v>
   <v>      -0.38461538       0.38461538       0.07692308 </v>
   <v>      -0.30769231       0.38461538       0.07692308 </v>
   <v>      -0.46153846       0.46153846       0.07692308 </v>
   <v>      -0.38461538       0.46153846       0.07692308 </v>
   <v>       0.46153846       0.30769231       0.15384615 </v>
   <v>      -0.46153846       0.30769231       0.15384615 </v>
   <v>      -0.38461538       0.30769231       0.15384615 </v>
   <v>      -0.46153846       0.38461538       0.15384615 </v>
   <v>      -0.38461538       0.38461538       0.15384615 </v>
   <v>      -0.30769231       0.38461538       0.15384615 </v>
   <v>      -0.23076923       0.38461538       0.15384615 </v>
   <v>      -0.38461538       0.46153846       0.15384615 </v>
   <v>      -0.30769231       0.46153846       0.15384615 </v>
   <v>      -0.30769231       0.46153846       0.23076923 </v>
  </varray>
  <varray name="weights" >
   <v>       0.00045517 </v>
   <v>       0.00364133 </v>
   <v>       0.00364133 </v>
   <v>       0.00364133 </v>
   <v>       0.00364133 </v>
   <v>       0.00364133 </v>
   <v>       0.00364133 </v>
   <v>       0.00273100 </v>
   <v>       0.01092399 </v>
   <v>       0.01092399 </v>
   <v>       0.01092399 </v>
   <v>       0.01092399 </v>
   <v>       0.01092399 </v>
   <v>       0.01092399 </v>
   <v>       0.01092399 </v>
   <v>       0.01092399 </v>
   <v>       0.01092399 </v>
   <v>       0.01092399 </v>
   <v>       0.00546199 </v>
   <v>       0.00273100 </v>
   <v>       0.01092399 </v>
   <v>       0.01092399 </v>
   <v>       0.01092399 </v>
   <v>       0.01092399 </v>
   <v>       0.01092399 </v>
   <v>       0.01092399 </v>
   <v>       0.01092399 </v>
   <v>       0.01092399 </v>
   <v>       0.00546199 </v>
   <v>       0.00273100 </v>
   <v>       0.01092399 </v>
   <v>       0.01092399 </v>
   <v>       0.01092399 </v>
   <v>       0.01092399 </v>
   <v>       0.01092399 </v>
   <v>       0.01092399 </v>
   <v>       0.00546199 </v>
   <v>       0.00273100 </v>
   <v>       0.01092399 </v>
   <v>       0.01092399 </v>
   <v>       0.01092399 </v>
   <v>       0.01092399 </v>
   <v>       0.00546199 </v>
   <v>       0.00273100 </v>
   <v>       0.01092399 </v>
   <v>       0.01092399 </v>
   <v>       0.00546199 </v>
   <v>       0.00273100 </v>
   <v>       0.00546199 </v>
   <v>       0.01092399 </v>
   <v>       0.02184797 </v>
   <v>       0.02184797 </v>
   <v>       0.02184797 </v>
   <v>       0.02184797 </v>
   <v>       0.01092399 </v>
   <v>       0.02184797 </v>
   <v>       0.02184797 </v>
   <v>       0.02184797 </v>
   <v>       0.02184797 </v>
   <v>       0.02184797 </v>
   <v>       0.02184797 </v>
   <v>       0.01092399 </v>
   <v>       0.01092399 </v>
   <v>       0.02184797 </v>
   <v>       0.02184797 </v>
   <v>       0.02184797 </v>
   <v>       0.02184797 </v>
   <v>       0.01092399 </v>
   <v>       0.01092399 </v>
   <v>       0.02184797 </v>
   <v>       0.02184797 </v>
   <v>       0.01092399 </v>
   <v>       0.01092399 </v>
   <v>       0.01092399 </v>
   <v>       0.01092399 </v>
   <v>       0.02184797 </v>
   <v>       0.02184797 </v>
   <v>       0.01092399 </v>
   <v>       0.02184797 </v>
   <v>       0.02184797 </v>
   <v>       0.01092399 </v>
   <v>       0.01092399 </v>
   <v>       0.01092399 </v>
   <v>       0.01092399 </v>
  </varray>
 </kpoints>
 <parameters>
  <separator name="general" >
   <i type="string" name="SYSTEM">unknown system</i>
   <i type="logical" name="LCOMPAT"> F  </i>
  </separator>
  <separator name="electronic" >
   <i type="string" name="PREC">acc</i>
   <i name="ENMAX">    700.00000000</i>
   <i name="ENAUG">    535.43100000</i>
   <i name="EDIFF">      0.00000010</i>
   <i type="int" name="IALGO">    38</i>
   <i type="int" name="IWAVPR">    10</i>
   <i type="int" name="NBANDS">    24</i>
   <i type="int" name="NBANDSLOW">    -1</i>
   <i type="int" name="NBANDSHIGH">    -1</i>
   <i name="NELECT">     37.00000000</i>
   <i type="int" name="TURBO">     0</i>
   <i type="int" name="IRESTART">     0</i>
   <i type="int" name="NREBOOT">     0</i>
   <i type="int" name="NMIN">     0</i>
   <i name="EREF">      0.00000000</i>
   <separator name="electronic smearing" >
    <i type="int" name="ISMEAR">     0</i>
    <i name="SIGMA">      0.01000000</i>
    <i name="KSPACING">      0.50000000</i>
    <i type="logical" name="KGAMMA"> T  </i>
    <i type="logical" name="KBLOWUP"> T  </i>
   </separator>
   <separator name="electronic projectors" >
    <i type="logical" name="LREAL"> F  </i>
    <v name="ROPT">      0.00000000      0.00000000      0.00000000</v>
    <i type="int" name="LMAXPAW">  -100</i>
    <i type="int" name="LMAXMIX">     2</i>
    <i type="logical" name="NLSPLINE"> F  </i>
   </separator>
   <separator name="electronic startup" >
    <i type="int" name="ISTART">     0</i>
    <i type="int" name="ICHARG">     2</i>
    <i type="int" name="INIWAV">     1</i>
   </separator>
   <separator name="electronic spin" >
    <i type="int" name="ISPIN">     1</i>
    <i type="logical" name="LNONCOLLINEAR"> F  </i>
    <v name="MAGMOM">      1.00000000      1.00000000      1.00000000</v>
    <i name="NUPDOWN">     -1.00000000</i>
    <i type="logical" name="LSORBIT"> F  </i>
    <v name="SAXIS">      0.00000000      0.00000000      1.00000000</v>
    <i type="logical" name="LSPIRAL"> F  </i>
    <v name="QSPIRAL">      0.00000000      0.00000000      0.00000000</v>
    <i type="logical" name="LZEROZ"> F  </i>
   </separator>
   <separator name="electronic exchange-correlation" >
    <i type="logical" name="LASPH"> F  </i>
    <i type="logical" name="LMETAGGA"> F  </i>
   </separator>
   <separator name="electronic convergence" >
    <i type="int" name="NELM">    60</i>
    <i type="int" name="NELMDL">    -5</i>
    <i type="int" name="NELMIN">     5</i>
    <i name="ENINI">    700.00000000</i>
    <separator name="electronic convergence detail" >
     <i type="logical" name="LDIAG"> T  </i>
     <i type="logical" name="LSUBROT"> F  </i>
     <i name="WEIMIN">      0.00000000</i>
     <i name="EBREAK">      0.00000000</i>
     <i name="DEPER">      0.30000000</i>
     <i type="int" name="NRMM">     4</i>
     <i name="TIME">      0.40000000</i>
    </separator>
   </separator>
   <separator name="electronic mixer" >
    <i name="AMIX">      0.40000000</i>
    <i name="BMIX">      1.00000000</i>
    <i name="AMIN">      0.10000000</i>
    <i name="AMIX_MAG">      1.60000000</i>
    <i name="BMIX_MAG">      1.00000000</i>
    <separator name="electronic mixer details" >
     <i type="int" name="IMIX">     4</i>
     <i type="logical" name="MIXFIRST"> F  </i>
     <i type="int" name="MAXMIX">   -45</i>
     <i name="WC">    100.00000000</i>
     <i type="int" name="INIMIX">     1</i>
     <i type="int" name="MIXPRE">     1</i>
     <i type="int" name="MREMOVE">     5</i>
    </separator>
   </separator>
   <separator name="electronic dipolcorrection" >
    <i type="logical" name="LDIPOL"> F  </i>
    <i type="logical" name="LMONO"> F  </i>
    <i type="int" name="IDIPOL">     0</i>
    <i name="EPSILON">      1.00000000</i>
    <v name="DIPOL">   -100.00000000   -100.00000000   -100.00000000</v>
    <i name="EFIELD">      0.00000000</i>
   </separator>
  </separator>
  <separator name="grids" >
   <i type="int" name="NGX">    40</i>
   <i type="int" name="NGY">    40</i>
   <i type="int" name="NGZ">    40</i>
   <i type="int" name="NGXF">    80</i>
   <i type="int" name="NGYF">    80</i>
   <i type="int" name="NGZF">    80</i>
   <i type="logical" name="ADDGRID"> T  </i>
  </separator>
  <separator name="ionic" >
   <i type="int" name="NSW">     0</i>
   <i type="int" name="IBRION">    -1</i>
   <i type="int" name="MDALGO">     0</i>
   <i type="int" name="ISIF">     3</i>
   <i name="PSTRESS">      0.00000000</i>
   <i name="EDIFFG">      0.00000100</i>
   <i type="int" name="NFREE">     0</i>
   <i name="POTIM">      0.50000000</i>
   <i name="SMASS">     -3.00000000</i>
   <i name="SCALEE">      1.00000000</i>
  </separator>
  <separator name="ionic md" >
   <i name="TEBEG">      0.00010000</i>
   <i name="TEEND">      0.00010000</i>
   <i type="int" name="NBLOCK">     1</i>
   <i type="int" name="KBLOCK">     1</i>
   <i type="int" name="NPACO">   256</i>
   <i name="APACO">     16.00000000</i>
  </separator>
  <separator name="symmetry" >
   <i type="int" name="ISYM">     2</i>
   <i name="SYMPREC">      0.00001000</i>
  </separator>
  <separator name="dos" >
   <i type="int" name="LORBIT">     0</i>
   <v name="RWIGS">     -1.00000000     -1.00000000     -1.00000000</v>
   <i type="int" name="NEDOS">   301</i>
   <i name="EMIN">     10.00000000</i>
   <i name="EMAX">    -10.00000000</i>
   <i name="EFERMI">      0.00000000</i>
  </separator>
  <separator name="writing" >
   <i type="int" name="NWRITE">     2</i>
   <i type="logical" name="LWAVE"> F  </i>
   <i type="logical" name="LDOWNSAMPLE"> F  </i>
   <i type="logical" name="LCHARG"> F  </i>
   <i type="logical" name="LPARD"> F  </i>
   <i type="logical" name="LVTOT"> F  </i>
   <i type="logical" name="LVHAR"> F  </i>
   <i type="logical" name="LELF"> F  </i>
   <i type="logical" name="LOPTICS"> F  </i>
   <v name="STM">      0.00000000      0.00000000      0.00000000      0.00000000      0.00000000      0.00000000      0.00000000</v>
  </separator>
  <separator name="performance" >
   <i type="int" name="NPAR">     4</i>
   <i type="int" name="NSIM">     4</i>
   <i type="int" name="NBLK">    -1</i>
   <i type="logical" name="LPLANE"> T  </i>
   <i type="logical" name="LSCALAPACK"> T  </i>
   <i type="logical" name="LSCAAWARE"> F  </i>
   <i type="logical" name="LSCALU"> F  </i>
   <i type="logical" name="LASYNC"> F  </i>
   <i type="logical" name="LORBITALREAL"> F  </i>
  </separator>
  <separator name="miscellaneous" >
   <i type="int" name="IDIOT">     3</i>
   <i type="int" name="PHON_NSTRUCT">    -1</i>
   <i type="logical" name="LMUSIC"> F  </i>
   <v name="POMASS">    232.03900000    208.98000000    195.08000000</v>
   <v name="DARWINR">      0.00000000      0.00000000      0.00000000</v>
   <v name="DARWINV">      1.00000000      1.00000000      1.00000000</v>
   <i type="logical" name="LCORR"> T  </i>
  </separator>
  <i type="logical" name="GGA_COMPAT"> T  </i>
  <i type="logical" name="LBERRY"> F  </i>
  <i type="int" name="ICORELEVEL">     0</i>
  <i type="logical" name="LDAU"> F  </i>
  <i type="int" name="I_CONSTRAINED_M">     0</i>
  <separator name="electronic exchange-correlation" >
   <i type="string" name="GGA">PS</i>
   <i type="int" name="VOSKOWN">     0</i>
   <i type="logical" name="LHFCALC"> F  </i>
   <i type="string" name="PRECFOCK"></i>
   <i type="logical" name="LSYMGRAD"> F  </i>
   <i type="logical" name="LHFONE"> F  </i>
   <i type="logical" name="LRHFCALC"> F  </i>
   <i type="logical" name="LTHOMAS"> F  </i>
   <i type="logical" name="LMODELHF"> F  </i>
   <i type="logical" name="LFOCKACE"> F  </i>
   <i name="ENCUT4O">     -1.00000000</i>
   <i type="int" name="EXXOEP">     0</i>
   <i type="int" name="FOURORBIT">     0</i>
   <i name="AEXX">      0.00000000</i>
   <i name="HFALPHA">      0.00000000</i>
   <i name="MCALPHA">      0.00000000</i>
   <i name="ALDAX">      1.00000000</i>
   <i name="AGGAX">      1.00000000</i>
   <i name="ALDAC">      1.00000000</i>
   <i name="AGGAC">      1.00000000</i>
   <i type="int" name="NKREDX">     1</i>
   <i type="int" name="NKREDY">     1</i>
   <i type="int" name="NKREDZ">     1</i>
   <i type="logical" name="SHIFTRED"> F  </i>
   <i type="logical" name="ODDONLY"> F  </i>
   <i type="logical" name="EVENONLY"> F  </i>
   <i type="int" name="LMAXFOCK">     0</i>
   <i type="int" name="NMAXFOCKAE">     0</i>
   <i type="logical" name="LFOCKAEDFT"> F  </i>
   <i name="HFSCREEN">      0.00000000</i>
   <i name="HFSCREENC">      0.00000000</i>
   <i type="int" name="NBANDSGWLOW">     0</i>
  </separator>
  <separator name="vdW DFT" >
   <i type="logical" name="LUSE_VDW"> F  </i>
   <i name="Zab_VDW">     -0.84910000</i>
   <i name="PARAM1">      0.12340000</i>
   <i name="PARAM2">      1.00000000</i>
   <i name="PARAM3">      0.00000000</i>
  </separator>
  <separator name="model GW" >
   <i type="int" name="MODEL_GW">     0</i>
   <i name="MODEL_EPS0">     12.85517721</i>
   <i name="MODEL_ALPHA">      1.00000000</i>
  </separator>
  <separator name="linear response parameters" >
   <i type="logical" name="LEPSILON"> F  </i>
   <i type="logical" name="LRPA"> F  </i>
   <i type="logical" name="LNABLA"> F  </i>
   <i type="logical" name="LVEL"> F  </i>
   <i type="int" name="KINTER">     0</i>
   <i name="CSHIFT">      0.10000000</i>
   <i name="OMEGAMAX">     -1.00000000</i>
   <i name="DEG_THRESHOLD">      0.00200000</i>
   <i name="RTIME">     -0.10000000</i>
   <i name="WPLASMAI">      0.00000000</i>
   <v name="DFIELD">      0.00000000      0.00000000      0.00000000</v>
   <v name="WPLASMA">      0.00000000      0.00000000      0.00000000      0.00000000      0.00000000      0.00000000      0.00000000      0.00000000      0.00000000</v>
  </separator>
  <separator name="orbital magnetization" >
   <i type="logical" name="NUCIND"> F  </i>
   <v name="MAGPOS">      0.00000000      0.00000000      0.00000000</v>
   <i type="logical" name="LNICSALL"> T  </i>
   <i type="logical" name="ORBITALMAG"> F  </i>
   <i type="logical" name="LMAGBLOCH"> F  </i>
   <i type="logical" name="LCHIMAG"> F  </i>
   <i type="logical" name="LGAUGE"> T  </i>
   <i type="int" name="MAGATOM">     0</i>
   <v name="MAGDIPOL">      0.00000000      0.00000000      0.00000000</v>
   <v name="AVECCONST">      0.00000000      0.00000000      0.00000000</v>
  </separator>
  <separator name="response functions" >
   <i type="logical" name="LFINITE_TEMPERATURE"> F  </i>
   <i type="logical" name="LADDER"> F  </i>
   <i type="logical" name="LRPAFORCE"> F  </i>
   <i type="logical" name="LFXC"> F  </i>
   <i type="logical" name="LHARTREE"> T  </i>
   <i type="int" name="IBSE">     0</i>
   <v type="int" name="KPOINT">    -1     0     0     0</v>
   <i type="logical" name="LTCTC"> F  </i>
   <i type="logical" name="LTCTE"> F  </i>
   <i type="logical" name="LTETE"> F  </i>
   <i type="logical" name="LTRIPLET"> F  </i>
   <i type="logical" name="LFXCEPS"> F  </i>
   <i type="logical" name="LFXHEG"> F  </i>
   <i type="int" name="NATURALO">     2</i>
   <i type="logical" name="L2ORDER"> F  </i>
   <i type="logical" name="LDMP1"> F  </i>
   <i type="logical" name="LMP2LT"> F  </i>
   <i type="logical" name="LSMP2LT"> F  </i>
   <i type="logical" name="LUSEW"> F  </i>
   <i name="ENCUTGW">     -2.00000000</i>
   <i name="ENCUTGWSOFT">     -2.00000000</i>
   <i name="ENCUTLF">     -1.00000000</i>
   <i type="int" name="LMAXMP2">    -1</i>
   <i name="SCISSOR">      0.00000000</i>
   <i type="int" name="NOMEGA">     0</i>
   <i type="int" name="NOMEGAR">     0</i>
   <i type="int" name="NBANDSGW">    -1</i>
   <i type="int" name="NBANDSO">    -1</i>
   <i type="int" name="NBANDSV">    -1</i>
   <i type="int" name="NELM">     1</i>
   <i type="int" name="NELMHF">     1</i>
   <i type="int" name="DIM">     3</i>
   <i type="int" name="IESPILON">     4</i>
   <i type="int" name="ANTIRES">     0</i>
   <i name="OMEGAMAX">    -30.00000000</i>
   <i name="OMEGAMIN">    -30.00000000</i>
   <i name="OMEGATL">   -200.00000000</i>
   <i type="int" name="OMEGAGRID">   145</i>
   <i name="CSHIFT">     -0.10000000</i>
   <i type="logical" name="LSELFENERGY"> F  </i>
   <i type="logical" name="LSPECTRAL"> F  </i>
   <i type="logical" name="LSPECTRALGW"> F  </i>
   <i type="logical" name="LSINGLES"> F  </i>
   <i type="logical" name="LFERMIGW"> F  </i>
   <i type="logical" name="ODDONLYGW"> F  </i>
   <i type="logical" name="EVENONLYGW"> F  </i>
   <i type="int" name="NKREDLFX">     1</i>
   <i type="int" name="NKREDLFY">     1</i>
   <i type="int" name="NKREDLFZ">     1</i>
   <i type="int" name="MAXMEM">  2800</i>
   <i type="int" name="TELESCOPE">     0</i>
   <i type="int" name="NTAUPAR">     1</i>
   <i type="int" name="NOMEGAPAR">    -1</i>
   <i name="LAMBDA">      1.00000000</i>
  </separator>
  <separator name="External order field" >
   <i name="OFIELD_KAPPA">      0.00000000</i>
   <v name="OFIELD_K">      0.00000000      0.00000000      0.00000000</v>
   <i name="OFIELD_Q6_NEAR">      0.00000000</i>
   <i name="OFIELD_Q6_FAR">      0.00000000</i>
   <i name="OFIELD_A">      0.00000000</i>
  </separator>
 </parameters>
 <atominfo>
  <atoms>       3 </atoms>
  <types>       3 </types>
  <array name="atoms" >
   <dimension dim="1">ion</dimension>
   <field type="string">element</field>
   <field type="int">atomtype</field>
   <set>
    <rc><c>Th</c><c>   1</c></rc>
    <rc><c>Bi</c><c>   2</c></rc>
    <rc><c>Pt</c><c>   3</c></rc>
   </set>
  </array>
  <array name="atomtypes" >
   <dimension dim="1">type</dimension>
   <field type="int">atomspertype</field>
   <field type="string">element</field>
   <field>mass</field>
   <field>valence</field>
   <field type="string">pseudopotential</field>
   <set>
    <rc><c>   1</c><c>Th</c><c>    232.03900000</c><c>     12.00000000</c><c>  PAW_PBE Th 07Sep2000                  </c></rc>
    <rc><c>   1</c><c>Bi</c><c>    208.98000000</c><c>     15.00000000</c><c>  PAW_PBE Bi_d 06Sep2000                </c></rc>
    <rc><c>   1</c><c>Pt</c><c>    195.08000000</c><c>     10.00000000</c><c>  PAW_PBE Pt 04Feb2005                  </c></rc>
   </set>
  </array>
 </atominfo>
 <structure name="initialpos" >
  <crystal>
   <varray name="basis" >
    <v>       0.00000000       3.17935746       3.17935746 </v>
    <v>       3.17935746       0.00000000       3.17935746 </v>
    <v>       3.17935746       3.17935746       0.00000000 </v>
   </varray>
   <i name="volume">     64.27588604 </i>
   <varray name="rec_basis" >
    <v>      -0.15726448       0.15726448       0.15726448 </v>
    <v>       0.15726448      -0.15726448       0.15726448 </v>
    <v>       0.15726448       0.15726448      -0.15726448 </v>
   </varray>
  </crystal>
  <varray name="positions" >
   <v>       0.25000000       0.25000000       0.25000000 </v>
   <v>       0.75000000       0.75000000       0.75000000 </v>
   <v>       0.00000000       0.00000000       0.00000000 </v>
  </varray>
 </structure>
 <calculation>
  <scstep>
   <time name="dav">    1.40    1.42</time>
   <time name="total">    1.55    1.70</time>
   <energy>
    <i name="alphaZ">    267.30962477 </i>
    <i name="ewald">  -3369.29095555 </i>
    <i name="hartreedc">   -658.81514705 </i>
    <i name="XCdc">     71.01237523 </i>
    <i name="pawpsdc">   3147.30828992 </i>
    <i name="pawaedc">  -3070.62761383 </i>
    <i name="eentropy">     -0.00008984 </i>
    <i name="bandstr">    394.27057764 </i>
    <i name="atom">   3674.67342263 </i>
    <i name="e_fr_energy">    455.84048391 </i>
    <i name="e_wo_entrp">    455.84057376 </i>
    <i name="e_0_energy">    455.84052884 </i>
   </energy>
  </scstep>
  <scstep>
   <time name="dav">    1.45    1.47</time>
   <time name="total">    1.45    1.47</time>
   <energy>
    <i name="e_fr_energy">     48.13539572 </i>
    <i name="e_wo_entrp">     48.13549659 </i>
    <i name="e_0_energy">     48.13544615 </i>
   </energy>
  </scstep>
  <scstep>
   <time name="dav">    1.79    1.81</time>
   <time name="total">    1.79    1.81</time>
   <energy>
    <i name="e_fr_energy">    -16.93927960 </i>
    <i name="e_wo_entrp">    -16.93919040 </i>
    <i name="e_0_energy">    -16.93923500 </i>
   </energy>
  </scstep>
  <scstep>
   <time name="dav">    2.18    2.20</time>
   <time name="total">    2.18    2.21</time>
   <energy>
    <i name="e_fr_energy">    -21.05884792 </i>
    <i name="e_wo_entrp">    -21.05837321 </i>
    <i name="e_0_energy">    -21.05861057 </i>
   </energy>
  </scstep>
  <scstep>
   <time name="dav">    1.83    1.85</time>
   <time name="total">    2.16    2.18</time>
   <energy>
    <i name="e_fr_energy">    -21.16377656 </i>
    <i name="e_wo_entrp">    -21.16332363 </i>
    <i name="e_0_energy">    -21.16355009 </i>
   </energy>
  </scstep>
  <scstep>
   <time name="dav">    1.70    1.70</time>
   <time name="total">    2.15    2.18</time>
   <energy>
    <i name="e_fr_energy">    -20.42934760 </i>
    <i name="e_wo_entrp">    -20.42916205 </i>
    <i name="e_0_energy">    -20.42925482 </i>
   </energy>
  </scstep>
  <scstep>
   <time name="dav">    1.89    1.89</time>
   <time name="total">    2.30    2.33</time>
   <energy>
    <i name="e_fr_energy">    -20.25156300 </i>
    <i name="e_wo_entrp">    -20.25142783 </i>
    <i name="e_0_energy">    -20.25149541 </i>
   </energy>
  </scstep>
  <scstep>
   <time name="dav">    1.78    1.78</time>
   <time name="total">    2.19    2.23</time>
   <energy>
    <i name="e_fr_energy">    -20.23024990 </i>
    <i name="e_wo_entrp">    -20.23013093 </i>
    <i name="e_0_energy">    -20.23019041 </i>
   </energy>
  </scstep>
  <scstep>
   <time name="dav">    1.83    1.83</time>
   <time name="total">    2.24    2.27</time>
   <energy>
    <i name="e_fr_energy">    -20.22567105 </i>
    <i name="e_wo_entrp">    -20.22553101 </i>
    <i name="e_0_energy">    -20.22560103 </i>
   </energy>
  </scstep>
  <scstep>
   <time name="dav">    1.84    1.84</time>
   <time name="total">    2.25    2.28</time>
   <energy>
    <i name="e_fr_energy">    -20.22354338 </i>
    <i name="e_wo_entrp">    -20.22341788 </i>
    <i name="e_0_energy">    -20.22348063 </i>
   </energy>
  </scstep>
  <scstep>
   <time name="dav">    1.78    1.78</time>
   <time name="total">    2.21    2.24</time>
   <energy>
    <i name="e_fr_energy">    -20.22356657 </i>
    <i name="e_wo_entrp">    -20.22344215 </i>
    <i name="e_0_energy">    -20.22350436 </i>
   </energy>
  </scstep>
  <scstep>
   <time name="dav">    1.96    1.96</time>
   <time name="total">    2.38    2.40</time>
   <energy>
    <i name="e_fr_energy">    -20.22354340 </i>
    <i name="e_wo_entrp">    -20.22342070 </i>
    <i name="e_0_energy">    -20.22348205 </i>
   </energy>
  </scstep>
  <scstep>
   <time name="dav">    1.86    1.86</time>
   <time name="total">    2.28    2.30</time>
   <energy>
    <i name="e_fr_energy">    -20.22354525 </i>
    <i name="e_wo_entrp">    -20.22342302 </i>
    <i name="e_0_energy">    -20.22348414 </i>
   </energy>
  </scstep>
  <scstep>
   <time name="dav">    1.72    1.72</time>
   <time name="total">    2.14    2.16</time>
   <energy>
    <i name="e_fr_energy">    -20.22354507 </i>
    <i name="e_wo_entrp">    -20.22342276 </i>
    <i name="e_0_energy">    -20.22348391 </i>
   </energy>
  </scstep>
  <scstep>
   <time name="dav">    1.85    1.85</time>
   <time name="total">    2.27    2.30</time>
   <energy>
    <i name="e_fr_energy">    -20.22354478 </i>
    <i name="e_wo_entrp">    -20.22342238 </i>
    <i name="e_0_energy">    -20.22348358 </i>
   </energy>
  </scstep>
  <scstep>
   <time name="dav">    1.28    1.28</time>
   <time name="total">    1.41    1.44</time>
   <energy>
    <i name="alphaZ">    267.30962477 </i>
    <i name="ewald">  -3369.29095555 </i>
    <i name="hartreedc">   -631.47035097 </i>
    <i name="XCdc">     70.33656858 </i>
    <i name="pawpsdc">   4684.84740308 </i>
    <i name="pawaedc">  -4620.79490882 </i>
    <i name="eentropy">     -0.00012240 </i>
    <i name="bandstr">    -95.83422609 </i>
    <i name="atom">   3674.67342263 </i>
    <i name="e_fr_energy">    -20.22354477 </i>
    <i name="e_wo_entrp">    -20.22342236 </i>
    <i name="e_0_energy">    -20.22348356 </i>
   </energy>
  </scstep>
  <structure>
   <crystal>
    <varray name="basis" >
     <v>       0.00000000       3.17935746       3.17935746 </v>
     <v>       3.17935746       0.00000000       3.17935746 </v>
     <v>       3.17935746       3.17935746       0.00000000 </v>
    </varray>
    <i name="volume">     64.27588604 </i>
    <varray name="rec_basis" >
     <v>      -0.15726448       0.15726448       0.15726448 </v>
     <v>       0.15726448      -0.15726448       0.15726448 </v>
     <v>       0.15726448       0.15726448      -0.15726448 </v>
    </varray>
   </crystal>
   <varray name="positions" >
    <v>       0.25000000       0.25000000       0.25000000 </v>
    <v>       0.75000000       0.75000000       0.75000000 </v>
    <v>       0.00000000       0.00000000       0.00000000 </v>
   </varray>
  </structure>
  <varray name="forces" >
   <v>      -0.00000000      -0.00000000      -0.00000000 </v>
   <v>      -0.00000000      -0.00000000      -0.00000000 </v>
   <v>       0.00000000       0.00000000       0.00000000 </v>
  </varray>
  <varray name="stress" >
   <v>     399.52912549       0.00000000       0.00000000 </v>
   <v>       0.00000000     399.52912549      -0.00000000 </v>
   <v>       0.00000000      -0.00000000     399.52912549 </v>
  </varray>
  <energy>
   <i name="e_fr_energy">    -20.22354477 </i>
   <i name="e_wo_entrp">    -20.22348356 </i>
   <i name="e_0_energy">     -0.00012240 </i>
  </energy>
  <time name="totalsc">   36.59   37.47</time>
  <eigenvalues>
   <array>
    <dimension dim="1">band</dimension>
    <dimension dim="2">kpoint</dimension>
    <dimension dim="3">spin</dimension>
    <field>eigene</field>
    <field>occ</field>
    <set>
     <set comment="spin 1">
      <set comment="kpoint 1">
       <r>  -28.0170    1.0000 </r>
       <r>  -12.0163    1.0000 </r>
       <r>  -12.0163    1.0000 </r>
       <r>  -11.9626    1.0000 </r>
       <r>  -11.9626    1.0000 </r>
       <r>  -11.9626    1.0000 </r>
       <r>   -6.4259    1.0000 </r>
       <r>   -6.4259    1.0000 </r>
       <r>   -6.4259    1.0000 </r>
       <r>   -2.1182    1.0000 </r>
       <r>    6.1177    1.0000 </r>
       <r>    6.1177    1.0000 </r>
       <r>    6.2274    1.0000 </r>
       <r>    6.2274    1.0000 </r>
       <r>    6.2274    1.0000 </r>
       <r>    9.9833    1.0000 </r>
       <r>    9.9833    1.0000 </r>
       <r>    9.9833    1.0000 </r>
       <r>   10.5429    1.0000 </r>
       <r>   11.5868    0.0000 </r>
       <r>   11.5868    0.0000 </r>
       <r>   11.5868    0.0000 </r>
       <r>   12.6872    0.0000 </r>
       <r>   14.0364    0.0000 </r>
      </set>
      <set comment="kpoint 2">
       <r>  -28.0157    1.0000 </r>
       <r>  -12.0185    1.0000 </r>
       <r>  -12.0185    1.0000 </r>
       <r>  -11.9631    1.0000 </r>
       <r>  -11.9622    1.0000 </r>
       <r>  -11.9622    1.0000 </r>
       <r>   -6.4803    1.0000 </r>
       <r>   -6.4177    1.0000 </r>
       <r>   -6.4177    1.0000 </r>
       <r>   -1.9916    1.0000 </r>
       <r>    5.8646    1.0000 </r>
       <r>    5.8646    1.0000 </r>
       <r>    6.0865    1.0000 </r>
       <r>    6.4621    1.0000 </r>
       <r>    6.4621    1.0000 </r>
       <r>    9.2584    1.0000 </r>
       <r>    9.8892    1.0000 </r>
       <r>    9.8892    1.0000 </r>
       <r>   10.9597    1.0000 </r>
       <r>   11.7074    0.0000 </r>
       <r>   11.7074    0.0000 </r>
       <r>   11.8113    0.0000 </r>
       <r>   13.0380    0.0000 </r>
       <r>   14.0417    0.0000 </r>
      </set>
      <set comment="kpoint 3">
       <r>  -28.0121    1.0000 </r>
       <r>  -12.0246    1.0000 </r>
       <r>  -12.0246    1.0000 </r>
       <r>  -11.9648    1.0000 </r>
       <r>  -11.9612    1.0000 </r>
       <r>  -11.9612    1.0000 </r>
       <r>   -6.6162    1.0000 </r>
       <r>   -6.3950    1.0000 </r>
       <r>   -6.3950    1.0000 </r>
       <r>   -1.6530    1.0000 </r>
       <r>    5.6000    1.0000 </r>
       <r>    5.6000    1.0000 </r>
       <r>    5.7137    1.0000 </r>
       <r>    6.6531    1.0000 </r>
       <r>    6.6531    1.0000 </r>
       <r>    8.4206    1.0000 </r>
       <r>    9.7101    1.0000 </r>
       <r>    9.7101    1.0000 </r>
       <r>   10.9424    1.0000 </r>
       <r>   11.9911    0.0000 </r>
       <r>   11.9911    0.0000 </r>
       <r>   12.6542    0.0000 </r>
       <r>   13.7183    0.0000 </r>
       <r>   14.0460    0.0000 </r>
      </set>
      <set comment="kpoint 4">
       <r>  -28.0071    1.0000 </r>
       <r>  -12.0332    1.0000 </r>
       <r>  -12.0332    1.0000 </r>
       <r>  -11.9677    1.0000 </r>
       <r>  -11.9598    1.0000 </r>
       <r>  -11.9598    1.0000 </r>
       <r>   -6.7785    1.0000 </r>
       <r>   -6.3633    1.0000 </r>
       <r>   -6.3633    1.0000 </r>
       <r>   -1.2005    1.0000 </r>
       <r>    5.2318    1.0000 </r>
       <r>    5.4037    1.0000 </r>
       <r>    5.4037    1.0000 </r>
       <r>    6.6891    1.0000 </r>
       <r>    6.6891    1.0000 </r>
       <r>    7.7677    1.0000 </r>
       <r>    9.5921    1.0000 </r>
       <r>    9.5921    1.0000 </r>
       <r>   10.9105    1.0000 </r>
       <r>   12.3342    0.0000 </r>
       <r>   12.3342    0.0000 </r>
       <r>   13.4724    0.0000 </r>
       <r>   14.0273    0.0000 </r>
       <r>   14.0278    0.0000 </r>
      </set>
      <set comment="kpoint 5">
       <r>  -28.0019    1.0000 </r>
       <r>  -12.0422    1.0000 </r>
       <r>  -12.0422    1.0000 </r>
       <r>  -11.9713    1.0000 </r>
       <r>  -11.9582    1.0000 </r>
       <r>  -11.9582    1.0000 </r>
       <r>   -6.9224    1.0000 </r>
       <r>   -6.3297    1.0000 </r>
       <r>   -6.3297    1.0000 </r>
       <r>   -0.7466    1.0000 </r>
       <r>    4.7788    1.0000 </r>
       <r>    5.2923    1.0000 </r>
       <r>    5.2923    1.0000 </r>
       <r>    6.5704    1.0000 </r>
       <r>    6.5704    1.0000 </r>
       <r>    7.3177    1.0000 </r>
       <r>    9.5784    1.0000 </r>
       <r>    9.5784    1.0000 </r>
       <r>   10.9855    1.0000 </r>
       <r>   12.6764    0.0000 </r>
       <r>   12.6764    0.0000 </r>
       <r>   13.9777    0.0000 </r>
       <r>   13.9927    0.0000 </r>
       <r>   13.9928    0.0000 </r>
      </set>
      <set comment="kpoint 6">
       <r>  -27.9975    1.0000 </r>
       <r>  -12.0496    1.0000 </r>
       <r>  -12.0496    1.0000 </r>
       <r>  -11.9747    1.0000 </r>
       <r>  -11.9569    1.0000 </r>
       <r>  -11.9569    1.0000 </r>
       <r>   -7.0244    1.0000 </r>
       <r>   -6.3021    1.0000 </r>
       <r>   -6.3021    1.0000 </r>
       <r>   -0.3924    1.0000 </r>
       <r>    4.4542    1.0000 </r>
       <r>    5.2595    1.0000 </r>
       <r>    5.2595    1.0000 </r>
       <r>    6.3815    1.0000 </r>
       <r>    6.3815    1.0000 </r>
       <r>    7.0476    1.0000 </r>
       <r>    9.6209    1.0000 </r>
       <r>    9.6209    1.0000 </r>
       <r>   11.1654    1.0000 </r>
       <r>   12.9612    0.0000 </r>
       <r>   12.9612    0.0000 </r>
       <r>   13.9581    0.0000 </r>
       <r>   13.9581    0.0000 </r>
       <r>   14.0907    0.0000 </r>
      </set>
      <set comment="kpoint 7">
       <r>  -27.9950    1.0000 </r>
       <r>  -12.0537    1.0000 </r>
       <r>  -12.0537    1.0000 </r>
       <r>  -11.9769    1.0000 </r>
       <r>  -11.9561    1.0000 </r>
       <r>  -11.9561    1.0000 </r>
       <r>   -7.0761    1.0000 </r>
       <r>   -6.2866    1.0000 </r>
       <r>   -6.2866    1.0000 </r>
       <r>   -0.2035    1.0000 </r>
       <r>    4.2943    1.0000 </r>
       <r>    5.2693    1.0000 </r>
       <r>    5.2693    1.0000 </r>
       <r>    6.2392    1.0000 </r>
       <r>    6.2392    1.0000 </r>
       <r>    6.9252    1.0000 </r>
       <r>    9.6583    1.0000 </r>
       <r>    9.6583    1.0000 </r>
       <r>   11.3638    1.0000 </r>
       <r>   13.1259    0.0000 </r>
       <r>   13.1259    0.0000 </r>
       <r>   13.8062    0.0000 </r>
       <r>   13.9342    0.0000 </r>
       <r>   13.9342    0.0000 </r>
      </set>
      <set comment="kpoint 8">
       <r>  -28.0153    1.0000 </r>
       <r>  -12.0225    1.0000 </r>
       <r>  -12.0155    1.0000 </r>
       <r>  -11.9635    1.0000 </r>
       <r>  -11.9620    1.0000 </r>
       <r>  -11.9620    1.0000 </r>
       <r>   -6.4713    1.0000 </r>
       <r>   -6.4284    1.0000 </r>
       <r>   -6.4284    1.0000 </r>
       <r>   -1.9526    1.0000 </r>
       <r>    5.5615    1.0000 </r>
       <r>    6.1347    1.0000 </r>
       <r>    6.2349    1.0000 </r>
       <r>    6.2349    1.0000 </r>
       <r>    6.5190    1.0000 </r>
       <r>    9.2847    1.0000 </r>
       <r>    9.7384    1.0000 </r>
       <r>    9.7384    1.0000 </r>
       <r>   11.2613    1.0000 </r>
       <r>   11.3928    1.0000 </r>
       <r>   11.9185    0.0000 </r>
       <r>   11.9185    0.0000 </r>
       <r>   13.1013    0.0000 </r>
       <r>   13.9897    0.0000 </r>
      </set>
      <set comment="kpoint 9">
       <r>  -28.0125    1.0000 </r>
       <r>  -12.0293    1.0000 </r>
       <r>  -12.0170    1.0000 </r>
       <r>  -11.9649    1.0000 </r>
       <r>  -11.9613    1.0000 </r>
       <r>  -11.9611    1.0000 </r>
       <r>   -6.5721    1.0000 </r>
       <r>   -6.4226    1.0000 </r>
       <r>   -6.4063    1.0000 </r>
       <r>   -1.6952    1.0000 </r>
       <r>    5.2211    1.0000 </r>
       <r>    5.9250    1.0000 </r>
       <r>    6.0374    1.0000 </r>
       <r>    6.4298    1.0000 </r>
       <r>    6.6822    1.0000 </r>
       <r>    8.6832    1.0000 </r>
       <r>    9.5571    1.0000 </r>
       <r>    9.5777    1.0000 </r>
       <r>   11.2906    1.0000 </r>
       <r>   11.5728    0.0000 </r>
       <r>   12.2199    0.0000 </r>
       <r>   12.5190    0.0000 </r>
       <r>   13.5863    0.0000 </r>
       <r>   13.9474    0.0000 </r>
      </set>
      <set comment="kpoint 10">
       <r>  -28.0080    1.0000 </r>
       <r>  -12.0374    1.0000 </r>
       <r>  -12.0227    1.0000 </r>
       <r>  -11.9671    1.0000 </r>
       <r>  -11.9603    1.0000 </r>
       <r>  -11.9596    1.0000 </r>
       <r>   -6.7226    1.0000 </r>
       <r>   -6.4017    1.0000 </r>
       <r>   -6.3712    1.0000 </r>
       <r>   -1.3003    1.0000 </r>
       <r>    4.9262    1.0000 </r>
       <r>    5.6683    1.0000 </r>
       <r>    5.7197    1.0000 </r>
       <r>    6.5171    1.0000 </r>
       <r>    6.7949    1.0000 </r>
       <r>    8.0428    1.0000 </r>
       <r>    9.4273    1.0000 </r>
       <r>    9.4651    1.0000 </r>
       <r>   11.1939    1.0000 </r>
       <r>   11.9595    0.0000 </r>
       <r>   12.5279    0.0000 </r>
       <r>   13.2709    0.0000 </r>
       <r>   13.9142    0.0000 </r>
       <r>   14.0597    0.0000 </r>
      </set>
      <set comment="kpoint 11">
       <r>  -28.0029    1.0000 </r>
       <r>  -12.0448    1.0000 </r>
       <r>  -12.0313    1.0000 </r>
       <r>  -11.9701    1.0000 </r>
       <r>  -11.9591    1.0000 </r>
       <r>  -11.9580    1.0000 </r>
       <r>   -6.8683    1.0000 </r>
       <r>   -6.3706    1.0000 </r>
       <r>   -6.3387    1.0000 </r>
       <r>   -0.8762    1.0000 </r>
       <r>    4.6860    1.0000 </r>
       <r>    5.3460    1.0000 </r>
       <r>    5.5739    1.0000 </r>
       <r>    6.4442    1.0000 </r>
       <r>    6.7658    1.0000 </r>
       <r>    7.5340    1.0000 </r>
       <r>    9.3747    1.0000 </r>
       <r>    9.4868    1.0000 </r>
       <r>   11.1371    1.0000 </r>
       <r>   12.4185    0.0000 </r>
       <r>   12.8119    0.0000 </r>
       <r>   13.7954    0.0000 </r>
       <r>   13.8952    0.0000 </r>
       <r>   14.0759    0.0000 </r>
      </set>
      <set comment="kpoint 12">
       <r>  -27.9982    1.0000 </r>
       <r>  -12.0499    1.0000 </r>
       <r>  -12.0405    1.0000 </r>
       <r>  -11.9733    1.0000 </r>
       <r>  -11.9579    1.0000 </r>
       <r>  -11.9566    1.0000 </r>
       <r>   -6.9798    1.0000 </r>
       <r>   -6.3365    1.0000 </r>
       <r>   -6.3163    1.0000 </r>
       <r>   -0.5246    1.0000 </r>
       <r>    4.5025    1.0000 </r>
       <r>    5.1873    1.0000 </r>
       <r>    5.4723    1.0000 </r>
       <r>    6.3022    1.0000 </r>
       <r>    6.6166    1.0000 </r>
       <r>    7.1872    1.0000 </r>
       <r>    9.4114    1.0000 </r>
       <r>    9.5581    1.0000 </r>
       <r>   11.2002    1.0000 </r>
       <r>   12.8050    0.0000 </r>
       <r>   13.0452    0.0000 </r>
       <r>   13.8871    0.0000 </r>
       <r>   13.8894    0.0000 </r>
       <r>   14.1590    0.0000 </r>
      </set>
      <set comment="kpoint 13">
       <r>  -27.9951    1.0000 </r>
       <r>  -12.0517    1.0000 </r>
       <r>  -12.0484    1.0000 </r>
       <r>  -11.9757    1.0000 </r>
       <r>  -11.9570    1.0000 </r>
       <r>  -11.9558    1.0000 </r>
       <r>   -7.0450    1.0000 </r>
       <r>   -6.3089    1.0000 </r>
       <r>   -6.3068    1.0000 </r>
       <r>   -0.3103    1.0000 </r>
       <r>    4.3944    1.0000 </r>
       <r>    5.1931    1.0000 </r>
       <r>    5.3655    1.0000 </r>
       <r>    6.2293    1.0000 </r>
       <r>    6.4237    1.0000 </r>
       <r>    7.0008    1.0000 </r>
       <r>    9.4716    1.0000 </r>
       <r>    9.6087    1.0000 </r>
       <r>   11.3606    1.0000 </r>
       <r>   12.9979    0.0000 </r>
       <r>   13.1835    0.0000 </r>
       <r>   13.8215    0.0000 </r>
       <r>   13.8882    0.0000 </r>
       <r>   14.0902    0.0000 </r>
      </set>
      <set comment="kpoint 14">
       <r>  -27.9943    1.0000 </r>
       <r>  -12.0532    1.0000 </r>
       <r>  -12.0497    1.0000 </r>
       <r>  -11.9763    1.0000 </r>
       <r>  -11.9567    1.0000 </r>
       <r>  -11.9558    1.0000 </r>
       <r>   -7.0610    1.0000 </r>
       <r>   -6.3176    1.0000 </r>
       <r>   -6.2884    1.0000 </r>
       <r>   -0.2532    1.0000 </r>
       <r>    4.3665    1.0000 </r>
       <r>    5.2312    1.0000 </r>
       <r>    5.2989    1.0000 </r>
       <r>    6.2783    1.0000 </r>
       <r>    6.3027    1.0000 </r>
       <r>    6.9582    1.0000 </r>
       <r>    9.4931    1.0000 </r>
       <r>    9.6123    1.0000 </r>
       <r>   11.4496    0.0372 </r>
       <r>   13.0170    0.0000 </r>
       <r>   13.1766    0.0000 </r>
       <r>   13.8192    0.0000 </r>
       <r>   13.8941    0.0000 </r>
       <r>   14.0099    0.0000 </r>
      </set>
      <set comment="kpoint 15">
       <r>  -27.9960    1.0000 </r>
       <r>  -12.0539    1.0000 </r>
       <r>  -12.0444    1.0000 </r>
       <r>  -11.9749    1.0000 </r>
       <r>  -11.9569    1.0000 </r>
       <r>  -11.9565    1.0000 </r>
       <r>   -7.0280    1.0000 </r>
       <r>   -6.3400    1.0000 </r>
       <r>   -6.2854    1.0000 </r>
       <r>   -0.3558    1.0000 </r>
       <r>    4.4254    1.0000 </r>
       <r>    5.1179    1.0000 </r>
       <r>    5.4330    1.0000 </r>
       <r>    6.2519    1.0000 </r>
       <r>    6.4859    1.0000 </r>
       <r>    7.0507    1.0000 </r>
       <r>    9.4419    1.0000 </r>
       <r>    9.5822    1.0000 </r>
       <r>   11.3382    1.0000 </r>
       <r>   13.0003    0.0000 </r>
       <r>   13.0741    0.0000 </r>
       <r>   13.8426    0.0000 </r>
       <r>   13.9150    0.0000 </r>
       <r>   14.1333    0.0000 </r>
      </set>
      <set comment="kpoint 16">
       <r>  -27.9997    1.0000 </r>
       <r>  -12.0502    1.0000 </r>
       <r>  -12.0369    1.0000 </r>
       <r>  -11.9720    1.0000 </r>
       <r>  -11.9578    1.0000 </r>
       <r>  -11.9578    1.0000 </r>
       <r>   -6.9470    1.0000 </r>
       <r>   -6.3707    1.0000 </r>
       <r>   -6.2987    1.0000 </r>
       <r>   -0.6172    1.0000 </r>
       <r>    4.6017    1.0000 </r>
       <r>    5.0784    1.0000 </r>
       <r>    5.5682    1.0000 </r>
       <r>    6.3455    1.0000 </r>
       <r>    6.6957    1.0000 </r>
       <r>    7.2867    1.0000 </r>
       <r>    9.3257    1.0000 </r>
       <r>    9.5595    1.0000 </r>
       <r>   11.2120    1.0000 </r>
       <r>   12.6875    0.0000 </r>
       <r>   12.9562    0.0000 </r>
       <r>   13.8485    0.0000 </r>
       <r>   13.9437    0.0000 </r>
       <r>   14.1447    0.0000 </r>
      </set>
      <set comment="kpoint 17">
       <r>  -28.0046    1.0000 </r>
       <r>  -12.0431    1.0000 </r>
       <r>  -12.0288    1.0000 </r>
       <r>  -11.9687    1.0000 </r>
       <r>  -11.9593    1.0000 </r>
       <r>  -11.9590    1.0000 </r>
       <r>   -6.8239    1.0000 </r>
       <r>   -6.4022    1.0000 </r>
       <r>   -6.3253    1.0000 </r>
       <r>   -1.0041    1.0000 </r>
       <r>    4.9043    1.0000 </r>
       <r>    5.1386    1.0000 </r>
       <r>    5.7446    1.0000 </r>
       <r>    6.4549    1.0000 </r>
       <r>    6.8388    1.0000 </r>
       <r>    7.6838    1.0000 </r>
       <r>    9.2074    1.0000 </r>
       <r>    9.6000    1.0000 </r>
       <r>   11.1846    1.0000 </r>
       <r>   12.3111    0.0000 </r>
       <r>   12.6510    0.0000 </r>
       <r>   13.6693    0.0000 </r>
       <r>   13.9718    0.0000 </r>
       <r>   14.0115    0.0000 </r>
      </set>
      <set comment="kpoint 18">
       <r>  -28.0097    1.0000 </r>
       <r>  -12.0341    1.0000 </r>
       <r>  -12.0220    1.0000 </r>
       <r>  -11.9659    1.0000 </r>
       <r>  -11.9608    1.0000 </r>
       <r>  -11.9604    1.0000 </r>
       <r>   -6.6770    1.0000 </r>
       <r>   -6.4260    1.0000 </r>
       <r>   -6.3593    1.0000 </r>
       <r>   -1.4341    1.0000 </r>
       <r>    5.2791    1.0000 </r>
       <r>    5.3023    1.0000 </r>
       <r>    5.9949    1.0000 </r>
       <r>    6.4502    1.0000 </r>
       <r>    6.8420    1.0000 </r>
       <r>    8.2378    1.0000 </r>
       <r>    9.2014    1.0000 </r>
       <r>    9.7302    1.0000 </r>
       <r>   11.2518    1.0000 </r>
       <r>   11.9539    0.0000 </r>
       <r>   12.1917    0.0000 </r>
       <r>   13.1199    0.0000 </r>
       <r>   13.9437    0.0000 </r>
       <r>   13.9964    0.0000 </r>
      </set>
      <set comment="kpoint 19">
       <r>  -28.0136    1.0000 </r>
       <r>  -12.0252    1.0000 </r>
       <r>  -12.0183    1.0000 </r>
       <r>  -11.9641    1.0000 </r>
       <r>  -11.9618    1.0000 </r>
       <r>  -11.9615    1.0000 </r>
       <r>   -6.5461    1.0000 </r>
       <r>   -6.4320    1.0000 </r>
       <r>   -6.3927    1.0000 </r>
       <r>   -1.7981    1.0000 </r>
       <r>    5.5554    1.0000 </r>
       <r>    5.6499    1.0000 </r>
       <r>    6.2417    1.0000 </r>
       <r>    6.3091    1.0000 </r>
       <r>    6.6989    1.0000 </r>
       <r>    8.8390    1.0000 </r>
       <r>    9.4540    1.0000 </r>
       <r>    9.8770    1.0000 </r>
       <r>   11.2711    1.0000 </r>
       <r>   11.7156    0.0000 </r>
       <r>   11.7182    0.0000 </r>
       <r>   12.4462    0.0000 </r>
       <r>   13.4274    0.0000 </r>
       <r>   14.0233    0.0000 </r>
      </set>
      <set comment="kpoint 20">
       <r>  -28.0107    1.0000 </r>
       <r>  -12.0350    1.0000 </r>
       <r>  -12.0133    1.0000 </r>
       <r>  -11.9664    1.0000 </r>
       <r>  -11.9603    1.0000 </r>
       <r>  -11.9603    1.0000 </r>
       <r>   -6.5779    1.0000 </r>
       <r>   -6.4358    1.0000 </r>
       <r>   -6.4358    1.0000 </r>
       <r>   -1.5516    1.0000 </r>
       <r>    4.8518    1.0000 </r>
       <r>    6.1828    1.0000 </r>
       <r>    6.2287    1.0000 </r>
       <r>    6.2287    1.0000 </r>
       <r>    6.5713    1.0000 </r>
       <r>    8.6793    1.0000 </r>
       <r>    9.3929    1.0000 </r>
       <r>    9.3929    1.0000 </r>
       <r>   11.0004    1.0000 </r>
       <r>   12.1465    0.0000 </r>
       <r>   12.5083    0.0000 </r>
       <r>   12.5083    0.0000 </r>
       <r>   13.7368    0.0000 </r>
       <r>   13.8545    0.0000 </r>
      </set>
      <set comment="kpoint 21">
       <r>  -28.0070    1.0000 </r>
       <r>  -12.0402    1.0000 </r>
       <r>  -12.0144    1.0000 </r>
       <r>  -11.9684    1.0000 </r>
       <r>  -11.9593    1.0000 </r>
       <r>  -11.9589    1.0000 </r>
       <r>   -6.6791    1.0000 </r>
       <r>   -6.4318    1.0000 </r>
       <r>   -6.4166    1.0000 </r>
       <r>   -1.2787    1.0000 </r>
       <r>    4.5844    1.0000 </r>
       <r>    5.9821    1.0000 </r>
       <r>    6.0149    1.0000 </r>
       <r>    6.3493    1.0000 </r>
       <r>    6.6575    1.0000 </r>
       <r>    8.3506    1.0000 </r>
       <r>    9.2174    1.0000 </r>
       <r>    9.3250    1.0000 </r>
       <r>   11.1104    1.0000 </r>
       <r>   12.1712    0.0000 </r>
       <r>   12.7740    0.0000 </r>
       <r>   13.0962    0.0000 </r>
       <r>   13.7806    0.0000 </r>
       <r>   14.0319    0.0000 </r>
      </set>
      <set comment="kpoint 22">
       <r>  -28.0025    1.0000 </r>
       <r>  -12.0439    1.0000 </r>
       <r>  -12.0200    1.0000 </r>
       <r>  -11.9705    1.0000 </r>
       <r>  -11.9586    1.0000 </r>
       <r>  -11.9572    1.0000 </r>
       <r>   -6.8056    1.0000 </r>
       <r>   -6.4117    1.0000 </r>
       <r>   -6.3873    1.0000 </r>
       <r>   -0.9680    1.0000 </r>
       <r>    4.4604    1.0000 </r>
       <r>    5.6148    1.0000 </r>
       <r>    5.8563    1.0000 </r>
       <r>    6.3388    1.0000 </r>
       <r>    6.7455    1.0000 </r>
       <r>    7.9194    1.0000 </r>
       <r>    9.0738    1.0000 </r>
       <r>    9.3739    1.0000 </r>
       <r>   11.2662    1.0000 </r>
       <r>   12.3566    0.0000 </r>
       <r>   12.9980    0.0000 </r>
       <r>   13.6189    0.0000 </r>
       <r>   13.7482    0.0000 </r>
       <r>   14.1260    0.0000 </r>
      </set>
      <set comment="kpoint 23">
       <r>  -27.9980    1.0000 </r>
       <r>  -12.0451    1.0000 </r>
       <r>  -12.0288    1.0000 </r>
       <r>  -11.9725    1.0000 </r>
       <r>  -11.9583    1.0000 </r>
       <r>  -11.9557    1.0000 </r>
       <r>   -6.9110    1.0000 </r>
       <r>   -6.3801    1.0000 </r>
       <r>   -6.3712    1.0000 </r>
       <r>   -0.7046    1.0000 </r>
       <r>    4.4833    1.0000 </r>
       <r>    5.3350    1.0000 </r>
       <r>    5.6956    1.0000 </r>
       <r>    6.2707    1.0000 </r>
       <r>    6.7287    1.0000 </r>
       <r>    7.5137    1.0000 </r>
       <r>    9.0498    1.0000 </r>
       <r>    9.4653    1.0000 </r>
       <r>   11.2924    1.0000 </r>
       <r>   12.7321    0.0000 </r>
       <r>   13.1795    0.0000 </r>
       <r>   13.7650    0.0000 </r>
       <r>   13.8003    0.0000 </r>
       <r>   14.1985    0.0000 </r>
      </set>
      <set comment="kpoint 24">
       <r>  -27.9947    1.0000 </r>
       <r>  -12.0437    1.0000 </r>
       <r>  -12.0385    1.0000 </r>
       <r>  -11.9740    1.0000 </r>
       <r>  -11.9583    1.0000 </r>
       <r>  -11.9549    1.0000 </r>
       <r>   -6.9779    1.0000 </r>
       <r>   -6.3738    1.0000 </r>
       <r>   -6.3442    1.0000 </r>
       <r>   -0.5310    1.0000 </r>
       <r>    4.5848    1.0000 </r>
       <r>    5.2115    1.0000 </r>
       <r>    5.4879    1.0000 </r>
       <r>    6.2787    1.0000 </r>
       <r>    6.6165    1.0000 </r>
       <r>    7.2293    1.0000 </r>
       <r>    9.0895    1.0000 </r>
       <r>    9.5178    1.0000 </r>
       <r>   11.3761    1.0000 </r>
       <r>   12.9038    0.0000 </r>
       <r>   13.2986    0.0000 </r>
       <r>   13.8009    0.0000 </r>
       <r>   13.8030    0.0000 </r>
       <r>   14.2146    0.0000 </r>
      </set>
      <set comment="kpoint 25">
       <r>  -27.9932    1.0000 </r>
       <r>  -12.0470    1.0000 </r>
       <r>  -12.0402    1.0000 </r>
       <r>  -11.9743    1.0000 </r>
       <r>  -11.9584    1.0000 </r>
       <r>  -11.9548    1.0000 </r>
       <r>   -7.0023    1.0000 </r>
       <r>   -6.3932    1.0000 </r>
       <r>   -6.3119    1.0000 </r>
       <r>   -0.4471    1.0000 </r>
       <r>    4.6374    1.0000 </r>
       <r>    5.2595    1.0000 </r>
       <r>    5.2632    1.0000 </r>
       <r>    6.3982    1.0000 </r>
       <r>    6.4617    1.0000 </r>
       <r>    7.1207    1.0000 </r>
       <r>    9.1100    1.0000 </r>
       <r>    9.5085    1.0000 </r>
       <r>   11.5266    0.0000 </r>
       <r>   12.7912    0.0000 </r>
       <r>   13.3097    0.0000 </r>
       <r>   13.8303    0.0000 </r>
       <r>   13.8903    0.0000 </r>
       <r>   14.1361    0.0000 </r>
      </set>
      <set comment="kpoint 26">
       <r>  -27.9940    1.0000 </r>
       <r>  -12.0525    1.0000 </r>
       <r>  -12.0354    1.0000 </r>
       <r>  -11.9732    1.0000 </r>
       <r>  -11.9586    1.0000 </r>
       <r>  -11.9556    1.0000 </r>
       <r>   -6.9862    1.0000 </r>
       <r>   -6.4224    1.0000 </r>
       <r>   -6.2905    1.0000 </r>
       <r>   -0.4487    1.0000 </r>
       <r>    4.6036    1.0000 </r>
       <r>    5.0709    1.0000 </r>
       <r>    5.4333    1.0000 </r>
       <r>    6.3390    1.0000 </r>
       <r>    6.5905    1.0000 </r>
       <r>    7.1948    1.0000 </r>
       <r>    9.0458    1.0000 </r>
       <r>    9.4651    1.0000 </r>
       <r>   11.5779    0.0000 </r>
       <r>   12.8417    0.0000 </r>
       <r>   13.1618    0.0000 </r>
       <r>   13.8521    0.0000 </r>
       <r>   13.9080    0.0000 </r>
       <r>   14.1579    0.0000 </r>
      </set>
      <set comment="kpoint 27">
       <r>  -27.9968    1.0000 </r>
       <r>  -12.0537    1.0000 </r>
       <r>  -12.0301    1.0000 </r>
       <r>  -11.9711    1.0000 </r>
       <r>  -11.9588    1.0000 </r>
       <r>  -11.9569    1.0000 </r>
       <r>   -6.9334    1.0000 </r>
       <r>   -6.4510    1.0000 </r>
       <r>   -6.2850    1.0000 </r>
       <r>   -0.5560    1.0000 </r>
       <r>    4.5734    1.0000 </r>
       <r>    4.9655    1.0000 </r>
       <r>    5.6544    1.0000 </r>
       <r>    6.2906    1.0000 </r>
       <r>    6.7936    1.0000 </r>
       <r>    7.4241    1.0000 </r>
       <r>    8.8842    1.0000 </r>
       <r>    9.4401    1.0000 </r>
       <r>   11.5532    0.0000 </r>
       <r>   12.8646    0.0000 </r>
       <r>   12.9573    0.0000 </r>
       <r>   13.8499    0.0000 </r>
       <r>   13.8805    0.0000 </r>
       <r>   14.2222    0.0000 </r>
      </set>
      <set comment="kpoint 28">
       <r>  -28.0010    1.0000 </r>
       <r>  -12.0505    1.0000 </r>
       <r>  -12.0254    1.0000 </r>
       <r>  -11.9690    1.0000 </r>
       <r>  -11.9592    1.0000 </r>
       <r>  -11.9584    1.0000 </r>
       <r>   -6.8518    1.0000 </r>
       <r>   -6.4672    1.0000 </r>
       <r>   -6.2970    1.0000 </r>
       <r>   -0.7881    1.0000 </r>
       <r>    4.6626    1.0000 </r>
       <r>    4.9669    1.0000 </r>
       <r>    5.8959    1.0000 </r>
       <r>    6.2907    1.0000 </r>
       <r>    6.9322    1.0000 </r>
       <r>    7.7745    1.0000 </r>
       <r>    8.6903    1.0000 </r>
       <r>    9.4870    1.0000 </r>
       <r>   11.5582    0.0000 </r>
       <r>   12.4952    0.0000 </r>
       <r>   12.8295    0.0000 </r>
       <r>   13.7762    0.0000 </r>
       <r>   13.9137    0.0000 </r>
       <r>   14.1591    0.0000 </r>
      </set>
      <set comment="kpoint 29">
       <r>  -28.0056    1.0000 </r>
       <r>  -12.0435    1.0000 </r>
       <r>  -12.0224    1.0000 </r>
       <r>  -11.9673    1.0000 </r>
       <r>  -11.9598    1.0000 </r>
       <r>  -11.9596    1.0000 </r>
       <r>   -6.7585    1.0000 </r>
       <r>   -6.4595    1.0000 </r>
       <r>   -6.3238    1.0000 </r>
       <r>   -1.1111    1.0000 </r>
       <r>    4.9143    1.0000 </r>
       <r>    5.0822    1.0000 </r>
       <r>    6.1283    1.0000 </r>
       <r>    6.2614    1.0000 </r>
       <r>    6.9488    1.0000 </r>
       <r>    8.1162    1.0000 </r>
       <r>    8.6983    1.0000 </r>
       <r>    9.6135    1.0000 </r>
       <r>   11.5294    0.0000 </r>
       <r>   12.1530    0.0000 </r>
       <r>   12.4801    0.0000 </r>
       <r>   13.5624    0.0000 </r>
       <r>   13.9515    0.0000 </r>
       <r>   13.9879    0.0000 </r>
      </set>
      <set comment="kpoint 30">
       <r>  -28.0044    1.0000 </r>
       <r>  -12.0410    1.0000 </r>
       <r>  -12.0101    1.0000 </r>
       <r>  -11.9707    1.0000 </r>
       <r>  -11.9576    1.0000 </r>
       <r>  -11.9576    1.0000 </r>
       <r>   -6.6934    1.0000 </r>
       <r>   -6.4467    1.0000 </r>
       <r>   -6.4467    1.0000 </r>
       <r>   -1.1663    1.0000 </r>
       <r>    4.3905    1.0000 </r>
       <r>    6.1519    1.0000 </r>
       <r>    6.1519    1.0000 </r>
       <r>    6.2531    1.0000 </r>
       <r>    6.3868    1.0000 </r>
       <r>    8.3635    1.0000 </r>
       <r>    9.2771    1.0000 </r>
       <r>    9.2771    1.0000 </r>
       <r>   10.8422    1.0000 </r>
       <r>   12.6775    0.0000 </r>
       <r>   12.9906    0.0000 </r>
       <r>   12.9906    0.0000 </r>
       <r>   13.6558    0.0000 </r>
       <r>   14.1043    0.0000 </r>
      </set>
      <set comment="kpoint 31">
       <r>  -28.0007    1.0000 </r>
       <r>  -12.0393    1.0000 </r>
       <r>  -12.0111    1.0000 </r>
       <r>  -11.9729    1.0000 </r>
       <r>  -11.9565    1.0000 </r>
       <r>  -11.9560    1.0000 </r>
       <r>   -6.7692    1.0000 </r>
       <r>   -6.4434    1.0000 </r>
       <r>   -6.4392    1.0000 </r>
       <r>   -1.0228    1.0000 </r>
       <r>    4.3877    1.0000 </r>
       <r>    5.8485    1.0000 </r>
       <r>    6.0233    1.0000 </r>
       <r>    6.2959    1.0000 </r>
       <r>    6.4688    1.0000 </r>
       <r>    8.1781    1.0000 </r>
       <r>    9.1500    1.0000 </r>
       <r>    9.3458    1.0000 </r>
       <r>   11.0177    1.0000 </r>
       <r>   12.6643    0.0000 </r>
       <r>   13.1602    0.0000 </r>
       <r>   13.4078    0.0000 </r>
       <r>   13.5828    0.0000 </r>
       <r>   14.1790    0.0000 </r>
      </set>
      <set comment="kpoint 32">
       <r>  -27.9969    1.0000 </r>
       <r>  -12.0358    1.0000 </r>
       <r>  -12.0170    1.0000 </r>
       <r>  -11.9742    1.0000 </r>
       <r>  -11.9565    1.0000 </r>
       <r>  -11.9545    1.0000 </r>
       <r>   -6.8489    1.0000 </r>
       <r>   -6.4342    1.0000 </r>
       <r>   -6.4228    1.0000 </r>
       <r>   -0.8969    1.0000 </r>
       <r>    4.5649    1.0000 </r>
       <r>    5.5226    1.0000 </r>
       <r>    5.8396    1.0000 </r>
       <r>    6.3059    1.0000 </r>
       <r>    6.5808    1.0000 </r>
       <r>    7.8801    1.0000 </r>
       <r>    8.9551    1.0000 </r>
       <r>    9.4493    1.0000 </r>
       <r>   11.2391    1.0000 </r>
       <r>   12.7791    0.0000 </r>
       <r>   13.2936    0.0000 </r>
       <r>   13.6061    0.0000 </r>
       <r>   13.6961    0.0000 </r>
       <r>   14.2280    0.0000 </r>
      </set>
      <set comment="kpoint 33">
       <r>  -27.9937    1.0000 </r>
       <r>  -12.0313    1.0000 </r>
       <r>  -12.0262    1.0000 </r>
       <r>  -11.9744    1.0000 </r>
       <r>  -11.9575    1.0000 </r>
       <r>  -11.9536    1.0000 </r>
       <r>   -6.9004    1.0000 </r>
       <r>   -6.4511    1.0000 </r>
       <r>   -6.3897    1.0000 </r>
       <r>   -0.8009    1.0000 </r>
       <r>    4.8298    1.0000 </r>
       <r>    5.3326    1.0000 </r>
       <r>    5.6000    1.0000 </r>
       <r>    6.3622    1.0000 </r>
       <r>    6.6172    1.0000 </r>
       <r>    7.5602    1.0000 </r>
       <r>    8.8409    1.0000 </r>
       <r>    9.4897    1.0000 </r>
       <r>   11.3432    1.0000 </r>
       <r>   12.8954    0.0000 </r>
       <r>   13.3949    0.0000 </r>
       <r>   13.7026    0.0000 </r>
       <r>   13.7571    0.0000 </r>
       <r>   14.2388    0.0000 </r>
      </set>
      <set comment="kpoint 34">
       <r>  -27.9920    1.0000 </r>
       <r>  -12.0366    1.0000 </r>
       <r>  -12.0271    1.0000 </r>
       <r>  -11.9731    1.0000 </r>
       <r>  -11.9592    1.0000 </r>
       <r>  -11.9535    1.0000 </r>
       <r>   -6.9172    1.0000 </r>
       <r>   -6.4877    1.0000 </r>
       <r>   -6.3512    1.0000 </r>
       <r>   -0.7206    1.0000 </r>
       <r>    5.0074    1.0000 </r>
       <r>    5.3029    1.0000 </r>
       <r>    5.3422    1.0000 </r>
       <r>    6.4886    1.0000 </r>
       <r>    6.5603    1.0000 </r>
       <r>    7.3717    1.0000 </r>
       <r>    8.7636    1.0000 </r>
       <r>    9.4462    1.0000 </r>
       <r>   11.4917    0.0000 </r>
       <r>   12.7374    0.0000 </r>
       <r>   13.4397    0.0000 </r>
       <r>   13.7839    0.0000 </r>
       <r>   13.8498    0.0000 </r>
       <r>   14.2029    0.0000 </r>
      </set>
      <set comment="kpoint 35">
       <r>  -27.9920    1.0000 </r>
       <r>  -12.0458    1.0000 </r>
       <r>  -12.0243    1.0000 </r>
       <r>  -11.9707    1.0000 </r>
       <r>  -11.9610    1.0000 </r>
       <r>  -11.9542    1.0000 </r>
       <r>   -6.9065    1.0000 </r>
       <r>   -6.5283    1.0000 </r>
       <r>   -6.3159    1.0000 </r>
       <r>   -0.6474    1.0000 </r>
       <r>    4.9853    1.0000 </r>
       <r>    5.1164    1.0000 </r>
       <r>    5.3692    1.0000 </r>
       <r>    6.4530    1.0000 </r>
       <r>    6.6611    1.0000 </r>
       <r>    7.4193    1.0000 </r>
       <r>    8.6573    1.0000 </r>
       <r>    9.3667    1.0000 </r>
       <r>   11.6967    0.0000 </r>
       <r>   12.6029    0.0000 </r>
       <r>   13.3673    0.0000 </r>
       <r>   13.8102    0.0000 </r>
       <r>   13.9318    0.0000 </r>
       <r>   14.1711    0.0000 </r>
      </set>
      <set comment="kpoint 36">
       <r>  -27.9939    1.0000 </r>
       <r>  -12.0520    1.0000 </r>
       <r>  -12.0232    1.0000 </r>
       <r>  -11.9687    1.0000 </r>
       <r>  -11.9616    1.0000 </r>
       <r>  -11.9555    1.0000 </r>
       <r>   -6.8847    1.0000 </r>
       <r>   -6.5479    1.0000 </r>
       <r>   -6.2918    1.0000 </r>
       <r>   -0.6045    1.0000 </r>
       <r>    4.7926    1.0000 </r>
       <r>    4.9625    1.0000 </r>
       <r>    5.5224    1.0000 </r>
       <r>    6.3694    1.0000 </r>
       <r>    6.8298    1.0000 </r>
       <r>    7.6433    1.0000 </r>
       <r>    8.4909    1.0000 </r>
       <r>    9.3207    1.0000 </r>
       <r>   11.8136    0.0000 </r>
       <r>   12.6685    0.0000 </r>
       <r>   13.1339    0.0000 </r>
       <r>   13.8316    0.0000 </r>
       <r>   13.9676    0.0000 </r>
       <r>   14.1851    0.0000 </r>
      </set>
      <set comment="kpoint 37">
       <r>  -27.9971    1.0000 </r>
       <r>  -12.0536    1.0000 </r>
       <r>  -12.0235    1.0000 </r>
       <r>  -11.9686    1.0000 </r>
       <r>  -11.9604    1.0000 </r>
       <r>  -11.9570    1.0000 </r>
       <r>   -6.8675    1.0000 </r>
       <r>   -6.5255    1.0000 </r>
       <r>   -6.2849    1.0000 </r>
       <r>   -0.6417    1.0000 </r>
       <r>    4.6306    1.0000 </r>
       <r>    4.9079    1.0000 </r>
       <r>    5.7357    1.0000 </r>
       <r>    6.3131    1.0000 </r>
       <r>    6.9329    1.0000 </r>
       <r>    7.8568    1.0000 </r>
       <r>    8.3857    1.0000 </r>
       <r>    9.3628    1.0000 </r>
       <r>   11.7767    0.0000 </r>
       <r>   12.7822    0.0000 </r>
       <r>   12.8069    0.0000 </r>
       <r>   13.8674    0.0000 </r>
       <r>   13.9063    0.0000 </r>
       <r>   14.2546    0.0000 </r>
      </set>
      <set comment="kpoint 38">
       <r>  -27.9981    1.0000 </r>
       <r>  -12.0322    1.0000 </r>
       <r>  -12.0068    1.0000 </r>
       <r>  -11.9754    1.0000 </r>
       <r>  -11.9545    1.0000 </r>
       <r>  -11.9545    1.0000 </r>
       <r>   -6.7867    1.0000 </r>
       <r>   -6.4589    1.0000 </r>
       <r>   -6.4589    1.0000 </r>
       <r>   -1.0560    1.0000 </r>
       <r>    4.5161    1.0000 </r>
       <r>    6.0004    1.0000 </r>
       <r>    6.0004    1.0000 </r>
       <r>    6.1133    1.0000 </r>
       <r>    6.3311    1.0000 </r>
       <r>    8.1302    1.0000 </r>
       <r>    9.4389    1.0000 </r>
       <r>    9.4389    1.0000 </r>
       <r>   10.8406    1.0000 </r>
       <r>   12.9915    0.0000 </r>
       <r>   13.2834    0.0000 </r>
       <r>   13.2834    0.0000 </r>
       <r>   13.4389    0.0000 </r>
       <r>   14.2326    0.0000 </r>
      </set>
      <set comment="kpoint 39">
       <r>  -27.9951    1.0000 </r>
       <r>  -12.0241    1.0000 </r>
       <r>  -12.0081    1.0000 </r>
       <r>  -11.9771    1.0000 </r>
       <r>  -11.9537    1.0000 </r>
       <r>  -11.9531    1.0000 </r>
       <r>   -6.8297    1.0000 </r>
       <r>   -6.4658    1.0000 </r>
       <r>   -6.4549    1.0000 </r>
       <r>   -1.0718    1.0000 </r>
       <r>    4.8138    1.0000 </r>
       <r>    5.6928    1.0000 </r>
       <r>    5.8768    1.0000 </r>
       <r>    6.2374    1.0000 </r>
       <r>    6.3652    1.0000 </r>
       <r>    7.9374    1.0000 </r>
       <r>    9.3591    1.0000 </r>
       <r>    9.5681    1.0000 </r>
       <r>   11.0372    1.0000 </r>
       <r>   12.9882    0.0000 </r>
       <r>   13.3591    0.0000 </r>
       <r>   13.4263    0.0000 </r>
       <r>   13.5348    0.0000 </r>
       <r>   14.2625    0.0000 </r>
      </set>
      <set comment="kpoint 40">
       <r>  -27.9925    1.0000 </r>
       <r>  -12.0170    1.0000 </r>
       <r>  -12.0144    1.0000 </r>
       <r>  -11.9772    1.0000 </r>
       <r>  -11.9545    1.0000 </r>
       <r>  -11.9521    1.0000 </r>
       <r>   -6.8551    1.0000 </r>
       <r>   -6.4951    1.0000 </r>
       <r>   -6.4326    1.0000 </r>
       <r>   -1.0579    1.0000 </r>
       <r>    5.1345    1.0000 </r>
       <r>    5.5117    1.0000 </r>
       <r>    5.6856    1.0000 </r>
       <r>    6.3950    1.0000 </r>
       <r>    6.4245    1.0000 </r>
       <r>    7.6628    1.0000 </r>
       <r>    9.0854    1.0000 </r>
       <r>    9.6036    1.0000 </r>
       <r>   11.2336    1.0000 </r>
       <r>   13.0007    0.0000 </r>
       <r>   13.4223    0.0000 </r>
       <r>   13.5707    0.0000 </r>
       <r>   13.6717    0.0000 </r>
       <r>   14.2345    0.0000 </r>
      </set>
      <set comment="kpoint 41">
       <r>  -27.9909    1.0000 </r>
       <r>  -12.0243    1.0000 </r>
       <r>  -12.0130    1.0000 </r>
       <r>  -11.9753    1.0000 </r>
       <r>  -11.9570    1.0000 </r>
       <r>  -11.9520    1.0000 </r>
       <r>   -6.8466    1.0000 </r>
       <r>   -6.5546    1.0000 </r>
       <r>   -6.3968    1.0000 </r>
       <r>   -0.9970    1.0000 </r>
       <r>    5.1828    1.0000 </r>
       <r>    5.4576    1.0000 </r>
       <r>    5.6534    1.0000 </r>
       <r>    6.5020    1.0000 </r>
       <r>    6.5311    1.0000 </r>
       <r>    7.4239    1.0000 </r>
       <r>    8.7974    1.0000 </r>
       <r>    9.5150    1.0000 </r>
       <r>   11.3642    1.0000 </r>
       <r>   12.8670    0.0000 </r>
       <r>   13.4851    0.0000 </r>
       <r>   13.7409    0.0000 </r>
       <r>   13.7466    0.0000 </r>
       <r>   14.2048    0.0000 </r>
      </set>
      <set comment="kpoint 42">
       <r>  -27.9906    1.0000 </r>
       <r>  -12.0354    1.0000 </r>
       <r>  -12.0133    1.0000 </r>
       <r>  -11.9712    1.0000 </r>
       <r>  -11.9606    1.0000 </r>
       <r>  -11.9527    1.0000 </r>
       <r>   -6.8157    1.0000 </r>
       <r>   -6.6225    1.0000 </r>
       <r>   -6.3553    1.0000 </r>
       <r>   -0.8828    1.0000 </r>
       <r>    5.1865    1.0000 </r>
       <r>    5.2359    1.0000 </r>
       <r>    5.6359    1.0000 </r>
       <r>    6.4947    1.0000 </r>
       <r>    6.6653    1.0000 </r>
       <r>    7.4471    1.0000 </r>
       <r>    8.5417    1.0000 </r>
       <r>    9.3797    1.0000 </r>
       <r>   11.5672    0.0000 </r>
       <r>   12.6665    0.0000 </r>
       <r>   13.4982    0.0000 </r>
       <r>   13.8096    0.0000 </r>
       <r>   13.8159    0.0000 </r>
       <r>   14.2031    0.0000 </r>
      </set>
      <set comment="kpoint 43">
       <r>  -27.9917    1.0000 </r>
       <r>  -12.0454    1.0000 </r>
       <r>  -12.0171    1.0000 </r>
       <r>  -11.9669    1.0000 </r>
       <r>  -11.9641    1.0000 </r>
       <r>  -11.9540    1.0000 </r>
       <r>   -6.8243    1.0000 </r>
       <r>   -6.6266    1.0000 </r>
       <r>   -6.3174    1.0000 </r>
       <r>   -0.7350    1.0000 </r>
       <r>    5.0601    1.0000 </r>
       <r>    5.1304    1.0000 </r>
       <r>    5.4329    1.0000 </r>
       <r>    6.4383    1.0000 </r>
       <r>    6.7813    1.0000 </r>
       <r>    7.6578    1.0000 </r>
       <r>    8.3683    1.0000 </r>
       <r>    9.2950    1.0000 </r>
       <r>   11.8050    0.0000 </r>
       <r>   12.5472    0.0000 </r>
       <r>   13.3838    0.0000 </r>
       <r>   13.8084    0.0000 </r>
       <r>   13.9070    0.0000 </r>
       <r>   14.1777    0.0000 </r>
      </set>
      <set comment="kpoint 44">
       <r>  -27.9931    1.0000 </r>
       <r>  -12.0127    1.0000 </r>
       <r>  -12.0040    1.0000 </r>
       <r>  -11.9794    1.0000 </r>
       <r>  -11.9517    1.0000 </r>
       <r>  -11.9517    1.0000 </r>
       <r>   -6.8487    1.0000 </r>
       <r>   -6.4694    1.0000 </r>
       <r>   -6.4694    1.0000 </r>
       <r>   -1.1993    1.0000 </r>
       <r>    5.1982    1.0000 </r>
       <r>    5.8413    1.0000 </r>
       <r>    5.8413    1.0000 </r>
       <r>    5.8926    1.0000 </r>
       <r>    6.3988    1.0000 </r>
       <r>    7.7646    1.0000 </r>
       <r>    9.7532    1.0000 </r>
       <r>    9.7532    1.0000 </r>
       <r>   10.9438    1.0000 </r>
       <r>   13.2026    0.0000 </r>
       <r>   13.2559    0.0000 </r>
       <r>   13.4394    0.0000 </r>
       <r>   13.4394    0.0000 </r>
       <r>   14.2387    0.0000 </r>
      </set>
      <set comment="kpoint 45">
       <r>  -27.9913    1.0000 </r>
       <r>  -12.0058    1.0000 </r>
       <r>  -12.0044    1.0000 </r>
       <r>  -11.9801    1.0000 </r>
       <r>  -11.9515    1.0000 </r>
       <r>  -11.9509    1.0000 </r>
       <r>   -6.8620    1.0000 </r>
       <r>   -6.4877    1.0000 </r>
       <r>   -6.4634    1.0000 </r>
       <r>   -1.2530    1.0000 </r>
       <r>    5.4448    1.0000 </r>
       <r>    5.7390    1.0000 </r>
       <r>    5.7835    1.0000 </r>
       <r>    6.0607    1.0000 </r>
       <r>    6.4384    1.0000 </r>
       <r>    7.4800    1.0000 </r>
       <r>    9.6586    1.0000 </r>
       <r>    9.8326    1.0000 </r>
       <r>   11.0934    1.0000 </r>
       <r>   13.1979    0.0000 </r>
       <r>   13.2861    0.0000 </r>
       <r>   13.5054    0.0000 </r>
       <r>   13.5680    0.0000 </r>
       <r>   14.1553    0.0000 </r>
      </set>
      <set comment="kpoint 46">
       <r>  -27.9901    1.0000 </r>
       <r>  -12.0129    1.0000 </r>
       <r>  -12.0014    1.0000 </r>
       <r>  -11.9787    1.0000 </r>
       <r>  -11.9535    1.0000 </r>
       <r>  -11.9507    1.0000 </r>
       <r>   -6.8436    1.0000 </r>
       <r>   -6.5428    1.0000 </r>
       <r>   -6.4383    1.0000 </r>
       <r>   -1.2162    1.0000 </r>
       <r>    5.2942    1.0000 </r>
       <r>    5.5814    1.0000 </r>
       <r>    6.1018    1.0000 </r>
       <r>    6.3024    1.0000 </r>
       <r>    6.5128    1.0000 </r>
       <r>    7.1855    1.0000 </r>
       <r>    9.2694    1.0000 </r>
       <r>    9.7222    1.0000 </r>
       <r>   11.2185    1.0000 </r>
       <r>   13.0851    0.0000 </r>
       <r>   13.4328    0.0000 </r>
       <r>   13.6382    0.0000 </r>
       <r>   13.6431    0.0000 </r>
       <r>   14.1545    0.0000 </r>
      </set>
      <set comment="kpoint 47">
       <r>  -27.9899    1.0000 </r>
       <r>  -12.0236    1.0000 </r>
       <r>  -12.0048    1.0000 </r>
       <r>  -11.9752    1.0000 </r>
       <r>  -11.9570    1.0000 </r>
       <r>  -11.9514    1.0000 </r>
       <r>   -6.8001    1.0000 </r>
       <r>   -6.6193    1.0000 </r>
       <r>   -6.3994    1.0000 </r>
       <r>   -1.0868    1.0000 </r>
       <r>    5.2068    1.0000 </r>
       <r>    5.4017    1.0000 </r>
       <r>    6.0625    1.0000 </r>
       <r>    6.4652    1.0000 </r>
       <r>    6.6032    1.0000 </r>
       <r>    7.1986    1.0000 </r>
       <r>    8.8242    1.0000 </r>
       <r>    9.5236    1.0000 </r>
       <r>   11.3632    1.0000 </r>
       <r>   12.8771    0.0000 </r>
       <r>   13.5032    0.0000 </r>
       <r>   13.7018    0.0000 </r>
       <r>   13.7997    0.0000 </r>
       <r>   14.1815    0.0000 </r>
      </set>
      <set comment="kpoint 48">
       <r>  -27.9904    1.0000 </r>
       <r>  -12.0025    1.0000 </r>
       <r>  -11.9965    1.0000 </r>
       <r>  -11.9816    1.0000 </r>
       <r>  -11.9501    1.0000 </r>
       <r>  -11.9501    1.0000 </r>
       <r>   -6.8792    1.0000 </r>
       <r>   -6.4756    1.0000 </r>
       <r>   -6.4756    1.0000 </r>
       <r>   -1.3529    1.0000 </r>
       <r>    5.6892    1.0000 </r>
       <r>    5.7442    1.0000 </r>
       <r>    5.7442    1.0000 </r>
       <r>    6.1882    1.0000 </r>
       <r>    6.4384    1.0000 </r>
       <r>    7.1673    1.0000 </r>
       <r>   10.0078    1.0000 </r>
       <r>   10.0078    1.0000 </r>
       <r>   11.0527    1.0000 </r>
       <r>   13.1515    0.0000 </r>
       <r>   13.3514    0.0000 </r>
       <r>   13.5112    0.0000 </r>
       <r>   13.5112    0.0000 </r>
       <r>   13.9696    0.0000 </r>
      </set>
      <set comment="kpoint 49">
       <r>  -27.9899    1.0000 </r>
       <r>  -12.0050    1.0000 </r>
       <r>  -11.9954    1.0000 </r>
       <r>  -11.9812    1.0000 </r>
       <r>  -11.9508    1.0000 </r>
       <r>  -11.9500    1.0000 </r>
       <r>   -6.8718    1.0000 </r>
       <r>   -6.4963    1.0000 </r>
       <r>   -6.4666    1.0000 </r>
       <r>   -1.3407    1.0000 </r>
       <r>    5.4648    1.0000 </r>
       <r>    5.6869    1.0000 </r>
       <r>    5.9925    1.0000 </r>
       <r>    6.4413    1.0000 </r>
       <r>    6.4664    1.0000 </r>
       <r>    6.9431    1.0000 </r>
       <r>    9.8041    1.0000 </r>
       <r>    9.9515    1.0000 </r>
       <r>   11.1156    1.0000 </r>
       <r>   13.2537    0.0000 </r>
       <r>   13.2851    0.0000 </r>
       <r>   13.5453    0.0000 </r>
       <r>   13.5646    0.0000 </r>
       <r>   14.0321    0.0000 </r>
      </set>
      <set comment="kpoint 50">
       <r>  -28.0093    1.0000 </r>
       <r>  -12.0366    1.0000 </r>
       <r>  -12.0175    1.0000 </r>
       <r>  -11.9665    1.0000 </r>
       <r>  -11.9603    1.0000 </r>
       <r>  -11.9601    1.0000 </r>
       <r>   -6.6542    1.0000 </r>
       <r>   -6.4420    1.0000 </r>
       <r>   -6.3788    1.0000 </r>
       <r>   -1.4227    1.0000 </r>
       <r>    4.8919    1.0000 </r>
       <r>    5.6764    1.0000 </r>
       <r>    6.2264    1.0000 </r>
       <r>    6.2658    1.0000 </r>
       <r>    6.7943    1.0000 </r>
       <r>    8.4167    1.0000 </r>
       <r>    9.0777    1.0000 </r>
       <r>    9.5953    1.0000 </r>
       <r>   11.3690    1.0000 </r>
       <r>   11.8137    0.0000 </r>
       <r>   12.4129    0.0000 </r>
       <r>   13.0652    0.0000 </r>
       <r>   13.8720    0.0000 </r>
       <r>   13.9445    0.0000 </r>
      </set>
      <set comment="kpoint 51">
       <r>  -28.0048    1.0000 </r>
       <r>  -12.0437    1.0000 </r>
       <r>  -12.0216    1.0000 </r>
       <r>  -11.9685    1.0000 </r>
       <r>  -11.9594    1.0000 </r>
       <r>  -11.9587    1.0000 </r>
       <r>   -6.7740    1.0000 </r>
       <r>   -6.4413    1.0000 </r>
       <r>   -6.3439    1.0000 </r>
       <r>   -1.0694    1.0000 </r>
       <r>    4.6541    1.0000 </r>
       <r>    5.3904    1.0000 </r>
       <r>    5.9885    1.0000 </r>
       <r>    6.3409    1.0000 </r>
       <r>    6.8621    1.0000 </r>
       <r>    8.0001    1.0000 </r>
       <r>    8.9135    1.0000 </r>
       <r>    9.5209    1.0000 </r>
       <r>   11.3989    1.0000 </r>
       <r>   12.1492    0.0000 </r>
       <r>   12.7386    0.0000 </r>
       <r>   13.5550    0.0000 </r>
       <r>   13.8567    0.0000 </r>
       <r>   14.0736    0.0000 </r>
      </set>
      <set comment="kpoint 52">
       <r>  -28.0000    1.0000 </r>
       <r>  -12.0488    1.0000 </r>
       <r>  -12.0282    1.0000 </r>
       <r>  -11.9708    1.0000 </r>
       <r>  -11.9588    1.0000 </r>
       <r>  -11.9572    1.0000 </r>
       <r>   -6.8890    1.0000 </r>
       <r>   -6.4215    1.0000 </r>
       <r>   -6.3176    1.0000 </r>
       <r>   -0.7386    1.0000 </r>
       <r>    4.5336    1.0000 </r>
       <r>    5.1807    1.0000 </r>
       <r>    5.7707    1.0000 </r>
       <r>    6.3021    1.0000 </r>
       <r>    6.8134    1.0000 </r>
       <r>    7.5653    1.0000 </r>
       <r>    8.9900    1.0000 </r>
       <r>    9.4897    1.0000 </r>
       <r>   11.3671    1.0000 </r>
       <r>   12.5647    0.0000 </r>
       <r>   13.0170    0.0000 </r>
       <r>   13.7587    0.0000 </r>
       <r>   13.8869    0.0000 </r>
       <r>   14.1635    0.0000 </r>
      </set>
      <set comment="kpoint 53">
       <r>  -27.9961    1.0000 </r>
       <r>  -12.0509    1.0000 </r>
[...]
       <r>   11.8865    0.0000 </r>
       <r>   12.3282    0.0000 </r>
       <r>   13.4518    0.0000 </r>
       <r>   13.7050    0.0000 </r>
       <r>   13.9083    0.0000 </r>
       <r>   14.1253    0.0000 </r>
      </set>
      <set comment="kpoint 81">
       <r>  -27.9910    1.0000 </r>
       <r>  -12.0392    1.0000 </r>
       <r>  -12.0101    1.0000 </r>
       <r>  -11.9697    1.0000 </r>
       <r>  -11.9637    1.0000 </r>
       <r>  -11.9517    1.0000 </r>
       <r>   -6.8062    1.0000 </r>
       <r>   -6.6036    1.0000 </r>
       <r>   -6.3805    1.0000 </r>
       <r>   -0.8715    1.0000 </r>
       <r>    4.9881    1.0000 </r>
       <r>    5.4595    1.0000 </r>
       <r>    5.6287    1.0000 </r>
       <r>    6.4059    1.0000 </r>
       <r>    6.7420    1.0000 </r>
       <r>    7.6502    1.0000 </r>
       <r>    8.0160    1.0000 </r>
       <r>    9.7337    1.0000 </r>
       <r>   11.9613    0.0000 </r>
       <r>   12.2808    0.0000 </r>
       <r>   13.4426    0.0000 </r>
       <r>   13.7000    0.0000 </r>
       <r>   13.9224    0.0000 </r>
       <r>   14.1229    0.0000 </r>
      </set>
      <set comment="kpoint 82">
       <r>  -27.9898    1.0000 </r>
       <r>  -12.0238    1.0000 </r>
       <r>  -11.9984    1.0000 </r>
       <r>  -11.9764    1.0000 </r>
       <r>  -11.9581    1.0000 </r>
       <r>  -11.9497    1.0000 </r>
       <r>   -6.8077    1.0000 </r>
       <r>   -6.5491    1.0000 </r>
       <r>   -6.4683    1.0000 </r>
       <r>   -1.1375    1.0000 </r>
       <r>    5.0895    1.0000 </r>
       <r>    5.7246    1.0000 </r>
       <r>    6.1158    1.0000 </r>
       <r>    6.2763    1.0000 </r>
       <r>    6.6759    1.0000 </r>
       <r>    7.2248    1.0000 </r>
       <r>    8.4124    1.0000 </r>
       <r>   10.0747    1.0000 </r>
       <r>   11.5190    0.0000 </r>
       <r>   12.8030    0.0000 </r>
       <r>   13.3426    0.0000 </r>
       <r>   13.5638    0.0000 </r>
       <r>   13.7625    0.0000 </r>
       <r>   14.1654    0.0000 </r>
      </set>
      <set comment="kpoint 83">
       <r>  -27.9895    1.0000 </r>
       <r>  -12.0303    1.0000 </r>
       <r>  -11.9984    1.0000 </r>
       <r>  -11.9733    1.0000 </r>
       <r>  -11.9619    1.0000 </r>
       <r>  -11.9497    1.0000 </r>
       <r>   -6.7665    1.0000 </r>
       <r>   -6.6036    1.0000 </r>
       <r>   -6.4554    1.0000 </r>
       <r>   -1.0739    1.0000 </r>
       <r>    5.0161    1.0000 </r>
       <r>    5.6684    1.0000 </r>
       <r>    6.1598    1.0000 </r>
       <r>    6.3524    1.0000 </r>
       <r>    6.7721    1.0000 </r>
       <r>    7.2379    1.0000 </r>
       <r>    8.0297    1.0000 </r>
       <r>   10.0477    1.0000 </r>
       <r>   11.7153    0.0000 </r>
       <r>   12.5825    0.0000 </r>
       <r>   13.3806    0.0000 </r>
       <r>   13.6013    0.0000 </r>
       <r>   13.8460    0.0000 </r>
       <r>   14.1858    0.0000 </r>
      </set>
      <set comment="kpoint 84">
       <r>  -27.9896    1.0000 </r>
       <r>  -12.0340    1.0000 </r>
       <r>  -11.9986    1.0000 </r>
       <r>  -11.9706    1.0000 </r>
       <r>  -11.9651    1.0000 </r>
       <r>  -11.9496    1.0000 </r>
       <r>   -6.7496    1.0000 </r>
       <r>   -6.6123    1.0000 </r>
       <r>   -6.4613    1.0000 </r>
       <r>   -1.0343    1.0000 </r>
       <r>    4.9734    1.0000 </r>
       <r>    5.6949    1.0000 </r>
       <r>    6.1070    1.0000 </r>
       <r>    6.3327    1.0000 </r>
       <r>    6.8228    1.0000 </r>
       <r>    7.4293    1.0000 </r>
       <r>    7.7022    1.0000 </r>
       <r>   10.0790    1.0000 </r>
       <r>   12.0202    0.0000 </r>
       <r>   12.2780    0.0000 </r>
       <r>   13.3620    0.0000 </r>
       <r>   13.5933    0.0000 </r>
       <r>   13.9144    0.0000 </r>
       <r>   14.1127    0.0000 </r>
      </set>
     </set>
    </set>
   </array>
  </eigenvalues>
  <separator name="orbital magnetization" >
   <v name="MAGDIPOLOUT">      0.00000000      0.00000000      0.00000000</v>
  </separator>
  <dos>
   <i name="efermi">     11.43696514 </i>
   <total>
    <array>
     <dimension dim="1">gridpoints</dimension>
     <dimension dim="2">spin</dimension>
     <field>energy</field>
     <field>total</field>
     <field>integrated</field>
     <set>
      <set comment="spin 1">
       <r>   -30.1309     0.0000     0.0000 </r>
       <r>   -29.9759     0.0000     0.0000 </r>
       <r>   -29.8209     0.0000     0.0000 </r>
       <r>   -29.6659     0.0000     0.0000 </r>
       <r>   -29.5108     0.0000     0.0000 </r>
       <r>   -29.3558     0.0000     0.0000 </r>
       <r>   -29.2008     0.0000     0.0000 </r>
       <r>   -29.0458     0.0000     0.0000 </r>
       <r>   -28.8907     0.0000     0.0000 </r>
       <r>   -28.7357     0.0000     0.0000 </r>
       <r>   -28.5807     0.0000     0.0000 </r>
       <r>   -28.4257     0.0000     0.0000 </r>
       <r>   -28.2706     0.0000     0.0000 </r>
       <r>   -28.1156     0.0000     0.0000 </r>
       <r>   -27.9606    12.9011     2.0000 </r>
       <r>   -27.8056     0.0000     2.0000 </r>
       <r>   -27.6505     0.0000     2.0000 </r>
       <r>   -27.4955     0.0000     2.0000 </r>
       <r>   -27.3405     0.0000     2.0000 </r>
       <r>   -27.1855     0.0000     2.0000 </r>
       <r>   -27.0304     0.0000     2.0000 </r>
       <r>   -26.8754     0.0000     2.0000 </r>
       <r>   -26.7204     0.0000     2.0000 </r>
       <r>   -26.5654     0.0000     2.0000 </r>
       <r>   -26.4103     0.0000     2.0000 </r>
       <r>   -26.2553     0.0000     2.0000 </r>
       <r>   -26.1003     0.0000     2.0000 </r>
       <r>   -25.9453     0.0000     2.0000 </r>
       <r>   -25.7902     0.0000     2.0000 </r>
       <r>   -25.6352     0.0000     2.0000 </r>
       <r>   -25.4802     0.0000     2.0000 </r>
       <r>   -25.3252     0.0000     2.0000 </r>
       <r>   -25.1701     0.0000     2.0000 </r>
       <r>   -25.0151     0.0000     2.0000 </r>
       <r>   -24.8601     0.0000     2.0000 </r>
       <r>   -24.7051     0.0000     2.0000 </r>
       <r>   -24.5500     0.0000     2.0000 </r>
       <r>   -24.3950     0.0000     2.0000 </r>
       <r>   -24.2400     0.0000     2.0000 </r>
       <r>   -24.0850     0.0000     2.0000 </r>
       <r>   -23.9299     0.0000     2.0000 </r>
       <r>   -23.7749     0.0000     2.0000 </r>
       <r>   -23.6199     0.0000     2.0000 </r>
       <r>   -23.4649     0.0000     2.0000 </r>
       <r>   -23.3098     0.0000     2.0000 </r>
       <r>   -23.1548     0.0000     2.0000 </r>
       <r>   -22.9998     0.0000     2.0000 </r>
       <r>   -22.8448     0.0000     2.0000 </r>
       <r>   -22.6897     0.0000     2.0000 </r>
       <r>   -22.5347     0.0000     2.0000 </r>
       <r>   -22.3797     0.0000     2.0000 </r>
       <r>   -22.2247     0.0000     2.0000 </r>
       <r>   -22.0696     0.0000     2.0000 </r>
       <r>   -21.9146     0.0000     2.0000 </r>
       <r>   -21.7596     0.0000     2.0000 </r>
       <r>   -21.6046     0.0000     2.0000 </r>
       <r>   -21.4495     0.0000     2.0000 </r>
       <r>   -21.2945     0.0000     2.0000 </r>
       <r>   -21.1395     0.0000     2.0000 </r>
       <r>   -20.9845     0.0000     2.0000 </r>
       <r>   -20.8294     0.0000     2.0000 </r>
       <r>   -20.6744     0.0000     2.0000 </r>
       <r>   -20.5194     0.0000     2.0000 </r>
       <r>   -20.3644     0.0000     2.0000 </r>
       <r>   -20.2093     0.0000     2.0000 </r>
       <r>   -20.0543     0.0000     2.0000 </r>
       <r>   -19.8993     0.0000     2.0000 </r>
       <r>   -19.7443     0.0000     2.0000 </r>
       <r>   -19.5892     0.0000     2.0000 </r>
       <r>   -19.4342     0.0000     2.0000 </r>
       <r>   -19.2792     0.0000     2.0000 </r>
       <r>   -19.1242     0.0000     2.0000 </r>
       <r>   -18.9691     0.0000     2.0000 </r>
       <r>   -18.8141     0.0000     2.0000 </r>
       <r>   -18.6591     0.0000     2.0000 </r>
       <r>   -18.5041     0.0000     2.0000 </r>
       <r>   -18.3490     0.0000     2.0000 </r>
       <r>   -18.1940     0.0000     2.0000 </r>
       <r>   -18.0390     0.0000     2.0000 </r>
       <r>   -17.8840     0.0000     2.0000 </r>
       <r>   -17.7289     0.0000     2.0000 </r>
       <r>   -17.5739     0.0000     2.0000 </r>
       <r>   -17.4189     0.0000     2.0000 </r>
       <r>   -17.2639     0.0000     2.0000 </r>
       <r>   -17.1088     0.0000     2.0000 </r>
       <r>   -16.9538     0.0000     2.0000 </r>
       <r>   -16.7988     0.0000     2.0000 </r>
       <r>   -16.6438     0.0000     2.0000 </r>
       <r>   -16.4887     0.0000     2.0000 </r>
       <r>   -16.3337     0.0000     2.0000 </r>
       <r>   -16.1787     0.0000     2.0000 </r>
       <r>   -16.0237     0.0000     2.0000 </r>
       <r>   -15.8686     0.0000     2.0000 </r>
       <r>   -15.7136     0.0000     2.0000 </r>
       <r>   -15.5586     0.0000     2.0000 </r>
       <r>   -15.4036     0.0000     2.0000 </r>
       <r>   -15.2485     0.0000     2.0000 </r>
       <r>   -15.0935     0.0000     2.0000 </r>
       <r>   -14.9385     0.0000     2.0000 </r>
       <r>   -14.7835     0.0000     2.0000 </r>
       <r>   -14.6284     0.0000     2.0000 </r>
       <r>   -14.4734     0.0000     2.0000 </r>
       <r>   -14.3184     0.0000     2.0000 </r>
       <r>   -14.1634     0.0000     2.0000 </r>
       <r>   -14.0083     0.0000     2.0000 </r>
       <r>   -13.8533     0.0000     2.0000 </r>
       <r>   -13.6983     0.0000     2.0000 </r>
       <r>   -13.5433     0.0000     2.0000 </r>
       <r>   -13.3882     0.0000     2.0000 </r>
       <r>   -13.2332     0.0000     2.0000 </r>
       <r>   -13.0782     0.0000     2.0000 </r>
       <r>   -12.9232     0.0000     2.0000 </r>
       <r>   -12.7681     0.0000     2.0000 </r>
       <r>   -12.6131     0.0000     2.0000 </r>
       <r>   -12.4581     0.0000     2.0000 </r>
       <r>   -12.3031     0.0000     2.0000 </r>
       <r>   -12.1480     0.0000     2.0000 </r>
       <r>   -11.9930    25.5489     5.9607 </r>
       <r>   -11.8380     0.0000    12.0000 </r>
       <r>   -11.6830     0.0000    12.0000 </r>
       <r>   -11.5280     0.0000    12.0000 </r>
       <r>   -11.3729     0.0000    12.0000 </r>
       <r>   -11.2179     0.0000    12.0000 </r>
       <r>   -11.0629     0.0000    12.0000 </r>
       <r>   -10.9079     0.0000    12.0000 </r>
       <r>   -10.7528     0.0000    12.0000 </r>
       <r>   -10.5978     0.0000    12.0000 </r>
       <r>   -10.4428     0.0000    12.0000 </r>
       <r>   -10.2878     0.0000    12.0000 </r>
       <r>   -10.1327     0.0000    12.0000 </r>
       <r>    -9.9777     0.0000    12.0000 </r>
       <r>    -9.8227     0.0000    12.0000 </r>
       <r>    -9.6677     0.0000    12.0000 </r>
       <r>    -9.5126     0.0000    12.0000 </r>
       <r>    -9.3576     0.0000    12.0000 </r>
       <r>    -9.2026     0.0000    12.0000 </r>
       <r>    -9.0476     0.0000    12.0000 </r>
       <r>    -8.8925     0.0000    12.0000 </r>
       <r>    -8.7375     0.0000    12.0000 </r>
       <r>    -8.5825     0.0000    12.0000 </r>
       <r>    -8.4275     0.0000    12.0000 </r>
       <r>    -8.2724     0.0000    12.0000 </r>
       <r>    -8.1174     0.0000    12.0000 </r>
       <r>    -7.9624     0.0000    12.0000 </r>
       <r>    -7.8074     0.0000    12.0000 </r>
       <r>    -7.6523     0.0000    12.0000 </r>
       <r>    -7.4973     0.0000    12.0000 </r>
       <r>    -7.3423     0.0000    12.0000 </r>
       <r>    -7.1873     0.0000    12.0000 </r>
       <r>    -7.0322     0.3721    12.0577 </r>
       <r>    -6.8772     2.7160    12.6759 </r>
       <r>    -6.7222     1.5652    13.8594 </r>
       <r>    -6.5672     2.1295    14.2928 </r>
       <r>    -6.4121     8.4296    16.1234 </r>
       <r>    -6.2571     4.8621    18.0000 </r>
       <r>    -6.1021     0.0000    18.0000 </r>
       <r>    -5.9471     0.0000    18.0000 </r>
       <r>    -5.7920     0.0000    18.0000 </r>
       <r>    -5.6370     0.0000    18.0000 </r>
       <r>    -5.4820     0.0000    18.0000 </r>
       <r>    -5.3270     0.0000    18.0000 </r>
       <r>    -5.1719     0.0000    18.0000 </r>
       <r>    -5.0169     0.0000    18.0000 </r>
       <r>    -4.8619     0.0000    18.0000 </r>
       <r>    -4.7069     0.0000    18.0000 </r>
       <r>    -4.5518     0.0000    18.0000 </r>
       <r>    -4.3968     0.0000    18.0000 </r>
       <r>    -4.2418     0.0000    18.0000 </r>
       <r>    -4.0868     0.0000    18.0000 </r>
       <r>    -3.9317     0.0000    18.0000 </r>
       <r>    -3.7767     0.0000    18.0000 </r>
       <r>    -3.6217     0.0000    18.0000 </r>
       <r>    -3.4667     0.0000    18.0000 </r>
       <r>    -3.3116     0.0000    18.0000 </r>
       <r>    -3.1566     0.0000    18.0000 </r>
       <r>    -3.0016     0.0000    18.0000 </r>
       <r>    -2.8466     0.0000    18.0000 </r>
       <r>    -2.6915     0.0000    18.0000 </r>
       <r>    -2.5365     0.0000    18.0000 </r>
       <r>    -2.3815     0.0000    18.0000 </r>
       <r>    -2.2265     0.0000    18.0000 </r>
       <r>    -2.0714     0.0059    18.0009 </r>
       <r>    -1.9164     0.0822    18.0137 </r>
       <r>    -1.7614     0.0705    18.0246 </r>
       <r>    -1.6064     0.0470    18.0537 </r>
       <r>    -1.4513     0.0011    18.0593 </r>
       <r>    -1.2963     0.2170    18.1365 </r>
       <r>    -1.1413     0.4628    18.2784 </r>
       <r>    -0.9863     1.2710    18.6622 </r>
       <r>    -0.8312     1.3707    19.0764 </r>
       <r>    -0.6762     1.3046    19.4594 </r>
       <r>    -0.5212     0.9355    19.7809 </r>
       <r>    -0.3662     0.3388    19.9287 </r>
       <r>    -0.2111     0.1474    19.9937 </r>
       <r>    -0.0561     0.0000    20.0000 </r>
       <r>     0.0989     0.0000    20.0000 </r>
       <r>     0.2539     0.0000    20.0000 </r>
       <r>     0.4090     0.0000    20.0000 </r>
       <r>     0.5640     0.0000    20.0000 </r>
       <r>     0.7190     0.0000    20.0000 </r>
       <r>     0.8740     0.0000    20.0000 </r>
       <r>     1.0291     0.0000    20.0000 </r>
       <r>     1.1841     0.0000    20.0000 </r>
       <r>     1.3391     0.0000    20.0000 </r>
       <r>     1.4941     0.0000    20.0000 </r>
       <r>     1.6492     0.0000    20.0000 </r>
       <r>     1.8042     0.0000    20.0000 </r>
       <r>     1.9592     0.0000    20.0000 </r>
       <r>     2.1142     0.0000    20.0000 </r>
       <r>     2.2693     0.0000    20.0000 </r>
       <r>     2.4243     0.0000    20.0000 </r>
       <r>     2.5793     0.0000    20.0000 </r>
       <r>     2.7343     0.0000    20.0000 </r>
       <r>     2.8894     0.0000    20.0000 </r>
       <r>     3.0444     0.0000    20.0000 </r>
       <r>     3.1994     0.0000    20.0000 </r>
       <r>     3.3544     0.0000    20.0000 </r>
       <r>     3.5095     0.0000    20.0000 </r>
       <r>     3.6645     0.0000    20.0000 </r>
       <r>     3.8195     0.0000    20.0000 </r>
       <r>     3.9745     0.0000    20.0000 </r>
       <r>     4.1296     0.0000    20.0000 </r>
       <r>     4.2846     0.0040    20.0006 </r>
       <r>     4.4396     0.7318    20.1207 </r>
       <r>     4.5946     1.9847    20.5462 </r>
       <r>     4.7497     0.1927    20.7873 </r>
       <r>     4.9047     1.5329    21.1116 </r>
       <r>     5.0597     2.6376    21.6815 </r>
       <r>     5.2147     3.1545    22.5154 </r>
       <r>     5.3698     2.3454    23.1419 </r>
       <r>     5.5248     2.2032    23.8481 </r>
       <r>     5.6798     2.3892    24.5816 </r>
       <r>     5.8348     1.8034    25.2609 </r>
       <r>     5.9899     1.3332    25.6341 </r>
       <r>     6.1449     0.9148    25.9297 </r>
       <r>     6.2999     3.5586    26.5890 </r>
       <r>     6.4549     4.4658    27.9813 </r>
       <r>     6.6100     2.0991    28.6704 </r>
       <r>     6.7650     3.2770    29.5758 </r>
       <r>     6.9200     0.8643    29.9592 </r>
       <r>     7.0750     0.5091    30.1190 </r>
       <r>     7.2301     0.8746    30.3140 </r>
       <r>     7.3851     0.4656    30.5729 </r>
       <r>     7.5401     1.0759    31.0462 </r>
       <r>     7.6951     1.0718    31.3951 </r>
       <r>     7.8501     0.5760    31.5822 </r>
       <r>     8.0052     1.0693    31.8226 </r>
       <r>     8.1602     0.3884    31.9792 </r>
       <r>     8.3152     0.4352    32.0902 </r>
       <r>     8.4702     0.8022    32.3929 </r>
       <r>     8.6253     0.5637    32.6036 </r>
       <r>     8.7803     1.1138    32.9018 </r>
       <r>     8.9353     0.9736    33.1860 </r>
       <r>     9.0903     0.7420    33.3904 </r>
       <r>     9.2454     0.8471    33.6252 </r>
       <r>     9.4004     1.6468    33.9367 </r>
       <r>     9.5554     3.5197    34.9480 </r>
       <r>     9.7104     0.5727    35.4962 </r>
       <r>     9.8655     0.9375    35.7785 </r>
       <r>    10.0205     0.2987    35.9125 </r>
       <r>    10.1755     0.0000    36.0000 </r>
       <r>    10.3305     0.0000    36.0000 </r>
       <r>    10.4856     0.0000    36.0000 </r>
       <r>    10.6406     0.0000    36.0009 </r>
       <r>    10.7956     0.0000    36.0009 </r>
       <r>    10.9506     0.1223    36.0308 </r>
       <r>    11.1057     0.3522    36.1283 </r>
       <r>    11.2607     1.3058    36.4528 </r>
       <r>    11.4157     2.3943    36.9656 </r>
       <r>    11.5707     1.7128    37.3861 </r>
       <r>    11.7258     1.6972    37.8125 </r>
       <r>    11.8808     0.8678    38.0153 </r>
       <r>    12.0358     0.5149    38.1645 </r>
       <r>    12.1908     0.5915    38.2565 </r>
       <r>    12.3459     0.8025    38.4148 </r>
       <r>    12.5009     0.5604    38.6540 </r>
       <r>    12.6559     1.0554    39.1459 </r>
       <r>    12.8109     2.4920    39.7682 </r>
       <r>    12.9660     1.0983    40.1748 </r>
       <r>    13.1210     1.1285    40.6110 </r>
       <r>    13.2760     1.2902    41.0767 </r>
       <r>    13.4310     3.5241    41.8381 </r>
       <r>    13.5861     2.0823    42.6596 </r>
       <r>    13.7411     3.2591    43.5030 </r>
       <r>    13.8961     5.9292    45.4117 </r>
       <r>    14.0511     1.2864    46.2176 </r>
       <r>    14.2062     6.6313    47.5424 </r>
       <r>    14.3612     0.0000    48.0000 </r>
       <r>    14.5162     0.0000    48.0000 </r>
       <r>    14.6712     0.0000    48.0000 </r>
       <r>    14.8263     0.0000    48.0000 </r>
       <r>    14.9813     0.0000    48.0000 </r>
       <r>    15.1363     0.0000    48.0000 </r>
       <r>    15.2913     0.0000    48.0000 </r>
       <r>    15.4464     0.0000    48.0000 </r>
       <r>    15.6014     0.0000    48.0000 </r>
       <r>    15.7564     0.0000    48.0000 </r>
       <r>    15.9114     0.0000    48.0000 </r>
       <r>    16.0665     0.0000    48.0000 </r>
       <r>    16.2215     0.0000    48.0000 </r>
       <r>    16.3765     0.0000    48.0000 </r>
      </set>
     </set>
    </array>
   </total>
  </dos>
 </calculation>
 <structure name="finalpos" >
  <crystal>
   <varray name="basis" >
    <v>       0.00000000       3.17935746       3.17935746 </v>
    <v>       3.17935746       0.00000000       3.17935746 </v>
    <v>       3.17935746       3.17935746       0.00000000 </v>
   </varray>
   <i name="volume">     64.27588604 </i>
   <varray name="rec_basis" >
    <v>      -0.15726448       0.15726448       0.15726448 </v>
    <v>       0.15726448      -0.15726448       0.15726448 </v>
    <v>       0.15726448       0.15726448      -0.15726448 </v>
   </varray>
  </crystal>
  <varray name="positions" >
   <v>       0.25000000       0.25000000       0.25000000 </v>
   <v>       0.75000000       0.75000000       0.75000000 </v>
   <v>       0.00000000       0.00000000       0.00000000 </v>
  </varray>
 </structure>
</modeling>
