   2   2   0   0
  0.2785619E+02  0.4287021E-09  0.4287021E-09  0.4287021E-09  0.0000000E+00
  1.000000000000000E-004
  CAR 
 unknown system                          
     15.16997441     -6.75091914  301      5.23706952      1.00000000
     -6.751  0.0000E+00  0.0000E+00
     -6.678  0.0000E+00  0.0000E+00
     -6.605  0.0000E+00  0.0000E+00
     -6.532  0.0000E+00  0.0000E+00
     -6.459  0.0000E+00  0.0000E+00
     -6.386  0.0000E+00  0.0000E+00
     -6.313  0.0000E+00  0.0000E+00
     -6.239  0.0000E+00  0.0000E+00
     -6.166  0.0000E+00  0.0000E+00
     -6.093  0.0000E+00  0.0000E+00
     -6.020  0.0000E+00  0.0000E+00
     -5.947  0.0000E+00  0.0000E+00
     -5.874  0.0000E+00  0.0000E+00
     -5.801  0.0000E+00  0.0000E+00
     -5.728  0.7994E-01  0.7080E-03
     -5.655  0.1678E+00  0.9721E-02
     -5.582  0.2243E+00  0.2377E-01
     -5.509  0.2688E+00  0.4191E-01
     -5.436  0.3186E+00  0.6331E-01
     -5.363  0.3549E+00  0.8790E-01
     -5.290  0.3963E+00  0.1153E+00
     -5.216  0.4343E+00  0.1457E+00
     -5.143  0.4725E+00  0.1788E+00
     -5.070  0.5138E+00  0.2148E+00
     -4.997  0.5533E+00  0.2538E+00
     -4.924  0.5957E+00  0.2958E+00
     -4.851  0.6413E+00  0.3409E+00
     -4.778  0.6906E+00  0.3896E+00
     -4.705  0.7449E+00  0.4420E+00
     -4.632  0.8050E+00  0.4986E+00
     -4.559  0.8768E+00  0.5599E+00
     -4.486  0.9648E+00  0.6271E+00
     -4.413  0.1074E+01  0.7014E+00
     -4.340  0.1230E+01  0.7849E+00
     -4.267  0.1751E+01  0.8866E+00
     -4.193  0.1573E+01  0.1005E+01
     -4.120  0.1595E+01  0.1122E+01
     -4.047  0.1590E+01  0.1239E+01
     -3.974  0.1573E+01  0.1354E+01
     -3.901  0.1594E+01  0.1470E+01
     -3.828  0.1613E+01  0.1587E+01
     -3.755  0.1698E+01  0.1708E+01
     -3.682  0.1931E+01  0.1837E+01
     -3.609  0.1051E+01  0.1990E+01
     -3.536  0.0000E+00  0.2000E+01
     -3.463  0.0000E+00  0.2000E+01
     -3.390  0.0000E+00  0.2000E+01
     -3.317  0.0000E+00  0.2000E+01
     -3.244  0.0000E+00  0.2000E+01
     -3.171  0.0000E+00  0.2000E+01
     -3.097  0.0000E+00  0.2000E+01
     -3.024  0.0000E+00  0.2000E+01
     -2.951  0.0000E+00  0.2000E+01
     -2.878  0.0000E+00  0.2000E+01
     -2.805  0.0000E+00  0.2000E+01
     -2.732  0.0000E+00  0.2000E+01
     -2.659  0.0000E+00  0.2000E+01
     -2.586  0.0000E+00  0.2000E+01
     -2.513  0.0000E+00  0.2000E+01
     -2.440  0.0000E+00  0.2000E+01
     -2.367  0.0000E+00  0.2000E+01
     -2.294  0.0000E+00  0.2000E+01
     -2.221  0.0000E+00  0.2000E+01
     -2.148  0.0000E+00  0.2000E+01
     -2.074  0.0000E+00  0.2000E+01
     -2.001  0.0000E+00  0.2000E+01
     -1.928  0.0000E+00  0.2000E+01
     -1.855  0.0000E+00  0.2000E+01
     -1.782  0.0000E+00  0.2000E+01
     -1.709  0.0000E+00  0.2000E+01
     -1.636  0.0000E+00  0.2000E+01
     -1.563  0.0000E+00  0.2000E+01
     -1.490  0.0000E+00  0.2000E+01
     -1.417  0.0000E+00  0.2000E+01
     -1.344  0.0000E+00  0.2000E+01
     -1.271  0.0000E+00  0.2000E+01
     -1.198  0.0000E+00  0.2000E+01
     -1.125  0.0000E+00  0.2000E+01
     -1.051  0.0000E+00  0.2000E+01
     -0.978  0.0000E+00  0.2000E+01
     -0.905  0.0000E+00  0.2000E+01
     -0.832  0.0000E+00  0.2000E+01
     -0.759  0.0000E+00  0.2000E+01
     -0.686  0.0000E+00  0.2000E+01
     -0.613  0.0000E+00  0.2000E+01
     -0.540  0.0000E+00  0.2000E+01
     -0.467  0.7335E-01  0.2001E+01
     -0.394  0.7044E+00  0.2022E+01
     -0.321  0.1256E+01  0.2091E+01
     -0.248  0.2296E+01  0.2216E+01
     -0.175  0.4761E+01  0.2459E+01
     -0.102  0.2199E+01  0.2695E+01
     -0.029  0.1604E+01  0.2832E+01
      0.045  0.1261E+01  0.2935E+01
      0.118  0.1080E+01  0.3020E+01
      0.191  0.9325E+00  0.3093E+01
      0.264  0.8124E+00  0.3157E+01
      0.337  0.7414E+00  0.3213E+01
      0.410  0.6770E+00  0.3265E+01
      0.483  0.6088E+00  0.3312E+01
      0.556  0.5555E+00  0.3354E+01
      0.629  0.5219E+00  0.3394E+01
      0.702  0.4890E+00  0.3431E+01
      0.775  0.4538E+00  0.3465E+01
      0.848  0.4209E+00  0.3497E+01
      0.921  0.3886E+00  0.3526E+01
      0.994  0.3702E+00  0.3554E+01
      1.068  0.3509E+00  0.3581E+01
      1.141  0.3320E+00  0.3605E+01
      1.214  0.3121E+00  0.3629E+01
      1.287  0.2897E+00  0.3651E+01
      1.360  0.2708E+00  0.3671E+01
      1.433  0.2597E+00  0.3691E+01
      1.506  0.2485E+00  0.3709E+01
      1.579  0.2369E+00  0.3727E+01
      1.652  0.2420E+00  0.3744E+01
      1.725  0.6996E+00  0.3780E+01
      1.798  0.1023E+01  0.3842E+01
      1.871  0.1568E+01  0.3938E+01
      1.944  0.1511E+01  0.4051E+01
      2.017  0.1283E+01  0.4151E+01
      2.091  0.1257E+01  0.4244E+01
      2.164  0.1254E+01  0.4335E+01
      2.237  0.1153E+01  0.4422E+01
      2.310  0.1120E+01  0.4505E+01
      2.383  0.1156E+01  0.4588E+01
      2.456  0.1219E+01  0.4675E+01
      2.529  0.1290E+01  0.4768E+01
      2.602  0.1293E+01  0.4862E+01
      2.675  0.1386E+01  0.4961E+01
      2.748  0.1452E+01  0.5064E+01
      2.821  0.1663E+01  0.5178E+01
      2.894  0.1921E+01  0.5308E+01
      2.967  0.1844E+01  0.5444E+01
      3.040  0.1796E+01  0.5577E+01
      3.113  0.1778E+01  0.5708E+01
      3.187  0.1758E+01  0.5837E+01
      3.260  0.1724E+01  0.5964E+01
      3.333  0.1685E+01  0.6089E+01
      3.406  0.1683E+01  0.6211E+01
      3.479  0.1659E+01  0.6334E+01
      3.552  0.1624E+01  0.6454E+01
      3.625  0.1599E+01  0.6571E+01
      3.698  0.1580E+01  0.6688E+01
      3.771  0.1544E+01  0.6802E+01
      3.844  0.1541E+01  0.6914E+01
      3.917  0.1530E+01  0.7027E+01
      3.990  0.1518E+01  0.7138E+01
      4.063  0.1503E+01  0.7248E+01
      4.136  0.1480E+01  0.7357E+01
      4.210  0.1405E+01  0.7464E+01
      4.283  0.1084E+01  0.7553E+01
      4.356  0.9216E+00  0.7625E+01
      4.429  0.7981E+00  0.7688E+01
      4.502  0.7082E+00  0.7743E+01
      4.575  0.6252E+00  0.7792E+01
      4.648  0.5598E+00  0.7835E+01
      4.721  0.4920E+00  0.7873E+01
      4.794  0.4230E+00  0.7907E+01
      4.867  0.3640E+00  0.7935E+01
      4.940  0.3110E+00  0.7961E+01
      5.013  0.2364E+00  0.7980E+01
      5.086  0.1329E+00  0.7994E+01
      5.159  0.5693E-02  0.8000E+01
      5.233  0.0000E+00  0.8000E+01
      5.306  0.0000E+00  0.8000E+01
      5.379  0.0000E+00  0.8000E+01
      5.452  0.0000E+00  0.8000E+01
      5.525  0.0000E+00  0.8000E+01
      5.598  0.0000E+00  0.8000E+01
      5.671  0.0000E+00  0.8000E+01
      5.744  0.0000E+00  0.8000E+01
      5.817  0.0000E+00  0.8000E+01
      5.890  0.0000E+00  0.8000E+01
      5.963  0.0000E+00  0.8000E+01
      6.036  0.0000E+00  0.8000E+01
      6.109  0.0000E+00  0.8000E+01
      6.182  0.0000E+00  0.8000E+01
      6.255  0.0000E+00  0.8000E+01
      6.329  0.2663E-01  0.8000E+01
      6.402  0.1432E+00  0.8007E+01
      6.475  0.2243E+00  0.8020E+01
      6.548  0.2877E+00  0.8039E+01
      6.621  0.3559E+00  0.8062E+01
      6.694  0.4619E+00  0.8092E+01
      6.767  0.5802E+00  0.8130E+01
      6.840  0.6888E+00  0.8176E+01
      6.913  0.7828E+00  0.8231E+01
      6.986  0.8755E+00  0.8291E+01
      7.059  0.9757E+00  0.8359E+01
      7.132  0.1085E+01  0.8434E+01
      7.205  0.1205E+01  0.8517E+01
      7.278  0.1345E+01  0.8610E+01
      7.352  0.1540E+01  0.8715E+01
      7.425  0.1858E+01  0.8839E+01
      7.498  0.2132E+01  0.8986E+01
      7.571  0.2121E+01  0.9143E+01
      7.644  0.2039E+01  0.9294E+01
      7.717  0.1986E+01  0.9447E+01
      7.790  0.1706E+01  0.9581E+01
      7.863  0.1550E+01  0.9700E+01
      7.936  0.1449E+01  0.9809E+01
      8.009  0.1389E+01  0.9917E+01
      8.082  0.1014E+01  0.1000E+02
      8.155  0.8376E+00  0.1007E+02
      8.228  0.9208E+00  0.1014E+02
      8.301  0.9488E+00  0.1020E+02
      8.374  0.9427E+00  0.1027E+02
      8.448  0.1044E+01  0.1035E+02
      8.521  0.1009E+01  0.1042E+02
      8.594  0.1284E+01  0.1050E+02
      8.667  0.1593E+01  0.1061E+02
      8.740  0.2822E+01  0.1076E+02
      8.813  0.2770E+01  0.1101E+02
      8.886  0.2149E+01  0.1118E+02
      8.959  0.2014E+01  0.1133E+02
      9.032  0.1690E+01  0.1146E+02
      9.105  0.1715E+01  0.1159E+02
      9.178  0.1627E+01  0.1171E+02
      9.251  0.1520E+01  0.1183E+02
      9.324  0.1326E+01  0.1193E+02
      9.397  0.1282E+01  0.1202E+02
      9.471  0.1352E+01  0.1212E+02
      9.544  0.1360E+01  0.1222E+02
      9.617  0.1550E+01  0.1232E+02
      9.690  0.1685E+01  0.1244E+02
      9.763  0.1787E+01  0.1257E+02
      9.836  0.1927E+01  0.1271E+02
      9.909  0.1482E+01  0.1284E+02
      9.982  0.1414E+01  0.1294E+02
     10.055  0.1538E+01  0.1305E+02
     10.128  0.1606E+01  0.1317E+02
     10.201  0.1660E+01  0.1328E+02
     10.274  0.1508E+01  0.1340E+02
     10.347  0.1414E+01  0.1351E+02
     10.420  0.1301E+01  0.1360E+02
     10.494  0.1258E+01  0.1370E+02
     10.567  0.1247E+01  0.1379E+02
     10.640  0.1303E+01  0.1388E+02
     10.713  0.1253E+01  0.1398E+02
     10.786  0.1190E+01  0.1407E+02
     10.859  0.1286E+01  0.1416E+02
     10.932  0.1212E+01  0.1425E+02
     11.005  0.9547E+00  0.1433E+02
     11.078  0.9699E+00  0.1440E+02
     11.151  0.1052E+01  0.1447E+02
     11.224  0.1068E+01  0.1455E+02
     11.297  0.1125E+01  0.1463E+02
     11.370  0.1233E+01  0.1472E+02
     11.443  0.1206E+01  0.1481E+02
     11.516  0.1207E+01  0.1490E+02
     11.590  0.1207E+01  0.1498E+02
     11.663  0.1153E+01  0.1507E+02
     11.736  0.1058E+01  0.1515E+02
     11.809  0.1067E+01  0.1523E+02
     11.882  0.1057E+01  0.1531E+02
     11.955  0.9059E+00  0.1538E+02
     12.028  0.8610E+00  0.1544E+02
     12.101  0.9352E+00  0.1551E+02
     12.174  0.7923E+00  0.1557E+02
     12.247  0.5845E+00  0.1562E+02
     12.320  0.4414E+00  0.1566E+02
     12.393  0.3820E+00  0.1569E+02
     12.466  0.3593E+00  0.1572E+02
     12.539  0.3455E+00  0.1574E+02
     12.613  0.3289E+00  0.1577E+02
     12.686  0.3110E+00  0.1579E+02
     12.759  0.2918E+00  0.1581E+02
     12.832  0.2715E+00  0.1583E+02
     12.905  0.2468E+00  0.1585E+02
     12.978  0.2347E+00  0.1587E+02
     13.051  0.2292E+00  0.1589E+02
     13.124  0.2161E+00  0.1590E+02
     13.197  0.1869E+00  0.1592E+02
     13.270  0.1614E+00  0.1593E+02
     13.343  0.1410E+00  0.1594E+02
     13.416  0.1253E+00  0.1595E+02
     13.489  0.1124E+00  0.1596E+02
     13.562  0.1035E+00  0.1597E+02
     13.636  0.9511E-01  0.1597E+02
     13.709  0.8843E-01  0.1598E+02
     13.782  0.9216E-01  0.1599E+02
     13.855  0.7118E-01  0.1599E+02
     13.928  0.3616E-01  0.1600E+02
     14.001  0.1786E-01  0.1600E+02
     14.074  0.5944E-02  0.1600E+02
     14.147  0.4227E-03  0.1600E+02
     14.220  0.0000E+00  0.1600E+02
     14.293  0.0000E+00  0.1600E+02
     14.366  0.0000E+00  0.1600E+02
     14.439  0.0000E+00  0.1600E+02
     14.512  0.0000E+00  0.1600E+02
     14.585  0.0000E+00  0.1600E+02
     14.658  0.0000E+00  0.1600E+02
     14.732  0.0000E+00  0.1600E+02
     14.805  0.0000E+00  0.1600E+02
     14.878  0.0000E+00  0.1600E+02
     14.951  0.0000E+00  0.1600E+02
     15.024  0.0000E+00  0.1600E+02
     15.097  0.0000E+00  0.1600E+02
     15.170  0.0000E+00  0.1600E+02
