    2    2    1    1
  0.2785619E+02  0.4287021E-09  0.4287021E-09  0.4287021E-09  0.0000000E+00
  1.000000000000000E-004
  CAR 
 unknown system                          
      8    195      8
 
  0.0000000E+00  0.0000000E+00  0.0000000E+00  0.1714678E-03
    1       -5.754515   1.000000
    2        5.173241   1.000000
    3        5.173241   1.000000
    4        5.173241   1.000000
    5        7.110875   0.000000
    6        8.295485   0.000000
    7        8.295485   0.000000
    8        8.295485   0.000000
 
  0.5555556E-01  0.0000000E+00  0.0000000E+00  0.1371742E-02
    1       -5.724427   1.000000
    2        4.764029   1.000000
    3        5.128998   1.000000
    4        5.128998   1.000000
    5        7.350324   0.000000
    6        8.363212   0.000000
    7        8.363212   0.000000
    8        8.398021   0.000000
 
  0.1111111E+00  0.0000000E+00  0.0000000E+00  0.1371742E-02
    1       -5.634955   1.000000
    2        3.953486   1.000000
    3        5.011486   1.000000
    4        5.011487   1.000000
    5        7.482949   0.000000
    6        8.540431   0.000000
    7        8.540431   0.000000
    8        8.907760   0.000000
 
  0.1666667E+00  0.0000000E+00  0.0000000E+00  0.1371742E-02
    1       -5.488967   1.000000
    2        3.067664   1.000000
    3        4.853455   1.000000
    4        4.853455   1.000000
    5        7.358092   0.000000
    6        8.760460   0.000000
    7        8.760461   0.000000
    8        9.715284   0.000000
 
  0.2222222E+00  0.0000000E+00  0.0000000E+00  0.1371742E-02
    1       -5.292027   1.000000
    2        2.200955   1.000000
    3        4.685763   1.000000
    4        4.685763   1.000000
    5        7.170237   0.000000
    6        8.940187   0.000000
    7        8.940187   0.000000
    8       10.586705   0.000000
 
  0.2777778E+00  0.0000000E+00  0.0000000E+00  0.1371742E-02
    1       -5.054185   1.000000
    2        1.394901   1.000000
    3        4.530003   1.000000
    4        4.530003   1.000000
    5        6.988787   0.000000
    6        9.021569   0.000000
    7        9.021569   0.000000
    8       11.415005   0.000000
 
  0.3333333E+00  0.0000000E+00  0.0000000E+00  0.1371742E-02
    1       -4.793287   1.000000
    2        0.682217   1.000000
    3        4.399542   1.000000
    4        4.399542   1.000000
    5        6.837520   0.000000
    6        9.012015   0.000000
    7        9.012015   0.000000
    8       11.884410   0.000000
 
  0.3888889E+00  0.0000000E+00  0.0000000E+00  0.1371742E-02
    1       -4.540518   1.000000
    2        0.102270   1.000000
    3        4.302181   1.000000
    4        4.302181   1.000000
    5        6.725920   0.000000
    6        8.961272   0.000000
    7        8.961272   0.000000
    8       11.855663   0.000000
 
  0.4444444E+00  0.0000000E+00  0.0000000E+00  0.1371742E-02
    1       -4.346128   1.000000
    2       -0.290024   1.000000
    3        4.242310   1.000000
    4        4.242311   1.000000
    5        6.657935   0.000000
    6        8.914273   0.000000
    7        8.914273   0.000000
    8       11.769650   0.000000
 
  0.5000000E+00  0.0000000E+00  0.0000000E+00  0.6858711E-03
    1       -4.271057   1.000000
    2       -0.431356   1.000000
    3        4.222131   1.000000
    4        4.222131   1.000000
    5        6.635137   0.000000
    6        8.896061   0.000000
    7        8.896062   0.000000
    8       11.736027   0.000000
 
  0.5555556E-01  0.5555556E-01  0.0000000E+00  0.1028807E-02
    1       -5.714368   1.000000
    2        4.782238   1.000000
    3        5.032131   1.000000
    4        5.032131   1.000000
    5        7.482600   0.000000
    6        8.180140   0.000000
    7        8.492164   0.000000
    8        8.492164   0.000000
 
  0.1111111E+00  0.5555556E-01  0.0000000E+00  0.4115226E-02
    1       -5.644606   1.000000
    2        4.155403   1.000000
    3        4.876739   1.000000
    4        4.962345   1.000000
    5        7.698327   0.000000
    6        8.185878   0.000000
    7        8.720220   0.000000
    8        8.860785   0.000000
 
  0.1666667E+00  0.5555556E-01  0.0000000E+00  0.4115226E-02
    1       -5.517291   1.000000
    2        3.321221   1.000000
    3        4.698286   1.000000
    4        4.847807   1.000000
    5        7.633514   0.000000
    6        8.362673   0.000000
    7        8.981339   0.000000
    8        9.530490   0.000000
 
  0.2222222E+00  0.5555556E-01  0.0000000E+00  0.4115226E-02
    1       -5.336941   1.000000
    2        2.466069   1.000000
    3        4.524847   1.000000
    4        4.682457   1.000000
    5        7.464165   0.000000
    6        8.587305   0.000000
    7        9.194942   0.000000
    8       10.225747   0.000000
 
  0.2777778E+00  0.5555556E-01  0.0000000E+00  0.4115226E-02
    1       -5.111867   1.000000
    2        1.650594   1.000000
    3        4.374707   1.000000
    4        4.500654   1.000000
    5        7.284995   0.000000
    6        8.752507   0.000000
    7        9.295533   0.000000
    8       10.800461   0.000000
 
  0.3333333E+00  0.5555556E-01  0.0000000E+00  0.4115226E-02
    1       -4.856839   1.000000
    2        0.912415   1.000000
    3        4.258754   1.000000
    4        4.327194   1.000000
    5        7.127430   0.000000
    6        8.814591   0.000000
    7        9.279194   0.000000
    8       11.314584   0.000000
 
  0.3888889E+00  0.5555556E-01  0.0000000E+00  0.4115226E-02
    1       -4.597804   1.000000
    2        0.289398   1.000000
    3        4.177353   1.000000
    4        4.182933   1.000000
    5        7.004546   0.000000
    6        8.811669   0.000000
    7        9.196161   0.000000
    8       11.753227   0.000000
 
  0.4444444E+00  0.5555556E-01  0.0000000E+00  0.4115226E-02
    1       -4.378297   1.000000
    2       -0.168341   1.000000
    3        4.060420   1.000000
    4        4.149999   1.000000
    5        6.922336   0.000000
    6        8.799781   0.000000
    7        9.099572   0.000000
    8       11.898176   0.000000
 
  0.5000000E+00  0.5555556E-01  0.0000000E+00  0.4115226E-02
    1       -4.258140   1.000000
    2       -0.397346   1.000000
    3        3.982204   1.000000
    4        4.160451   1.000000
    5        6.883501   0.000000
    6        8.813350   0.000000
    7        9.022360   0.000000
    8       11.904587   0.000000
 
 -0.4444444E+00  0.5555556E-01  0.0000000E+00  0.4115226E-02
    1       -4.283575   1.000000
    2       -0.349886   1.000000
    3        3.946424   1.000000
    4        4.213046   1.000000
    5        6.889091   0.000000
    6        8.865520   0.000000
    7        8.978563   0.000000
    8       11.920437   0.000000
 
 -0.3888889E+00  0.5555556E-01  0.0000000E+00  0.4115226E-02
    1       -4.443870   1.000000
    2       -0.037096   1.000000
    3        3.955309   1.000000
    4        4.304945   1.000000
    5        6.939064   0.000000
    6        8.953173   0.000000
    7        8.966688   0.000000
    8       11.946287   0.000000
 
 -0.3333333E+00  0.5555556E-01  0.0000000E+00  0.4115226E-02
    1       -4.682682   1.000000
    2        0.482542   1.000000
    3        4.009763   1.000000
    4        4.431409   1.000000
    5        7.032214   0.000000
    6        8.968793   0.000000
    7        9.055958   0.000000
    8       11.838011   0.000000
 
 -0.2777778E+00  0.5555556E-01  0.0000000E+00  0.4115226E-02
    1       -4.944222   1.000000
    2        1.148442   1.000000
    3        4.109198   1.000000
    4        4.585133   1.000000
    5        7.165351   0.000000
    6        8.947759   0.000000
    7        9.128566   0.000000
    8       11.371177   0.000000
 
 -0.2222222E+00  0.5555556E-01  0.0000000E+00  0.4115226E-02
    1       -5.191425   1.000000
    2        1.914852   1.000000
    3        4.251133   1.000000
    4        4.754697   1.000000
    5        7.330841   0.000000
    6        8.858120   0.000000
    7        9.096744   0.000000
    8       10.735376   0.000000
 
 -0.1666667E+00  0.5555556E-01  0.0000000E+00  0.4115226E-02
    1       -5.402761   1.000000
    2        2.743629   1.000000
    3        4.430744   1.000000
    4        4.922316   1.000000
    5        7.509734   0.000000
    6        8.689812   0.000000
    7        8.900975   0.000000
    8       10.062481   0.000000
 
 -0.1111111E+00  0.5555556E-01  0.0000000E+00  0.4115226E-02
    1       -5.566075   1.000000
    2        3.586169   1.000000
    3        4.641831   1.000000
    4        5.061516   1.000000
    5        7.645884   0.000000
    6        8.498816   0.000000
    7        8.591072   0.000000
    8        9.383159   0.000000
 
 -0.5555556E-01  0.5555556E-01  0.0000000E+00  0.2057613E-02
    1       -5.674485   1.000000
    2        4.335307   1.000000
    3        4.887440   1.000000
    4        5.139104   1.000000
    5        7.575968   0.000000
    6        8.369453   0.000000
    7        8.376071   0.000000
    8        8.786748   0.000000
 
  0.1111111E+00  0.1111111E+00  0.0000000E+00  0.1028807E-02
    1       -5.594743   1.000000
    2        4.020014   1.000000
    3        4.693070   1.000000
    4        4.693070   1.000000
    5        7.739627   0.000000
    6        8.310440   0.000000
    7        8.996382   0.000000
    8        8.996383   0.000000
 
  0.1666667E+00  0.1111111E+00  0.0000000E+00  0.4115226E-02
    1       -5.486831   1.000000
    2        3.418140   1.000000
    3        4.496660   1.000000
    4        4.551636   1.000000
    5        7.672652   0.000000
    6        8.434454   0.000000
    7        9.306055   0.000000
    8        9.469056   0.000000
 
  0.2222222E+00  0.1111111E+00  0.0000000E+00  0.4115226E-02
    1       -5.324575   1.000000
    2        2.653873   1.000000
    3        4.313943   1.000000
    4        4.390978   1.000000
    5        7.688504   0.000000
    6        8.466020   0.000000
    7        9.572019   0.000000
    8        9.872289   0.000000
 
  0.2777778E+00  0.1111111E+00  0.0000000E+00  0.4115226E-02
    1       -5.114864   1.000000
    2        1.875663   1.000000
    3        4.161684   1.000000
    4        4.186580   1.000000
    5        7.647650   0.000000
    6        8.595204   0.000000
    7        9.719186   0.000000
    8       10.054319   0.000000
 
  0.3333333E+00  0.1111111E+00  0.0000000E+00  0.4115226E-02
    1       -4.870000   1.000000
    2        1.143779   1.000000
    3        3.971215   1.000000
    4        4.049804   1.000000
    5        7.545872   0.000000
    6        8.719697   0.000000
    7        9.724216   0.000000
    8       10.331886   0.000000
 
  0.3888889E+00  0.1111111E+00  0.0000000E+00  0.4115226E-02
    1       -4.611529   1.000000
    2        0.502223   1.000000
    3        3.770676   1.000000
    4        3.983736   1.000000
    5        7.440322   0.000000
    6        8.753144   0.000000
    7        9.631831   0.000000
    8       10.834910   0.000000
 
  0.4444444E+00  0.1111111E+00  0.0000000E+00  0.4115226E-02
    1       -4.376351   1.000000
    2       -0.000177   1.000000
    3        3.600692   1.000000
    4        3.965805   1.000000
    5        7.361287   0.000000
    6        8.746938   0.000000
    7        9.503193   0.000000
    8       11.470015   0.000000
 
  0.5000000E+00  0.1111111E+00  0.0000000E+00  0.4115226E-02
    1       -4.219416   1.000000
    2       -0.301929   1.000000
    3        3.470992   1.000000
    4        3.996007   1.000000
    5        7.320825   0.000000
    6        8.755803   0.000000
    7        9.379977   0.000000
    8       12.034491   0.000000
 
 -0.4444444E+00  0.1111111E+00  0.0000000E+00  0.4115226E-02
    1       -4.195459   1.000000
    2       -0.345425   1.000000
    3        3.388046   1.000000
    4        4.072275   1.000000
    5        7.322851   0.000000
    6        8.803926   0.000000
    7        9.282417   0.000000
    8       12.276673   0.000000
 
 -0.3888889E+00  0.1111111E+00  0.0000000E+00  0.4115226E-02
    1       -4.314428   1.000000
    2       -0.120548   1.000000
    3        3.356621   1.000000
    4        4.190482   1.000000
    5        7.367302   0.000000
    6        8.896075   0.000000
    7        9.213919   0.000000
    8       12.213465   0.000000
 
 -0.3333333E+00  0.1111111E+00  0.0000000E+00  0.4115226E-02
    1       -4.531070   1.000000
    2        0.324534   1.000000
    3        3.380676   1.000000
    4        4.343910   1.000000
    5        7.451697   0.000000
    6        9.020229   0.000000
    7        9.161412   0.000000
    8       11.784788   0.000000
 
 -0.2777778E+00  0.1111111E+00  0.0000000E+00  0.4115226E-02
    1       -4.786857   1.000000
    2        0.924102   1.000000
    3        3.464370   1.000000
    4        4.522331   1.000000
    5        7.570936   0.000000
    6        9.092906   0.000000
    7        9.135881   0.000000
    8       11.161470   0.000000
 
 -0.2222222E+00  0.1111111E+00  0.0000000E+00  0.4115226E-02
    1       -5.038951   1.000000
    2        1.620333   1.000000
    3        3.614124   1.000000
    4        4.710238   1.000000
    5        7.713884   0.000000
    6        8.967685   0.000000
    7        9.143294   0.000000
    8       10.615211   0.000000
 
 -0.1666667E+00  0.1111111E+00  0.0000000E+00  0.4115226E-02
    1       -5.261612   1.000000
    2        2.355251   1.000000
    3        3.843990   1.000000
    4        4.884456   1.000000
    5        7.849367   0.000000
    6        8.781315   0.000000
    7        8.927014   0.000000
    8       10.259693   0.000000
 
 -0.1111111E+00  0.1111111E+00  0.0000000E+00  0.2057613E-02
    1       -5.440084   1.000000
    2        3.045342   1.000000
    3        4.184495   1.000000
    4        5.013056   1.000000
    5        7.869141   0.000000
    6        8.596542   0.000000
    7        8.645267   0.000000
    8        9.907803   0.000000
 
  0.1666667E+00  0.1666667E+00  0.0000000E+00  0.1028807E-02
    1       -5.398494   1.000000
    2        3.187179   1.000000
    3        4.285862   1.000000
    4        4.285862   1.000000
    5        7.392628   0.000000
    6        8.744529   0.000000
    7        9.673851   0.000000
    8        9.673851   0.000000
 
  0.2222222E+00  0.1666667E+00  0.0000000E+00  0.4115226E-02
    1       -5.255241   1.000000
    2        2.646196   1.000000
    3        4.092277   1.000000
    4        4.092642   1.000000
    5        7.319927   0.000000
    6        8.708623   0.000000
    7        9.934729   0.000000
    8       10.011006   0.000000
 
  0.2777778E+00  0.1666667E+00  0.0000000E+00  0.4115226E-02
    1       -5.062828   1.000000
    2        1.985547   1.000000
    3        3.863720   1.000000
    4        3.932613   1.000000
    5        7.399294   0.000000
    6        8.696538   0.000000
    7        9.890528   0.000000
    8       10.233691   0.000000
 
  0.3333333E+00  0.1666667E+00  0.0000000E+00  0.4115226E-02
    1       -4.831648   1.000000
    2        1.314451   1.000000
    3        3.602389   1.000000
    4        3.816825   1.000000
    5        7.460617   0.000000
    6        8.883987   0.000000
    7        9.794803   0.000000
    8       10.292157   0.000000
 
  0.3888889E+00  0.1666667E+00  0.0000000E+00  0.4115226E-02
    1       -4.579741   1.000000
    2        0.694779   1.000000
    3        3.344630   1.000000
    4        3.750459   1.000000
    5        7.448370   0.000000
    6        9.137964   0.000000
    7        9.907506   0.000000
    8       10.216540   0.000000
 
  0.4444444E+00  0.1666667E+00  0.0000000E+00  0.4115226E-02
    1       -4.338144   1.000000
    2        0.180324   1.000000
    3        3.115934   1.000000
    4        3.736011   1.000000
    5        7.420224   0.000000
    6        9.184393   0.000000
    7       10.075576   0.000000
    8       10.440986   0.000000
 
  0.5000000E+00  0.1666667E+00  0.0000000E+00  0.4115226E-02
    1       -4.155253   1.000000
    2       -0.168074   1.000000
    3        2.931330   1.000000
    4        3.773607   1.000000
    5        7.419493   0.000000
    6        9.153084   0.000000
    7        9.922041   0.000000
    8       11.200249   0.000000
 
 -0.4444444E+00  0.1666667E+00  0.0000000E+00  0.4115226E-02
    1       -4.087447   1.000000
    2       -0.288001   1.000000
    3        2.800469   1.000000
    4        3.861198   1.000000
    5        7.461933   0.000000
    6        9.141031   0.000000
    7        9.783103   0.000000
    8       12.019782   0.000000
 
 -0.3888889E+00  0.1666667E+00  0.0000000E+00  0.4115226E-02
    1       -4.161514   1.000000
    2       -0.151794   1.000000
    3        2.731079   1.000000
    4        3.994345   1.000000
    5        7.548995   0.000000
    6        9.171384   0.000000
    7        9.665764   0.000000
    8       12.405293   0.000000
 
 -0.3333333E+00  0.1666667E+00  0.0000000E+00  0.4115226E-02
    1       -4.348048   1.000000
    2        0.206298   1.000000
    3        2.731538   1.000000
    4        4.165527   1.000000
    5        7.673834   0.000000
    6        9.245882   0.000000
    7        9.558211   0.000000
    8       11.726298   0.000000
 
 -0.2777778E+00  0.1666667E+00  0.0000000E+00  0.4115226E-02
    1       -4.590544   1.000000
    2        0.716036   1.000000
    3        2.814536   1.000000
    4        4.362927   1.000000
    5        7.821962   0.000000
    6        9.340972   0.000000
    7        9.427535   0.000000
    8       10.983014   0.000000
 
 -0.2222222E+00  0.1666667E+00  0.0000000E+00  0.4115226E-02
    1       -4.841643   1.000000
    2        1.299796   1.000000
    3        3.003672   1.000000
    4        4.568269   1.000000
    5        7.964276   0.000000
    6        9.234953   0.000000
    7        9.351731   0.000000
    8       10.421608   0.000000
 
 -0.1666667E+00  0.1666667E+00  0.0000000E+00  0.2057613E-02
    1       -5.071186   1.000000
    2        1.871487   1.000000
    3        3.339092   1.000000
    4        4.754293   1.000000
    5        8.024821   0.000000
    6        8.992296   0.000000
    7        9.119574   0.000000
    8       10.257448   0.000000
 
  0.2222222E+00  0.2222222E+00  0.0000000E+00  0.1028807E-02
    1       -5.131230   1.000000
    2        2.356798   1.000000
    3        3.887669   1.000000
    4        3.887669   1.000000
    5        7.030969   0.000000
    6        8.546045   0.000000
    7       10.441742   0.000000
    8       10.441742   0.000000
 
  0.2777778E+00  0.2222222E+00  0.0000000E+00  0.4115226E-02
    1       -4.957480   1.000000
    2        1.876287   1.000000
    3        3.668763   1.000000
    4        3.717700   1.000000
    5        6.984692   0.000000
    6        8.353167   0.000000
    7       10.585237   0.000000
    8       10.774977   0.000000
 
  0.3333333E+00  0.2222222E+00  0.0000000E+00  0.4115226E-02
    1       -4.742876   1.000000
    2        1.327457   1.000000
    3        3.376699   1.000000
    4        3.592999   1.000000
    5        7.090928   0.000000
    6        8.349135   0.000000
    7       10.469633   0.000000
    8       10.928726   0.000000
 
  0.3888889E+00  0.2222222E+00  0.0000000E+00  0.4115226E-02
    1       -4.502875   1.000000
    2        0.785577   1.000000
    3        3.054088   1.000000
    4        3.519612   1.000000
    5        7.166505   0.000000
    6        8.662193   0.000000
    7       10.313070   0.000000
    8       10.902776   0.000000
 
  0.4444444E+00  0.2222222E+00  0.0000000E+00  0.4115226E-02
    1       -4.263791   1.000000
    2        0.308210   1.000000
    3        2.750332   1.000000
    4        3.500473   1.000000
    5        7.184272   0.000000
    6        9.245153   0.000000
    7       10.182281   0.000000
    8       10.770871   0.000000
 
  0.5000000E+00  0.2222222E+00  0.0000000E+00  0.4115226E-02
    1       -4.067331   1.000000
    2       -0.044635   1.000000
    3        2.494868   1.000000
    4        3.536086   1.000000
    5        7.209819   0.000000
    6        9.833893   0.000000
    7       10.251075   0.000000
    8       10.601741   0.000000
 
 -0.4444444E+00  0.2222222E+00  0.0000000E+00  0.4115226E-02
    1       -3.966531   1.000000
    2       -0.210275   1.000000
    3        2.304466   1.000000
    4        3.624743   1.000000
    5        7.277742   0.000000
    6        9.888373   0.000000
    7       10.432026   0.000000
    8       11.001182   0.000000
 
 -0.3888889E+00  0.2222222E+00  0.0000000E+00  0.4115226E-02
    1       -3.997792   1.000000
    2       -0.150922   1.000000
    3        2.192046   1.000000
    4        3.762269   1.000000
    5        7.396575   0.000000
    6        9.868510   0.000000
    7       10.271152   0.000000
    8       11.925643   0.000000
 
 -0.3333333E+00  0.2222222E+00  0.0000000E+00  0.4115226E-02
    1       -4.148340   1.000000
    2        0.111387   1.000000
    3        2.173764   1.000000
    4        3.941255   1.000000
    5        7.561107   0.000000
    6        9.882195   0.000000
    7       10.102643   0.000000
    8       11.684218   0.000000
 
 -0.2777778E+00  0.2222222E+00  0.0000000E+00  0.4115226E-02
    1       -4.369229   1.000000
    2        0.501498   1.000000
    3        2.276867   1.000000
    4        4.149636   1.000000
    5        7.752718   0.000000
    6        9.882258   0.000000
    7        9.919952   0.000000
    8       10.866139   0.000000
 
 -0.2222222E+00  0.2222222E+00  0.0000000E+00  0.2057613E-02
    1       -4.611550   1.000000
    2        0.923242   1.000000
    3        2.543791   1.000000
    4        4.368305   1.000000
    5        7.925819   0.000000
    6        9.575559   0.000000
    7        9.790813   0.000000
    8       10.360995   0.000000
 
  0.2777778E+00  0.2777778E+00  0.0000000E+00  0.1028807E-02
    1       -4.803038   1.000000
    2        1.556531   1.000000
    3        3.536207   1.000000
    4        3.536207   1.000000
    5        6.723272   0.000000
    6        8.003616   0.000000
    7       11.257304   0.000000
    8       11.257305   0.000000
 
  0.3333333E+00  0.2777778E+00  0.0000000E+00  0.4115226E-02
    1       -4.607396   1.000000
    2        1.134967   1.000000
    3        3.312429   1.000000
    4        3.399851   1.000000
    5        6.712737   0.000000
    6        7.809476   0.000000
    7       11.398152   0.000000
    8       11.567383   0.000000
 
  0.3888889E+00  0.2777778E+00  0.0000000E+00  0.4115226E-02
    1       -4.384270   1.000000
    2        0.697084   1.000000
    3        2.977532   1.000000
    4        3.315441   1.000000
    5        6.832655   0.000000
    6        7.886862   0.000000
    7       11.287065   0.000000
    8       11.643954   0.000000
 
  0.4444444E+00  0.2777778E+00  0.0000000E+00  0.4115226E-02
    1       -4.156529   1.000000
    2        0.298826   1.000000
    3        2.606423   1.000000
    4        3.286482   1.000000
    5        6.902799   0.000000
    6        8.324621   0.000000
    7       11.132750   0.000000
    8       11.550617   0.000000
 
  0.5000000E+00  0.2777778E+00  0.0000000E+00  0.4115226E-02
    1       -3.960189   1.000000
    2       -0.008802   1.000000
    3        2.265959   1.000000
    4        3.313996   1.000000
    5        6.945921   0.000000
    6        9.022085   0.000000
    7       10.989505   0.000000
    8       11.381135   0.000000
 
 -0.4444444E+00  0.2777778E+00  0.0000000E+00  0.4115226E-02
    1       -3.842178   1.000000
    2       -0.173172   1.000000
    3        1.996815   1.000000
    4        3.396750   1.000000
    5        7.022123   0.000000
    6        9.864036   0.000000
    7       10.882815   0.000000
    8       11.187687   0.000000
 
 -0.3888889E+00  0.2777778E+00  0.0000000E+00  0.4115226E-02
    1       -3.840353   1.000000
    2       -0.160488   1.000000
    3        1.827571   1.000000
    4        3.531081   1.000000
    5        7.150822   0.000000
    6       10.647921   0.000000
    7       10.968462   0.000000
    8       10.979732   0.000000
 
 -0.3333333E+00  0.2777778E+00  0.0000000E+00  0.4115226E-02
    1       -3.954049   1.000000
    2        0.008900   1.000000
    3        1.790005   1.000000
    4        3.710140   1.000000
    5        7.331043   0.000000
    6       10.709998   0.000000
    7       10.722861   0.000000
    8       11.654334   0.000000
 
 -0.2777778E+00  0.2777778E+00  0.0000000E+00  0.2057613E-02
    1       -4.145459   1.000000
    2        0.257388   1.000000
    3        1.928058   1.000000
    4        3.922492   1.000000
    5        7.546754   0.000000
    6       10.352411   0.000000
    7       10.603829   0.000000
    8       10.916893   0.000000
 
  0.3333333E+00  0.3333333E+00  0.0000000E+00  0.1028807E-02
    1       -4.432563   1.000000
    2        0.811861   1.000000
    3        3.250560   1.000000
    4        3.250561   1.000000
    5        6.493524   0.000000
    6        7.458480   0.000000
    7       12.097242   0.000000
    8       12.097242   0.000000
 
  0.3888889E+00  0.3333333E+00  0.0000000E+00  0.4115226E-02
    1       -4.231130   1.000000
    2        0.456630   1.000000
    3        3.037898   1.000000
    4        3.152926   1.000000
    5        6.521868   0.000000
    6        7.323314   0.000000
    7       12.254199   0.000000
    8       12.371483   0.000000
 
  0.4444444E+00  0.3333333E+00  0.0000000E+00  0.4115226E-02
    1       -4.024050   1.000000
    2        0.134552   1.000000
    3        2.686543   1.000000
    4        3.111150   1.000000
    5        6.642874   0.000000
    6        7.519383   0.000000
    7       12.155593   0.000000
    8       12.373705   0.000000
 
  0.5000000E+00  0.3333333E+00  0.0000000E+00  0.4115226E-02
    1       -3.843159   1.000000
    2       -0.107538   1.000000
    3        2.295873   1.000000
    4        3.126824   1.000000
    5        6.711275   0.000000
    6        8.083354   0.000000
    7       12.007074   0.000000
    8       12.225963   0.000000
 
 -0.4444444E+00  0.3333333E+00  0.0000000E+00  0.4115226E-02
    1       -3.728337   1.000000
    2       -0.231669   1.000000
    3        1.950118   1.000000
    4        3.199258   1.000000
    5        6.790409   0.000000
    6        8.868541   0.000000
    7       11.863990   0.000000
    8       12.010906   0.000000
 
 -0.3888889E+00  0.3333333E+00  0.0000000E+00  0.4115226E-02
    1       -3.711852   1.000000
    2       -0.223290   1.000000
    3        1.711067   1.000000
    4        3.325401   1.000000
    5        6.919758   0.000000
    6        9.782266   0.000000
    7       11.729628   0.000000
    8       11.740158   0.000000
 
 -0.3333333E+00  0.3333333E+00  0.0000000E+00  0.2057613E-02
    1       -3.796225   1.000000
    2       -0.117829   1.000000
    3        1.638591   1.000000
    4        3.499162   1.000000
    5        7.104100   0.000000
    6       10.763751   0.000000
    7       11.307235   0.000000
    8       11.550908   0.000000
 
  0.3888889E+00  0.3888889E+00  0.0000000E+00  0.1028807E-02
    1       -4.056253   1.000000
    2        0.163892   1.000000
    3        3.041041   1.000000
    4        3.041041   1.000000
    5        6.353930   0.000000
    6        7.012816   0.000000
    7       12.941541   0.000000
    8       12.941542   0.000000
 
  0.4444444E+00  0.3888889E+00  0.0000000E+00  0.4115226E-02
    1       -3.880227   1.000000
    2       -0.100265   1.000000
    3        2.852102   1.000000
    4        2.984804   1.000000
    5        6.418736   0.000000
    6        6.957965   0.000000
    7       13.107547   0.000000
    8       13.165577   0.000000
 
  0.5000000E+00  0.3888889E+00  0.0000000E+00  0.4115226E-02
    1       -3.732202   1.000000
    2       -0.283136   1.000000
    3        2.510902   1.000000
    4        2.986433   1.000000
    5        6.528128   0.000000
    6        7.290443   0.000000
    7       13.013970   0.000000
    8       13.087798   0.000000
 
 -0.4444444E+00  0.3888889E+00  0.0000000E+00  0.4115226E-02
    1       -3.644803   1.000000
    2       -0.353572   1.000000
    3        2.138479   1.000000
    4        3.045825   1.000000
    5        6.611288   0.000000
    6        7.961812   0.000000
    7       12.840489   0.000000
    8       12.844373   0.000000
 
 -0.3888889E+00  0.3888889E+00  0.0000000E+00  0.2057613E-02
    1       -3.639128   1.000000
    2       -0.315015   1.000000
    3        1.840647   1.000000
    4        3.160568   1.000000
    5        6.736943   0.000000
    6        8.816449   0.000000
    7       12.399648   0.000000
    8       12.536519   0.000000
 
  0.4444444E+00  0.4444444E+00  0.0000000E+00  0.1028807E-02
    1       -3.746438   1.000000
    2       -0.310956   1.000000
    3        2.913383   1.000000
    4        2.913383   1.000000
    5        6.306200   0.000000
    6        6.701206   0.000000
    7       13.735254   0.000000
    8       13.735254   0.000000
 
  0.5000000E+00  0.4444444E+00  0.0000000E+00  0.4115226E-02
    1       -3.649873   1.000000
    2       -0.435109   1.000000
    3        2.758478   1.000000
    4        2.899785   1.000000
    5        6.391420   0.000000
    6        6.747516   0.000000
    7       13.843381   0.000000
    8       13.844944   0.000000
 
 -0.4444444E+00  0.4444444E+00  0.0000000E+00  0.2057613E-02
    1       -3.613977   1.000000
    2       -0.444169   1.000000
    3        2.452297   1.000000
    4        2.944524   1.000000
    5        6.489896   0.000000
    6        7.213008   0.000000
    7       13.522243   0.000000
    8       13.576552   0.000000
 
  0.5000000E+00  0.5000000E+00  0.0000000E+00  0.5144033E-03
    1       -3.619033   1.000000
    2       -0.493760   1.000000
    3        2.870523   1.000000
    4        2.870523   1.000000
    5        6.313173   0.000000
    6        6.573390   0.000000
    7       14.173570   0.000000
    8       14.173570   0.000000
 