 running on   48 total cores
 distrk:  each k-point on   12 cores,    4 groups
 distr:  one band on   12 cores,    1 groups
 using from now: INCAR     
 vasp.5.4.4.18Apr17-6-g9f103f2a35 (build Nov 04 2020 14:40:39) complex          
  
 POSCAR found type information on POSCAR  Al Sb
 POSCAR found :  2 types and       2 ions
 scaLAPACK will be used

 ----------------------------------------------------------------------------- 
|                                                                             |
|           W    W    AA    RRRRR   N    N  II  N    N   GGGG   !!!           |
|           W    W   A  A   R    R  NN   N  II  NN   N  G    G  !!!           |
|           W    W  A    A  R    R  N N  N  II  N N  N  G       !!!           |
|           W WW W  AAAAAA  RRRRR   N  N N  II  N  N N  G  GGG   !            |
|           WW  WW  A    A  R   R   N   NN  II  N   NN  G    G                |
|           W    W  A    A  R    R  N    N  II  N    N   GGGG   !!!           |
|                                                                             |
|      You have enabled k-point parallelism (KPAR>1).                         |
|      This developmental code was originally  written by Paul Kent at ORNL,  |
|      and carefully double checked in Vienna.                                |
|      GW as well as linear response parallelism added by Martijn Marsman     |
|      and Georg Kresse.                                                      |
|      Carefully verify results versus KPAR=1.                                |
|      Report problems to Paul Kent and Vienna.                               |
|                                                                             |
 ----------------------------------------------------------------------------- 

 LDA part: xc-table for Pade appr. of Perdew
 POSCAR found type information on POSCAR  Al Sb
 POSCAR found :  2 types and       2 ions
 generate k-points for:   18   18   18
 POSCAR, INCAR and KPOINTS ok, starting setup
 FFT: planning ...
 WAVECAR not read
 entering main loop
       N       E                     dE             d eps       ncg     rms          rms(c)
DAV:   1     0.137768259029E+02    0.13777E+02   -0.27981E+03  3120   0.735E+02
DAV:   2    -0.777713104739E+01   -0.21554E+02   -0.21176E+02  4360   0.844E+01
DAV:   3    -0.821854855875E+01   -0.44142E+00   -0.44142E+00  4160   0.140E+01
DAV:   4    -0.822102516349E+01   -0.24766E-02   -0.24766E-02  4720   0.130E+00
DAV:   5    -0.822103500504E+01   -0.98415E-05   -0.98415E-05  4192   0.634E-02    0.217E+00
RMM:   6    -0.815093406119E+01    0.70101E-01   -0.53710E-02  3123   0.134E+00    0.130E+00
RMM:   7    -0.812747870113E+01    0.23455E-01   -0.75947E-02  3186   0.169E+00    0.196E-01
RMM:   8    -0.812821351372E+01   -0.73481E-03   -0.32681E-03  3287   0.417E-01    0.527E-02
RMM:   9    -0.812854344968E+01   -0.32994E-03   -0.57836E-04  3312   0.168E-01    0.156E-02
RMM:  10    -0.812854297258E+01    0.47710E-06   -0.49606E-05  3689   0.511E-02    0.495E-03
RMM:  11    -0.812854529351E+01   -0.23209E-05   -0.95172E-06  3525   0.237E-02    0.217E-03
RMM:  12    -0.812854580385E+01   -0.51034E-06   -0.51430E-07  2589   0.643E-03
   1 F= -.81285458E+01 E0= -.81285458E+01  d E =0.000000E+00
