   2   2   0   0
  0.2904384E+02  0.4347100E-09  0.4347100E-09  0.4347100E-09  0.0000000E+00
  1.000000000000000E-004
  CAR 
 unknown system                          
     14.47504885     -6.88830798  301      4.79922849      1.00000000
     -6.888  0.0000E+00  0.0000E+00
     -6.817  0.0000E+00  0.0000E+00
     -6.746  0.0000E+00  0.0000E+00
     -6.675  0.0000E+00  0.0000E+00
     -6.603  0.0000E+00  0.0000E+00
     -6.532  0.0000E+00  0.0000E+00
     -6.461  0.0000E+00  0.0000E+00
     -6.390  0.0000E+00  0.0000E+00
     -6.319  0.0000E+00  0.0000E+00
     -6.247  0.0000E+00  0.0000E+00
     -6.176  0.0000E+00  0.0000E+00
     -6.105  0.0000E+00  0.0000E+00
     -6.034  0.0000E+00  0.0000E+00
     -5.963  0.0000E+00  0.0000E+00
     -5.891  0.8841E-01  0.7631E-03
     -5.820  0.1779E+00  0.1015E-01
     -5.749  0.2406E+00  0.2477E-01
     -5.678  0.2875E+00  0.4365E-01
     -5.607  0.3414E+00  0.6604E-01
     -5.535  0.3809E+00  0.9168E-01
     -5.464  0.4272E+00  0.1204E+00
     -5.393  0.4675E+00  0.1523E+00
     -5.322  0.5109E+00  0.1871E+00
     -5.250  0.5566E+00  0.2251E+00
     -5.179  0.6012E+00  0.2663E+00
     -5.108  0.6503E+00  0.3109E+00
     -5.037  0.7029E+00  0.3590E+00
     -4.966  0.7613E+00  0.4111E+00
     -4.894  0.8260E+00  0.4676E+00
     -4.823  0.8987E+00  0.5289E+00
     -4.752  0.9927E+00  0.5962E+00
     -4.681  0.1107E+01  0.6708E+00
     -4.610  0.1257E+01  0.7546E+00
     -4.538  0.1566E+01  0.8536E+00
     -4.467  0.1714E+01  0.9780E+00
     -4.396  0.1718E+01  0.1100E+01
     -4.325  0.1720E+01  0.1223E+01
     -4.253  0.1701E+01  0.1344E+01
     -4.182  0.1730E+01  0.1466E+01
     -4.111  0.1757E+01  0.1590E+01
     -4.040  0.1856E+01  0.1719E+01
     -3.969  0.2189E+01  0.1860E+01
     -3.897  0.1601E+00  0.2000E+01
     -3.826  0.0000E+00  0.2000E+01
     -3.755  0.0000E+00  0.2000E+01
     -3.684  0.0000E+00  0.2000E+01
     -3.613  0.0000E+00  0.2000E+01
     -3.541  0.0000E+00  0.2000E+01
     -3.470  0.0000E+00  0.2000E+01
     -3.399  0.0000E+00  0.2000E+01
     -3.328  0.0000E+00  0.2000E+01
     -3.257  0.0000E+00  0.2000E+01
     -3.185  0.0000E+00  0.2000E+01
     -3.114  0.0000E+00  0.2000E+01
     -3.043  0.0000E+00  0.2000E+01
     -2.972  0.0000E+00  0.2000E+01
     -2.900  0.0000E+00  0.2000E+01
     -2.829  0.0000E+00  0.2000E+01
     -2.758  0.0000E+00  0.2000E+01
     -2.687  0.0000E+00  0.2000E+01
     -2.616  0.0000E+00  0.2000E+01
     -2.544  0.0000E+00  0.2000E+01
     -2.473  0.0000E+00  0.2000E+01
     -2.402  0.0000E+00  0.2000E+01
     -2.331  0.0000E+00  0.2000E+01
     -2.260  0.0000E+00  0.2000E+01
     -2.188  0.0000E+00  0.2000E+01
     -2.117  0.0000E+00  0.2000E+01
     -2.046  0.0000E+00  0.2000E+01
     -1.975  0.0000E+00  0.2000E+01
     -1.904  0.0000E+00  0.2000E+01
     -1.832  0.0000E+00  0.2000E+01
     -1.761  0.0000E+00  0.2000E+01
     -1.690  0.0000E+00  0.2000E+01
     -1.619  0.0000E+00  0.2000E+01
     -1.547  0.0000E+00  0.2000E+01
     -1.476  0.0000E+00  0.2000E+01
     -1.405  0.0000E+00  0.2000E+01
     -1.334  0.0000E+00  0.2000E+01
     -1.263  0.0000E+00  0.2000E+01
     -1.191  0.0000E+00  0.2000E+01
     -1.120  0.0000E+00  0.2000E+01
     -1.049  0.0000E+00  0.2000E+01
     -0.978  0.0000E+00  0.2000E+01
     -0.907  0.0000E+00  0.2000E+01
     -0.835  0.0000E+00  0.2000E+01
     -0.764  0.0000E+00  0.2000E+01
     -0.693  0.2890E+00  0.2007E+01
     -0.622  0.7172E+00  0.2039E+01
     -0.551  0.1687E+01  0.2127E+01
     -0.479  0.3087E+01  0.2303E+01
     -0.408  0.3165E+01  0.2594E+01
     -0.337  0.1977E+01  0.2766E+01
     -0.266  0.1463E+01  0.2886E+01
     -0.194  0.1224E+01  0.2981E+01
     -0.123  0.1046E+01  0.3062E+01
     -0.052  0.8945E+00  0.3131E+01
      0.019  0.8094E+00  0.3192E+01
      0.090  0.7365E+00  0.3247E+01
      0.162  0.6620E+00  0.3296E+01
      0.233  0.5960E+00  0.3341E+01
      0.304  0.5585E+00  0.3382E+01
      0.375  0.5220E+00  0.3421E+01
      0.446  0.4843E+00  0.3457E+01
      0.518  0.4481E+00  0.3490E+01
      0.589  0.4115E+00  0.3520E+01
      0.660  0.3911E+00  0.3549E+01
      0.731  0.3702E+00  0.3576E+01
      0.803  0.3497E+00  0.3601E+01
      0.874  0.3286E+00  0.3626E+01
      0.945  0.3048E+00  0.3648E+01
      1.016  0.2840E+00  0.3669E+01
      1.087  0.2719E+00  0.3689E+01
      1.159  0.2597E+00  0.3708E+01
      1.230  0.2473E+00  0.3726E+01
      1.301  0.2332E+00  0.3743E+01
      1.372  0.2193E+00  0.3759E+01
      1.443  0.3253E+00  0.3776E+01
      1.515  0.8033E+00  0.3821E+01
      1.586  0.1267E+01  0.3893E+01
      1.657  0.1637E+01  0.4004E+01
      1.728  0.1492E+01  0.4118E+01
      1.799  0.1345E+01  0.4216E+01
      1.871  0.1312E+01  0.4311E+01
      1.942  0.1233E+01  0.4403E+01
      2.013  0.1180E+01  0.4488E+01
      2.084  0.1189E+01  0.4572E+01
      2.156  0.1249E+01  0.4659E+01
      2.227  0.1323E+01  0.4751E+01
      2.298  0.1346E+01  0.4847E+01
      2.369  0.1452E+01  0.4945E+01
      2.440  0.1487E+01  0.5050E+01
      2.512  0.1652E+01  0.5163E+01
      2.583  0.1938E+01  0.5292E+01
      2.654  0.1951E+01  0.5430E+01
      2.725  0.1895E+01  0.5567E+01
      2.796  0.1862E+01  0.5700E+01
      2.868  0.1844E+01  0.5832E+01
      2.939  0.1810E+01  0.5962E+01
      3.010  0.1767E+01  0.6090E+01
      3.081  0.1761E+01  0.6215E+01
      3.152  0.1739E+01  0.6340E+01
      3.224  0.1701E+01  0.6462E+01
      3.295  0.1678E+01  0.6582E+01
      3.366  0.1657E+01  0.6701E+01
      3.437  0.1620E+01  0.6818E+01
      3.509  0.1616E+01  0.6933E+01
      3.580  0.1603E+01  0.7048E+01
      3.651  0.1596E+01  0.7162E+01
      3.722  0.1575E+01  0.7274E+01
      3.793  0.1551E+01  0.7386E+01
      3.865  0.1311E+01  0.7492E+01
      3.936  0.1068E+01  0.7577E+01
      4.007  0.9227E+00  0.7648E+01
      4.078  0.8039E+00  0.7709E+01
      4.149  0.7101E+00  0.7763E+01
      4.221  0.6252E+00  0.7810E+01
      4.292  0.5555E+00  0.7852E+01
      4.363  0.4829E+00  0.7889E+01
      4.434  0.4093E+00  0.7921E+01
      4.505  0.3665E+00  0.7948E+01
      4.577  0.2830E+00  0.7971E+01
      4.648  0.1901E+00  0.7989E+01
      4.719  0.1130E+00  0.7999E+01
      4.790  0.0000E+00  0.8000E+01
      4.862  0.0000E+00  0.8000E+01
      4.933  0.0000E+00  0.8000E+01
      5.004  0.0000E+00  0.8000E+01
      5.075  0.0000E+00  0.8000E+01
      5.146  0.0000E+00  0.8000E+01
      5.218  0.0000E+00  0.8000E+01
      5.289  0.0000E+00  0.8000E+01
      5.360  0.0000E+00  0.8000E+01
      5.431  0.0000E+00  0.8000E+01
      5.502  0.0000E+00  0.8000E+01
      5.574  0.0000E+00  0.8000E+01
      5.645  0.0000E+00  0.8000E+01
      5.716  0.0000E+00  0.8000E+01
      5.787  0.0000E+00  0.8000E+01
      5.858  0.0000E+00  0.8000E+01
      5.930  0.0000E+00  0.8000E+01
      6.001  0.4726E-01  0.8001E+01
      6.072  0.1733E+00  0.8009E+01
      6.143  0.2700E+00  0.8025E+01
      6.215  0.3712E+00  0.8047E+01
      6.286  0.5075E+00  0.8078E+01
      6.357  0.6584E+00  0.8120E+01
      6.428  0.7450E+00  0.8170E+01
      6.499  0.8425E+00  0.8226E+01
      6.571  0.9467E+00  0.8290E+01
      6.642  0.1059E+01  0.8362E+01
      6.713  0.1186E+01  0.8441E+01
      6.784  0.1345E+01  0.8531E+01
      6.855  0.1558E+01  0.8634E+01
      6.927  0.1834E+01  0.8755E+01
      6.998  0.2154E+01  0.8897E+01
      7.069  0.2376E+01  0.9059E+01
      7.140  0.2145E+01  0.9220E+01
      7.212  0.2186E+01  0.9372E+01
      7.283  0.1713E+01  0.9515E+01
      7.354  0.1593E+01  0.9633E+01
      7.425  0.1477E+01  0.9742E+01
      7.496  0.1414E+01  0.9848E+01
      7.568  0.1099E+01  0.9939E+01
      7.639  0.8972E+00  0.1001E+02
      7.710  0.8973E+00  0.1007E+02
      7.781  0.9730E+00  0.1014E+02
      7.852  0.9673E+00  0.1021E+02
      7.924  0.1048E+01  0.1028E+02
      7.995  0.1216E+01  0.1036E+02
      8.066  0.1360E+01  0.1045E+02
      8.137  0.1218E+01  0.1055E+02
      8.208  0.1242E+01  0.1064E+02
      8.280  0.1771E+01  0.1074E+02
      8.351  0.3557E+01  0.1095E+02
      8.422  0.2354E+01  0.1114E+02
      8.493  0.2236E+01  0.1130E+02
      8.565  0.1862E+01  0.1145E+02
      8.636  0.1760E+01  0.1158E+02
      8.707  0.1718E+01  0.1170E+02
      8.778  0.1482E+01  0.1182E+02
      8.849  0.1410E+01  0.1192E+02
      8.921  0.1347E+01  0.1202E+02
      8.992  0.1345E+01  0.1211E+02
      9.063  0.1333E+01  0.1221E+02
      9.134  0.1446E+01  0.1231E+02
      9.205  0.1688E+01  0.1242E+02
      9.277  0.1804E+01  0.1254E+02
      9.348  0.2244E+01  0.1268E+02
      9.419  0.1833E+01  0.1282E+02
      9.490  0.1531E+01  0.1294E+02
      9.561  0.1635E+01  0.1305E+02
      9.633  0.1699E+01  0.1317E+02
      9.704  0.1661E+01  0.1329E+02
      9.775  0.1601E+01  0.1340E+02
      9.846  0.1477E+01  0.1351E+02
      9.918  0.1369E+01  0.1361E+02
      9.989  0.1308E+01  0.1371E+02
     10.060  0.1290E+01  0.1380E+02
     10.131  0.1328E+01  0.1389E+02
     10.202  0.1317E+01  0.1399E+02
     10.274  0.1254E+01  0.1408E+02
     10.345  0.1308E+01  0.1417E+02
     10.416  0.1220E+01  0.1426E+02
     10.487  0.9386E+00  0.1434E+02
     10.558  0.9920E+00  0.1441E+02
     10.630  0.1087E+01  0.1448E+02
     10.701  0.1114E+01  0.1456E+02
     10.772  0.1168E+01  0.1464E+02
     10.843  0.1275E+01  0.1473E+02
     10.914  0.1270E+01  0.1482E+02
     10.986  0.1284E+01  0.1491E+02
     11.057  0.1262E+01  0.1500E+02
     11.128  0.1139E+01  0.1509E+02
     11.199  0.1046E+01  0.1516E+02
     11.271  0.9713E+00  0.1524E+02
     11.342  0.9472E+00  0.1530E+02
     11.413  0.9514E+00  0.1537E+02
     11.484  0.9804E+00  0.1544E+02
     11.555  0.9534E+00  0.1551E+02
     11.627  0.8535E+00  0.1557E+02
     11.698  0.6882E+00  0.1563E+02
     11.769  0.4936E+00  0.1567E+02
     11.840  0.3874E+00  0.1570E+02
     11.911  0.3705E+00  0.1573E+02
     11.983  0.3521E+00  0.1575E+02
     12.054  0.3333E+00  0.1578E+02
     12.125  0.3128E+00  0.1580E+02
     12.196  0.2907E+00  0.1582E+02
     12.268  0.2663E+00  0.1584E+02
     12.339  0.2489E+00  0.1586E+02
     12.410  0.2400E+00  0.1588E+02
     12.481  0.2321E+00  0.1590E+02
     12.552  0.2064E+00  0.1591E+02
     12.624  0.1776E+00  0.1593E+02
     12.695  0.1545E+00  0.1594E+02
     12.766  0.1368E+00  0.1595E+02
     12.837  0.1222E+00  0.1596E+02
     12.908  0.1101E+00  0.1596E+02
     12.980  0.1018E+00  0.1597E+02
     13.051  0.9332E-01  0.1598E+02
     13.122  0.9436E-01  0.1599E+02
     13.193  0.8320E-01  0.1599E+02
     13.264  0.4186E-01  0.1600E+02
     13.336  0.2067E-01  0.1600E+02
     13.407  0.6880E-02  0.1600E+02
     13.478  0.4893E-03  0.1600E+02
     13.549  0.0000E+00  0.1600E+02
     13.621  0.0000E+00  0.1600E+02
     13.692  0.0000E+00  0.1600E+02
     13.763  0.0000E+00  0.1600E+02
     13.834  0.0000E+00  0.1600E+02
     13.905  0.0000E+00  0.1600E+02
     13.977  0.0000E+00  0.1600E+02
     14.048  0.0000E+00  0.1600E+02
     14.119  0.0000E+00  0.1600E+02
     14.190  0.0000E+00  0.1600E+02
     14.261  0.0000E+00  0.1600E+02
     14.333  0.0000E+00  0.1600E+02
     14.404  0.0000E+00  0.1600E+02
     14.475  0.0000E+00  0.1600E+02
