    2    2    1    1
  0.2904384E+02  0.4347100E-09  0.4347100E-09  0.4347100E-09  0.0000000E+00
  1.000000000000000E-004
  CAR 
 unknown system                          
      8    195      8
 
  0.0000000E+00  0.0000000E+00  0.0000000E+00  0.1714678E-03
    1       -5.917246   1.000000
    2        4.764713   1.000000
    3        4.764713   1.000000
    4        4.764713   1.000000
    5        6.366512   0.000000
    6        7.861849   0.000000
    7        7.861849   0.000000
    8        7.861850   0.000000
 
  0.5555556E-01  0.0000000E+00  0.0000000E+00  0.1371742E-02
    1       -5.888648   1.000000
    2        4.342991   1.000000
    3        4.722896   1.000000
    4        4.722896   1.000000
    5        6.639437   0.000000
    6        7.926414   0.000000
    7        7.926415   0.000000
    8        7.946988   0.000000
 
  0.1111111E+00  0.0000000E+00  0.0000000E+00  0.1371742E-02
    1       -5.803631   1.000000
    2        3.543979   1.000000
    3        4.611458   1.000000
    4        4.611458   1.000000
    5        6.856909   0.000000
    6        8.096099   0.000000
    7        8.096100   0.000000
    8        8.370591   0.000000
 
  0.1666667E+00  0.0000000E+00  0.0000000E+00  0.1371742E-02
    1       -5.665108   1.000000
    2        2.686382   1.000000
    3        4.460962   1.000000
    4        4.460962   1.000000
    5        6.786931   0.000000
    6        8.309113   0.000000
    7        8.309113   0.000000
    8        9.111552   0.000000
 
  0.2222222E+00  0.0000000E+00  0.0000000E+00  0.1371742E-02
    1       -5.478711   1.000000
    2        1.852770   1.000000
    3        4.300657   1.000000
    4        4.300657   1.000000
    5        6.621846   0.000000
    6        8.488255   0.000000
    7        8.488255   0.000000
    8        9.951057   0.000000
 
  0.2777778E+00  0.0000000E+00  0.0000000E+00  0.1371742E-02
    1       -5.254473   1.000000
    2        1.080603   1.000000
    3        4.151305   1.000000
    4        4.151305   1.000000
    5        6.450972   0.000000
    6        8.577835   0.000000
    7        8.577835   0.000000
    8       10.780818   0.000000
 
  0.3333333E+00  0.0000000E+00  0.0000000E+00  0.1371742E-02
    1       -5.009938   1.000000
    2        0.400754   1.000000
    3        4.025928   1.000000
    4        4.025929   1.000000
    5        6.305094   0.000000
    6        8.580608   0.000000
    7        8.580608   0.000000
    8       11.369493   0.000000
 
  0.3888889E+00  0.0000000E+00  0.0000000E+00  0.1371742E-02
    1       -4.774975   1.000000
    2       -0.149380   1.000000
    3        3.932222   1.000000
    4        3.932222   1.000000
    5        6.196266   0.000000
    6        8.540646   0.000000
    7        8.540647   0.000000
    8       11.424860   0.000000
 
  0.4444444E+00  0.0000000E+00  0.0000000E+00  0.1371742E-02
    1       -4.596068   1.000000
    2       -0.518884   1.000000
    3        3.874551   1.000000
    4        3.874551   1.000000
    5        6.129619   0.000000
    6        8.500443   0.000000
    7        8.500444   0.000000
    8       11.356773   0.000000
 
  0.5000000E+00  0.0000000E+00  0.0000000E+00  0.6858711E-03
    1       -4.527510   1.000000
    2       -0.651250   1.000000
    3        3.855102   1.000000
    4        3.855102   1.000000
    5        6.107216   0.000000
    6        8.484513   0.000000
    7        8.484513   0.000000
    8       11.327164   0.000000
 
  0.5555556E-01  0.5555556E-01  0.0000000E+00  0.1028807E-02
    1       -5.879083   1.000000
    2        4.346730   1.000000
    3        4.632535   1.000000
    4        4.632535   1.000000
    5        6.771341   0.000000
    6        7.746411   0.000000
    7        8.047937   0.000000
    8        8.047937   0.000000
 
  0.1111111E+00  0.5555556E-01  0.0000000E+00  0.4115226E-02
    1       -5.812785   1.000000
    2        3.731717   1.000000
    3        4.485871   1.000000
    4        4.561599   1.000000
    5        7.050312   0.000000
    6        7.737039   0.000000
    7        8.265288   0.000000
    8        8.365940   0.000000
 
  0.1666667E+00  0.5555556E-01  0.0000000E+00  0.4115226E-02
    1       -5.691933   1.000000
    2        2.925485   1.000000
    3        4.316183   1.000000
    4        4.450569   1.000000
    5        7.054100   0.000000
    6        7.907042   0.000000
    7        8.516812   0.000000
    8        8.963161   0.000000
 
  0.2222222E+00  0.5555556E-01  0.0000000E+00  0.4115226E-02
    1       -5.521104   1.000000
    2        2.103598   1.000000
    3        4.150347   1.000000
    4        4.291679   1.000000
    5        6.911497   0.000000
    6        8.135682   0.000000
    7        8.727399   0.000000
    8        9.640096   0.000000
 
  0.2777778E+00  0.5555556E-01  0.0000000E+00  0.4115226E-02
    1       -5.308643   1.000000
    2        1.322547   1.000000
    3        4.006148   1.000000
    4        4.117047   1.000000
    5        6.744104   0.000000
    6        8.310201   0.000000
    7        8.834996   0.000000
    8       10.248140   0.000000
 
  0.3333333E+00  0.5555556E-01  0.0000000E+00  0.4115226E-02
    1       -5.069147   1.000000
    2        0.618024   1.000000
    3        3.894282   1.000000
    4        3.950454   1.000000
    5        6.592688   0.000000
    6        8.386092   0.000000
    7        8.832140   0.000000
    8       10.794543   0.000000
 
  0.3888889E+00  0.5555556E-01  0.0000000E+00  0.4115226E-02
    1       -4.827687   1.000000
    2        0.026309   1.000000
    3        3.806706   1.000000
    4        3.820678   1.000000
    5        6.473150   0.000000
    6        8.395457   0.000000
    7        8.762660   0.000000
    8       11.265674   0.000000
 
  0.4444444E+00  0.5555556E-01  0.0000000E+00  0.4115226E-02
    1       -4.625047   1.000000
    2       -0.405567   1.000000
    3        3.694842   1.000000
    4        3.788109   1.000000
    5        6.392599   0.000000
    6        8.391081   0.000000
    7        8.676300   0.000000
    8       11.455126   0.000000
 
  0.5000000E+00  0.5555556E-01  0.0000000E+00  0.4115226E-02
    1       -4.515139   1.000000
    2       -0.620212   1.000000
    3        3.620494   1.000000
    4        3.797178   1.000000
    5        6.354275   0.000000
    6        8.407051   0.000000
    7        8.605083   0.000000
    8       11.476239   0.000000
 
 -0.4444444E+00  0.5555556E-01  0.0000000E+00  0.4115226E-02
    1       -4.538342   1.000000
    2       -0.575816   1.000000
    3        3.587220   1.000000
    4        3.846761   1.000000
    5        6.359434   0.000000
    6        8.456754   0.000000
    7        8.562846   0.000000
    8       11.490646   0.000000
 
 -0.3888889E+00  0.5555556E-01  0.0000000E+00  0.4115226E-02
    1       -4.685368   1.000000
    2       -0.282046   1.000000
    3        3.597116   1.000000
    4        3.934148   1.000000
    5        6.407999   0.000000
    6        8.537155   0.000000
    7        8.547977   0.000000
    8       11.497071   0.000000
 
 -0.3333333E+00  0.5555556E-01  0.0000000E+00  0.4115226E-02
    1       -4.906586   1.000000
    2        0.209397   1.000000
    3        3.650965   1.000000
    4        4.054786   1.000000
    5        6.498426   0.000000
    6        8.542712   0.000000
    7        8.627858   0.000000
    8       11.322524   0.000000
 
 -0.2777778E+00  0.5555556E-01  0.0000000E+00  0.4115226E-02
    1       -5.151055   1.000000
    2        0.842965   1.000000
    3        3.748090   1.000000
    4        4.201598   1.000000
    5        6.626658   0.000000
    6        8.511657   0.000000
    7        8.684287   0.000000
    8       10.792305   0.000000
 
 -0.2222222E+00  0.5555556E-01  0.0000000E+00  0.4115226E-02
    1       -5.383660   1.000000
    2        1.575319   1.000000
    3        3.885948   1.000000
    4        4.363552   1.000000
    5        6.783077   0.000000
    6        8.414292   0.000000
    7        8.636124   0.000000
    8       10.135174   0.000000
 
 -0.1666667E+00  0.5555556E-01  0.0000000E+00  0.4115226E-02
    1       -5.583411   1.000000
    2        2.369911   1.000000
    3        4.059688   1.000000
    4        4.523545   1.000000
    5        6.943428   0.000000
    6        8.245498   0.000000
    7        8.431093   0.000000
    8        9.468703   0.000000
 
 -0.1111111E+00  0.5555556E-01  0.0000000E+00  0.4115226E-02
    1       -5.738227   1.000000
    2        3.181149   1.000000
    3        4.262947   1.000000
    4        4.656416   1.000000
    5        7.036937   0.000000
    6        8.059388   0.000000
    7        8.126654   0.000000
    8        8.832846   0.000000
 
 -0.5555556E-01  0.5555556E-01  0.0000000E+00  0.2057613E-02
    1       -5.841180   1.000000
    2        3.911148   1.000000
    3        4.496737   1.000000
    4        4.731011   1.000000
    5        6.900608   0.000000
    6        7.931195   0.000000
    7        7.934063   0.000000
    8        8.300442   0.000000
 
  0.1111111E+00  0.1111111E+00  0.0000000E+00  0.1028807E-02
    1       -5.765399   1.000000
    2        3.579390   1.000000
    3        4.312647   1.000000
    4        4.312647   1.000000
    5        7.247763   0.000000
    6        7.685718   0.000000
    7        8.528156   0.000000
    8        8.528156   0.000000
 
  0.1666667E+00  0.1111111E+00  0.0000000E+00  0.4115226E-02
    1       -5.662966   1.000000
    2        3.000786   1.000000
    3        4.126016   1.000000
    4        4.171821   1.000000
    5        7.222002   0.000000
    6        7.823283   0.000000
    7        8.825527   0.000000
    8        8.956005   0.000000
 
  0.2222222E+00  0.1111111E+00  0.0000000E+00  0.4115226E-02
    1       -5.509242   1.000000
    2        2.271107   1.000000
    3        3.951405   1.000000
    4        4.013086   1.000000
    5        7.219420   0.000000
    6        7.912096   0.000000
    7        9.085055   0.000000
    8        9.374752   0.000000
 
  0.2777778E+00  0.1111111E+00  0.0000000E+00  0.4115226E-02
    1       -5.311164   1.000000
    2        1.528603   1.000000
    3        3.805228   1.000000
    4        3.814616   1.000000
    5        7.152728   0.000000
    6        8.087504   0.000000
    7        9.236367   0.000000
    8        9.596726   0.000000
 
  0.3333333E+00  0.1111111E+00  0.0000000E+00  0.4115226E-02
    1       -5.080939   1.000000
    2        0.831645   1.000000
    3        3.606620   1.000000
    4        3.697279   1.000000
    5        7.040178   0.000000
    6        8.246532   0.000000
    7        9.254599   0.000000
    8        9.874017   0.000000
 
  0.3888889E+00  0.1111111E+00  0.0000000E+00  0.4115226E-02
    1       -4.839550   1.000000
    2        0.222941   1.000000
    3        3.413592   1.000000
    4        3.632947   1.000000
    5        6.930873   0.000000
    6        8.307457   0.000000
    7        9.177520   0.000000
    8       10.355685   0.000000
 
  0.4444444E+00  0.1111111E+00  0.0000000E+00  0.4115226E-02
    1       -4.621917   1.000000
    2       -0.251006   1.000000
    3        3.250629   1.000000
    4        3.614589   1.000000
    5        6.849162   0.000000
    6        8.318593   0.000000
    7        9.061638   0.000000
    8       10.970980   0.000000
 
  0.5000000E+00  0.1111111E+00  0.0000000E+00  0.4115226E-02
    1       -4.478122   1.000000
    2       -0.533711   1.000000
    3        3.127053   1.000000
    4        3.642270   1.000000
    5        6.805232   0.000000
    6        8.336926   0.000000
    7        8.947220   0.000000
    8       11.535801   0.000000
 
 -0.4444444E+00  0.1111111E+00  0.0000000E+00  0.4115226E-02
    1       -4.456332   1.000000
    2       -0.574222   1.000000
    3        3.049058   1.000000
    4        3.714070   1.000000
    5        6.802677   0.000000
    6        8.388740   0.000000
    7        8.854190   0.000000
    8       11.791696   0.000000
 
 -0.3888889E+00  0.1111111E+00  0.0000000E+00  0.4115226E-02
    1       -4.565110   1.000000
    2       -0.363813   1.000000
    3        3.021188   1.000000
    4        3.826016   1.000000
    5        6.841565   0.000000
    6        8.479274   0.000000
    7        8.785773   0.000000
    8       11.701809   0.000000
 
 -0.3333333E+00  0.1111111E+00  0.0000000E+00  0.4115226E-02
    1       -4.764974   1.000000
    2        0.055163   1.000000
    3        3.047246   1.000000
    4        3.971689   1.000000
    5        6.919450   0.000000
    6        8.595835   0.000000
    7        8.728900   0.000000
    8       11.233869   0.000000
 
 -0.2777778E+00  0.1111111E+00  0.0000000E+00  0.4115226E-02
    1       -5.003223   1.000000
    2        0.622969   1.000000
    3        3.131257   1.000000
    4        4.141286   1.000000
    5        7.030668   0.000000
    6        8.652955   0.000000
    7        8.696414   0.000000
    8       10.606936   0.000000
 
 -0.2222222E+00  0.1111111E+00  0.0000000E+00  0.4115226E-02
    1       -5.239781   1.000000
    2        1.285095   1.000000
    3        3.279322   1.000000
    4        4.319988   1.000000
    5        7.162198   0.000000
    6        8.521914   0.000000
    7        8.681585   0.000000
    8       10.068766   0.000000
 
 -0.1666667E+00  0.1111111E+00  0.0000000E+00  0.4115226E-02
    1       -5.449807   1.000000
    2        1.986441   1.000000
    3        3.504190   1.000000
    4        4.485831   1.000000
    5        7.278054   0.000000
    6        8.336067   0.000000
    7        8.452755   0.000000
    8        9.709394   0.000000
 
 -0.1111111E+00  0.1111111E+00  0.0000000E+00  0.2057613E-02
    1       -5.618727   1.000000
    2        2.650367   1.000000
    3        3.831452   1.000000
    4        4.608738   1.000000
    5        7.269371   0.000000
    6        8.155587   0.000000
    7        8.181931   0.000000
    8        9.345574   0.000000
 
  0.1666667E+00  0.1666667E+00  0.0000000E+00  0.1028807E-02
    1       -5.579137   1.000000
    2        2.762634   1.000000
    3        3.925758   1.000000
    4        3.925758   1.000000
    5        6.978524   0.000000
    6        8.115628   0.000000
    7        9.177716   0.000000
    8        9.177716   0.000000
 
  0.2222222E+00  0.1666667E+00  0.0000000E+00  0.4115226E-02
    1       -5.443447   1.000000
    2        2.244759   1.000000
    3        3.737345   1.000000
    4        3.740945   1.000000
    5        6.910761   0.000000
    6        8.132485   0.000000
    7        9.452405   0.000000
    8        9.503923   0.000000
 
  0.2777778E+00  0.1666667E+00  0.0000000E+00  0.4115226E-02
    1       -5.261704   1.000000
    2        1.617356   1.000000
    3        3.513523   1.000000
    4        3.587874   1.000000
    5        6.982970   0.000000
    6        8.148248   0.000000
    7        9.437643   0.000000
    8        9.726069   0.000000
 
  0.3333333E+00  0.1666667E+00  0.0000000E+00  0.4115226E-02
    1       -5.044255   1.000000
    2        0.981098   1.000000
    3        3.259880   1.000000
    4        3.476373   1.000000
    5        7.032959   0.000000
    6        8.338295   0.000000
    7        9.363606   0.000000
    8        9.795798   0.000000
 
  0.3888889E+00  0.1666667E+00  0.0000000E+00  0.4115226E-02
    1       -4.808776   1.000000
    2        0.395170   1.000000
    3        3.010698   1.000000
    4        3.411918   1.000000
    5        7.012622   0.000000
    6        8.590227   0.000000
    7        9.482157   0.000000
    8        9.736355   0.000000
 
  0.4444444E+00  0.1666667E+00  0.0000000E+00  0.4115226E-02
    1       -4.584874   1.000000
    2       -0.088913   1.000000
    3        2.790437   1.000000
    4        3.397038   1.000000
    5        6.978209   0.000000
    6        8.667916   0.000000
    7        9.610001   0.000000
    8        9.976588   0.000000
 
  0.5000000E+00  0.1666667E+00  0.0000000E+00  0.4115226E-02
    1       -4.417108   1.000000
    2       -0.414523   1.000000
    3        2.613570   1.000000
    4        3.431884   1.000000
    5        6.969614   0.000000
    6        8.659632   0.000000
    7        9.467209   0.000000
    8       10.699409   0.000000
 
 -0.4444444E+00  0.1666667E+00  0.0000000E+00  0.4115226E-02
    1       -4.355479   1.000000
    2       -0.525825   1.000000
    3        2.489416   1.000000
    4        3.514511   1.000000
    5        7.001170   0.000000
    6        8.662157   0.000000
    7        9.334703   0.000000
    8       11.486005   0.000000
 
 -0.3888889E+00  0.1666667E+00  0.0000000E+00  0.4115226E-02
    1       -4.423075   1.000000
    2       -0.398881   1.000000
    3        2.425464   1.000000
    4        3.640630   1.000000
    5        7.074113   0.000000
    6        8.702717   0.000000
    7        9.219305   0.000000
    8       11.823928   0.000000
 
 -0.3333333E+00  0.1666667E+00  0.0000000E+00  0.4115226E-02
    1       -4.594432   1.000000
    2       -0.063953   1.000000
    3        2.429865   1.000000
    4        3.803031   1.000000
    5        7.181970   0.000000
    6        8.783148   0.000000
    7        9.109228   0.000000
    8       11.153569   0.000000
 
 -0.2777778E+00  0.1666667E+00  0.0000000E+00  0.4115226E-02
    1       -4.819323   1.000000
    2        0.415577   1.000000
    3        2.514766   1.000000
    4        3.990334   1.000000
    5        7.310659   0.000000
    6        8.877104   0.000000
    7        8.973368   0.000000
    8       10.430114   0.000000
 
 -0.2222222E+00  0.1666667E+00  0.0000000E+00  0.4115226E-02
    1       -5.054115   1.000000
    2        0.967940   1.000000
    3        2.701803   1.000000
    4        4.185136   1.000000
    5        7.430521   0.000000
    6        8.778635   0.000000
    7        8.874608   0.000000
    8        9.896898   0.000000
 
 -0.1666667E+00  0.1666667E+00  0.0000000E+00  0.2057613E-02
    1       -5.270005   1.000000
    2        1.514598   1.000000
    3        3.025518   1.000000
    4        4.361694   1.000000
    5        7.465143   0.000000
    6        8.540697   0.000000
    7        8.637827   0.000000
    8        9.742351   0.000000
 
  0.2222222E+00  0.2222222E+00  0.0000000E+00  0.1028807E-02
    1       -5.326053   1.000000
    2        1.957688   1.000000
    3        3.545778   1.000000
    4        3.545778   1.000000
    5        6.637744   0.000000
    6        8.043563   0.000000
    7        9.917485   0.000000
    8        9.917486   0.000000
 
  0.2777778E+00  0.2222222E+00  0.0000000E+00  0.4115226E-02
    1       -5.162028   1.000000
    2        1.498392   1.000000
    3        3.335097   1.000000
    4        3.383062   1.000000
    5        6.594294   0.000000
    6        7.888584   0.000000
    7       10.054606   0.000000
    8       10.242708   0.000000
 
  0.3333333E+00  0.2222222E+00  0.0000000E+00  0.4115226E-02
    1       -4.960265   1.000000
    2        0.978020   1.000000
    3        3.053971   1.000000
    4        3.263247   1.000000
    5        6.697232   0.000000
    6        7.895345   0.000000
    7        9.937474   0.000000
    8       10.403000   0.000000
 
  0.3888889E+00  0.2222222E+00  0.0000000E+00  0.4115226E-02
    1       -4.735942   1.000000
    2        0.466702   1.000000
    3        2.743505   1.000000
    4        3.192311   1.000000
    5        6.770709   0.000000
    6        8.197876   0.000000
    7        9.786310   0.000000
    8       10.393094   0.000000
 
  0.4444444E+00  0.2222222E+00  0.0000000E+00  0.4115226E-02
    1       -4.514311   1.000000
    2        0.018890   1.000000
    3        2.451235   1.000000
    4        3.173170   1.000000
    5        6.786627   0.000000
    6        8.750684   0.000000
    7        9.672179   0.000000
    8       10.277376   0.000000
 
  0.5000000E+00  0.2222222E+00  0.0000000E+00  0.4115226E-02
    1       -4.334071   1.000000
    2       -0.309624   1.000000
    3        2.205933   1.000000
    4        3.206344   1.000000
    5        6.807811   0.000000
    6        9.273979   0.000000
    7        9.788988   0.000000
    8       10.120501   0.000000
 
 -0.4444444E+00  0.2222222E+00  0.0000000E+00  0.4115226E-02
    1       -4.242575   1.000000
    2       -0.462520   1.000000
    3        2.024241   1.000000
    4        3.290193   1.000000
    5        6.867757   0.000000
    6        9.344879   0.000000
    7        9.958316   0.000000
    8       10.502306   0.000000
 
 -0.3888889E+00  0.2222222E+00  0.0000000E+00  0.4115226E-02
    1       -4.271282   1.000000
    2       -0.407215   1.000000
    3        1.918931   1.000000
    4        3.420669   1.000000
    5        6.974434   0.000000
    6        9.339680   0.000000
    7        9.800091   0.000000
    8       11.378357   0.000000
 
 -0.3333333E+00  0.2222222E+00  0.0000000E+00  0.4115226E-02
    1       -4.409072   1.000000
    2       -0.163661   1.000000
    3        1.905555   1.000000
    4        3.590599   1.000000
    5        7.121925   0.000000
    6        9.363837   0.000000
    7        9.629802   0.000000
    8       11.097926   0.000000
 
 -0.2777778E+00  0.2222222E+00  0.0000000E+00  0.4115226E-02
    1       -4.612970   1.000000
    2        0.201238   1.000000
    3        2.009104   1.000000
    4        3.788366   1.000000
    5        7.290282   0.000000
    6        9.407305   0.000000
    7        9.410863   0.000000
    8       10.306159   0.000000
 
 -0.2222222E+00  0.2222222E+00  0.0000000E+00  0.2057613E-02
    1       -4.838543   1.000000
    2        0.601636   1.000000
    3        2.266366   1.000000
    4        3.995679   1.000000
    5        7.431402   0.000000
    6        9.106414   0.000000
    7        9.289126   0.000000
    8        9.828643   0.000000
 
  0.2777778E+00  0.2777778E+00  0.0000000E+00  0.1028807E-02
    1       -5.016410   1.000000
    2        1.188176   1.000000
    3        3.209532   1.000000
    4        3.209533   1.000000
    5        6.345672   0.000000
    6        7.579543   0.000000
    7       10.705780   0.000000
    8       10.705782   0.000000
 
  0.3333333E+00  0.2777778E+00  0.0000000E+00  0.4115226E-02
    1       -4.832724   1.000000
    2        0.786496   1.000000
    3        2.995943   1.000000
    4        3.078767   1.000000
    5        6.337321   0.000000
    6        7.400762   0.000000
    7       10.828016   0.000000
    8       11.011745   0.000000
 
  0.3888889E+00  0.2777778E+00  0.0000000E+00  0.4115226E-02
    1       -4.624458   1.000000
    2        0.372110   1.000000
    3        2.677282   1.000000
    4        2.997494   1.000000
    5        6.456355   0.000000
    6        7.473618   0.000000
    7       10.709701   0.000000
    8       11.101332   0.000000
 
  0.4444444E+00  0.2777778E+00  0.0000000E+00  0.4115226E-02
    1       -4.413620   1.000000
    2       -0.002087   1.000000
    3        2.323707   1.000000
    4        2.969185   1.000000
    5        6.527154   0.000000
    6        7.891794   0.000000
    7       10.557241   0.000000
    8       11.025591   0.000000
 
  0.5000000E+00  0.2777778E+00  0.0000000E+00  0.4115226E-02
    1       -4.233729   1.000000
    2       -0.288470   1.000000
    3        1.999033   1.000000
    4        2.994850   1.000000
    5        6.568245   0.000000
    6        8.563268   0.000000
    7       10.420217   0.000000
    8       10.869846   0.000000
 
 -0.4444444E+00  0.2777778E+00  0.0000000E+00  0.4115226E-02
    1       -4.126881   1.000000
    2       -0.439886   1.000000
    3        1.742887   1.000000
    4        3.073306   1.000000
    5        6.638702   0.000000
    6        9.372752   0.000000
    7       10.324965   0.000000
    8       10.684450   0.000000
 
 -0.3888889E+00  0.2777778E+00  0.0000000E+00  0.4115226E-02
    1       -4.125800   1.000000
    2       -0.427706   1.000000
    3        1.583251   1.000000
    4        3.200974   1.000000
    5        6.757685   0.000000
    6       10.085137   0.000000
    7       10.458464   0.000000
    8       10.478805   0.000000
 
 -0.3333333E+00  0.2777778E+00  0.0000000E+00  0.4115226E-02
    1       -4.229729   1.000000
    2       -0.270693   1.000000
    3        1.549954   1.000000
    4        3.371201   1.000000
    5        6.923383   0.000000
    6       10.153410   0.000000
    7       10.221233   0.000000
    8       11.048718   0.000000
 
 -0.2777778E+00  0.2777778E+00  0.0000000E+00  0.2057613E-02
    1       -4.405675   1.000000
    2       -0.036445   1.000000
    3        1.681774   1.000000
    4        3.572915   1.000000
    5        7.117660   0.000000
    6        9.857926   0.000000
    7       10.076991   0.000000
    8       10.330332   0.000000
 
  0.3333333E+00  0.3333333E+00  0.0000000E+00  0.1028807E-02
    1       -4.668964   1.000000
    2        0.477788   1.000000
    3        2.935828   1.000000
    4        2.935828   1.000000
    5        6.129360   0.000000
    6        7.070522   0.000000
    7       11.518990   0.000000
    8       11.518991   0.000000
 
  0.3888889E+00  0.3333333E+00  0.0000000E+00  0.4115226E-02
    1       -4.481489   1.000000
    2        0.141564   1.000000
    3        2.734037   1.000000
    4        2.842091   1.000000
    5        6.159670   0.000000
    6        6.939163   0.000000
    7       11.655475   0.000000
    8       11.793241   0.000000
 
  0.4444444E+00  0.3333333E+00  0.0000000E+00  0.4115226E-02
    1       -4.290379   1.000000
    2       -0.161410   1.000000
    3        2.402051   1.000000
    4        2.801706   1.000000
    5        6.281100   0.000000
    6        7.121190   0.000000
    7       11.548413   0.000000
    8       11.812466   0.000000
 
  0.5000000E+00  0.3333333E+00  0.0000000E+00  0.4115226E-02
    1       -4.125207   1.000000
    2       -0.387371   1.000000
    3        2.032633   1.000000
    4        2.816243   1.000000
    5        6.348551   0.000000
    6        7.661346   0.000000
    7       11.401328   0.000000
    8       11.680094   0.000000
 
 -0.4444444E+00  0.3333333E+00  0.0000000E+00  0.4115226E-02
    1       -4.021642   1.000000
    2       -0.502260   1.000000
    3        1.705869   1.000000
    4        2.885053   1.000000
    5        6.423011   0.000000
    6        8.419285   0.000000
    7       11.263710   0.000000
    8       11.472994   0.000000
 
 -0.3888889E+00  0.3333333E+00  0.0000000E+00  0.4115226E-02
    1       -4.007565   1.000000
    2       -0.494348   1.000000
    3        1.480552   1.000000
    4        3.005135   1.000000
    5        6.544041   0.000000
    6        9.302911   0.000000
    7       11.147636   0.000000
    8       11.193593   0.000000
 
 -0.3333333E+00  0.3333333E+00  0.0000000E+00  0.2057613E-02
    1       -4.084902   1.000000
    2       -0.395202   1.000000
    3        1.411638   1.000000
    4        3.170556   1.000000
    5        6.715687   0.000000
    6       10.247062   0.000000
    7       10.779803   0.000000
    8       10.970777   0.000000
 
  0.3888889E+00  0.3888889E+00  0.0000000E+00  0.1028807E-02
    1       -4.319465   1.000000
    2       -0.134304   1.000000
    3        2.734886   1.000000
    4        2.734886   1.000000
    5        6.001970   0.000000
    6        6.640794   0.000000
    7       12.335399   0.000000
    8       12.335400   0.000000
 
  0.4444444E+00  0.3888889E+00  0.0000000E+00  0.4115226E-02
    1       -4.157876   1.000000
    2       -0.381499   1.000000
    3        2.556489   1.000000
    4        2.680827   1.000000
    5        6.069057   0.000000
    6        6.582193   0.000000
    7       12.481953   0.000000
    8       12.561975   0.000000
 
  0.5000000E+00  0.3888889E+00  0.0000000E+00  0.4115226E-02
    1       -4.023430   1.000000
    2       -0.551553   1.000000
    3        2.235491   1.000000
    4        2.682104   1.000000
    5        6.176911   0.000000
    6        6.896673   0.000000
    7       12.380626   0.000000
    8       12.499744   0.000000
 
 -0.4444444E+00  0.3888889E+00  0.0000000E+00  0.4115226E-02
    1       -3.944988   1.000000
    2       -0.616824   1.000000
    3        1.884910   1.000000
    4        2.738628   1.000000
    5        6.254926   0.000000
    6        7.543536   0.000000
    7       12.212908   0.000000
    8       12.260348   0.000000
 
 -0.3888889E+00  0.3888889E+00  0.0000000E+00  0.2057613E-02
    1       -3.940698   1.000000
    2       -0.581367   1.000000
    3        1.604524   1.000000
    4        2.848017   1.000000
    5        6.372748   0.000000
    6        8.369556   0.000000
    7       11.831059   0.000000
    8       11.914477   0.000000
 
  0.4444444E+00  0.4444444E+00  0.0000000E+00  0.1028807E-02
    1       -4.035883   1.000000
    2       -0.577044   1.000000
    3        2.612382   1.000000
    4        2.612382   1.000000
    5        5.967121   0.000000
    6        6.331232   0.000000
    7       13.095698   0.000000
    8       13.095699   0.000000
 
  0.5000000E+00  0.4444444E+00  0.0000000E+00  0.4115226E-02
    1       -3.948698   1.000000
    2       -0.691599   1.000000
    3        2.466936   1.000000
    4        2.599239   1.000000
    5        6.054135   0.000000
    6        6.368872   0.000000
    7       13.188224   0.000000
    8       13.203337   0.000000
 
 -0.4444444E+00  0.4444444E+00  0.0000000E+00  0.2057613E-02
    1       -3.916672   1.000000
    2       -0.700060   1.000000
    3        2.179829   1.000000
    4        2.641900   1.000000
    5        6.142707   0.000000
    6        6.819855   0.000000
    7       12.900086   0.000000
    8       12.920214   0.000000
 
  0.5000000E+00  0.5000000E+00  0.0000000E+00  0.5144033E-03
    1       -3.920892   1.000000
    2       -0.745389   1.000000
    3        2.571250   1.000000
    4        2.571250   1.000000
    5        5.986367   0.000000
    6        6.195863   0.000000
    7       13.503987   0.000000
    8       13.503987   0.000000
 