   3   3   0   0
  0.2945978E+02  0.4999830E-09  0.4999830E-09  0.4999830E-09  0.5000000E-15
  1.000000000000000E-004
  CAR
 unknown system
     11.31116818    -35.07915310  301      7.38590302      1.00000000
    -35.079  0.0000E+00  0.0000E+00
    -34.925  0.0000E+00  0.0000E+00
    -34.770  0.0000E+00  0.0000E+00
    -34.615  0.0000E+00  0.0000E+00
    -34.461  0.0000E+00  0.0000E+00
    -34.306  0.0000E+00  0.0000E+00
    -34.151  0.0000E+00  0.0000E+00
    -33.997  0.0000E+00  0.0000E+00
    -33.842  0.0000E+00  0.0000E+00
    -33.687  0.0000E+00  0.0000E+00
    -33.533  0.0000E+00  0.0000E+00
    -33.378  0.0000E+00  0.0000E+00
    -33.224  0.0000E+00  0.0000E+00
    -33.069  0.0000E+00  0.0000E+00
    -32.914  0.1293E+02  0.2000E+01
    -32.760  0.0000E+00  0.2000E+01
    -32.605  0.0000E+00  0.2000E+01
    -32.450  0.0000E+00  0.2000E+01
    -32.296  0.0000E+00  0.2000E+01
    -32.141  0.0000E+00  0.2000E+01
    -31.986  0.0000E+00  0.2000E+01
    -31.832  0.0000E+00  0.2000E+01
    -31.677  0.0000E+00  0.2000E+01
    -31.523  0.0000E+00  0.2000E+01
    -31.368  0.0000E+00  0.2000E+01
    -31.213  0.0000E+00  0.2000E+01
    -31.059  0.0000E+00  0.2000E+01
    -30.904  0.0000E+00  0.2000E+01
    -30.749  0.0000E+00  0.2000E+01
    -30.595  0.0000E+00  0.2000E+01
    -30.440  0.0000E+00  0.2000E+01
    -30.285  0.0000E+00  0.2000E+01
    -30.131  0.0000E+00  0.2000E+01
    -29.976  0.0000E+00  0.2000E+01
    -29.822  0.0000E+00  0.2000E+01
    -29.667  0.0000E+00  0.2000E+01
    -29.512  0.0000E+00  0.2000E+01
    -29.358  0.0000E+00  0.2000E+01
    -29.203  0.0000E+00  0.2000E+01
    -29.048  0.0000E+00  0.2000E+01
    -28.894  0.0000E+00  0.2000E+01
    -28.739  0.0000E+00  0.2000E+01
    -28.585  0.0000E+00  0.2000E+01
    -28.430  0.0000E+00  0.2000E+01
    -28.275  0.0000E+00  0.2000E+01
    -28.121  0.0000E+00  0.2000E+01
    -27.966  0.0000E+00  0.2000E+01
    -27.811  0.0000E+00  0.2000E+01
    -27.657  0.0000E+00  0.2000E+01
    -27.502  0.0000E+00  0.2000E+01
    -27.347  0.0000E+00  0.2000E+01
    -27.193  0.0000E+00  0.2000E+01
    -27.038  0.0000E+00  0.2000E+01
    -26.884  0.0000E+00  0.2000E+01
    -26.729  0.0000E+00  0.2000E+01
    -26.574  0.0000E+00  0.2000E+01
    -26.420  0.0000E+00  0.2000E+01
    -26.265  0.0000E+00  0.2000E+01
    -26.110  0.0000E+00  0.2000E+01
    -25.956  0.0000E+00  0.2000E+01
    -25.801  0.0000E+00  0.2000E+01
    -25.646  0.0000E+00  0.2000E+01
    -25.492  0.0000E+00  0.2000E+01
    -25.337  0.0000E+00  0.2000E+01
    -25.183  0.0000E+00  0.2000E+01
    -25.028  0.0000E+00  0.2000E+01
    -24.873  0.0000E+00  0.2000E+01
    -24.719  0.0000E+00  0.2000E+01
    -24.564  0.0000E+00  0.2000E+01
    -24.409  0.0000E+00  0.2000E+01
    -24.255  0.0000E+00  0.2000E+01
    -24.100  0.0000E+00  0.2000E+01
    -23.945  0.0000E+00  0.2000E+01
    -23.791  0.0000E+00  0.2000E+01
    -23.636  0.0000E+00  0.2000E+01
    -23.482  0.0000E+00  0.2000E+01
    -23.327  0.0000E+00  0.2000E+01
    -23.172  0.0000E+00  0.2000E+01
    -23.018  0.0000E+00  0.2000E+01
    -22.863  0.0000E+00  0.2000E+01
    -22.708  0.0000E+00  0.2000E+01
    -22.554  0.0000E+00  0.2000E+01
    -22.399  0.0000E+00  0.2000E+01
    -22.244  0.0000E+00  0.2000E+01
    -22.090  0.0000E+00  0.2000E+01
    -21.935  0.0000E+00  0.2000E+01
    -21.781  0.0000E+00  0.2000E+01
    -21.626  0.0000E+00  0.2000E+01
    -21.471  0.0000E+00  0.2000E+01
    -21.317  0.0000E+00  0.2000E+01
    -21.162  0.0000E+00  0.2000E+01
    -21.007  0.0000E+00  0.2000E+01
    -20.853  0.0000E+00  0.2000E+01
    -20.698  0.0000E+00  0.2000E+01
    -20.544  0.0000E+00  0.2000E+01
    -20.389  0.0000E+00  0.2000E+01
    -20.234  0.0000E+00  0.2000E+01
    -20.080  0.0000E+00  0.2000E+01
    -19.925  0.0000E+00  0.2000E+01
    -19.770  0.0000E+00  0.2000E+01
    -19.616  0.0000E+00  0.2000E+01
    -19.461  0.0000E+00  0.2000E+01
    -19.306  0.0000E+00  0.2000E+01
    -19.152  0.0000E+00  0.2000E+01
    -18.997  0.0000E+00  0.2000E+01
    -18.843  0.0000E+00  0.2000E+01
    -18.688  0.0000E+00  0.2000E+01
    -18.533  0.0000E+00  0.2000E+01
    -18.379  0.0000E+00  0.2000E+01
    -18.224  0.0000E+00  0.2000E+01
    -18.069  0.0000E+00  0.2000E+01
    -17.915  0.0000E+00  0.2000E+01
    -17.760  0.0000E+00  0.2000E+01
    -17.605  0.0000E+00  0.2000E+01
    -17.451  0.0000E+00  0.2000E+01
    -17.296  0.0000E+00  0.2000E+01
    -17.142  0.0000E+00  0.2000E+01
    -16.987  0.0000E+00  0.2000E+01
    -16.832  0.0000E+00  0.2000E+01
    -16.678  0.0000E+00  0.2000E+01
    -16.523  0.0000E+00  0.2000E+01
    -16.368  0.0000E+00  0.2000E+01
    -16.214  0.0000E+00  0.2000E+01
    -16.059  0.0000E+00  0.2000E+01
    -15.904  0.0000E+00  0.2000E+01
    -15.750  0.0000E+00  0.2000E+01
    -15.595  0.0000E+00  0.2000E+01
    -15.441  0.1404E+02  0.4171E+01
    -15.286  0.0000E+00  0.1200E+02
    -15.131  0.0000E+00  0.1200E+02
    -14.977  0.0000E+00  0.1200E+02
    -14.822  0.0000E+00  0.1200E+02
    -14.667  0.0000E+00  0.1200E+02
    -14.513  0.0000E+00  0.1200E+02
    -14.358  0.0000E+00  0.1200E+02
    -14.204  0.0000E+00  0.1200E+02
    -14.049  0.0000E+00  0.1200E+02
    -13.894  0.0000E+00  0.1200E+02
    -13.740  0.0000E+00  0.1200E+02
    -13.585  0.0000E+00  0.1200E+02
    -13.430  0.0000E+00  0.1200E+02
    -13.276  0.0000E+00  0.1200E+02
    -13.121  0.0000E+00  0.1200E+02
    -12.966  0.0000E+00  0.1200E+02
    -12.812  0.0000E+00  0.1200E+02
    -12.657  0.0000E+00  0.1200E+02
    -12.503  0.0000E+00  0.1200E+02
    -12.348  0.0000E+00  0.1200E+02
    -12.193  0.0000E+00  0.1200E+02
    -12.039  0.0000E+00  0.1200E+02
    -11.884  0.0000E+00  0.1200E+02
    -11.729  0.0000E+00  0.1200E+02
    -11.575  0.0000E+00  0.1200E+02
    -11.420  0.0000E+00  0.1200E+02
    -11.265  0.0000E+00  0.1200E+02
    -11.111  0.0000E+00  0.1200E+02
    -10.956  0.2334E+01  0.1236E+02
    -10.802  0.2438E+02  0.1799E+02
    -10.647  0.0000E+00  0.1800E+02
    -10.492  0.0000E+00  0.1800E+02
    -10.338  0.0000E+00  0.1800E+02
    -10.183  0.0000E+00  0.1800E+02
    -10.028  0.0000E+00  0.1800E+02
     -9.874  0.0000E+00  0.1800E+02
     -9.719  0.0000E+00  0.1800E+02
     -9.564  0.0000E+00  0.1800E+02
     -9.410  0.0000E+00  0.1800E+02
     -9.255  0.0000E+00  0.1800E+02
     -9.101  0.0000E+00  0.1800E+02
     -8.946  0.0000E+00  0.1800E+02
     -8.791  0.0000E+00  0.1800E+02
     -8.637  0.0000E+00  0.1800E+02
     -8.482  0.0000E+00  0.1800E+02
     -8.327  0.0000E+00  0.1800E+02
     -8.173  0.0000E+00  0.1800E+02
     -8.018  0.0000E+00  0.1800E+02
     -7.863  0.0000E+00  0.1800E+02
     -7.709  0.0000E+00  0.1800E+02
     -7.554  0.0000E+00  0.1800E+02
     -7.400  0.0000E+00  0.1800E+02
     -7.245  0.0000E+00  0.1800E+02
     -7.090  0.0000E+00  0.1800E+02
     -6.936  0.0000E+00  0.1800E+02
     -6.781  0.0000E+00  0.1800E+02
     -6.626  0.0000E+00  0.1800E+02
     -6.472  0.0000E+00  0.1800E+02
     -6.317  0.0000E+00  0.1800E+02
     -6.163  0.0000E+00  0.1800E+02
     -6.008  0.0000E+00  0.1800E+02
     -5.853  0.0000E+00  0.1800E+02
     -5.699  0.0000E+00  0.1800E+02
     -5.544  0.0000E+00  0.1800E+02
     -5.389  0.0000E+00  0.1800E+02
     -5.235  0.0000E+00  0.1800E+02
     -5.080  0.0000E+00  0.1800E+02
     -4.925  0.0000E+00  0.1800E+02
     -4.771  0.0000E+00  0.1800E+02
     -4.616  0.0000E+00  0.1800E+02
     -4.462  0.0000E+00  0.1800E+02
     -4.307  0.8416E-01  0.1801E+02
     -4.152  0.2227E+00  0.1806E+02
     -3.998  0.3501E+00  0.1816E+02
     -3.843  0.1009E+01  0.1841E+02
     -3.688  0.4420E+01  0.1954E+02
     -3.534  0.1884E+00  0.2000E+02
     -3.379  0.0000E+00  0.2000E+02
     -3.224  0.0000E+00  0.2000E+02
     -3.070  0.0000E+00  0.2000E+02
     -2.915  0.0000E+00  0.2000E+02
     -2.761  0.0000E+00  0.2000E+02
     -2.606  0.0000E+00  0.2000E+02
     -2.451  0.0000E+00  0.2000E+02
     -2.297  0.0000E+00  0.2000E+02
     -2.142  0.0000E+00  0.2000E+02
     -1.987  0.0000E+00  0.2000E+02
     -1.833  0.0000E+00  0.2000E+02
     -1.678  0.0000E+00  0.2000E+02
     -1.523  0.0000E+00  0.2000E+02
     -1.369  0.0000E+00  0.2000E+02
     -1.214  0.0000E+00  0.2000E+02
     -1.060  0.0000E+00  0.2000E+02
     -0.905  0.0000E+00  0.2000E+02
     -0.750  0.0000E+00  0.2000E+02
     -0.596  0.0000E+00  0.2000E+02
     -0.441  0.0000E+00  0.2000E+02
     -0.286  0.0000E+00  0.2000E+02
     -0.132  0.0000E+00  0.2000E+02
      0.023  0.0000E+00  0.2000E+02
      0.177  0.0000E+00  0.2000E+02
      0.332  0.0000E+00  0.2000E+02
      0.487  0.0000E+00  0.2000E+02
      0.641  0.0000E+00  0.2000E+02
      0.796  0.0000E+00  0.2000E+02
      0.951  0.0000E+00  0.2000E+02
      1.105  0.0000E+00  0.2000E+02
      1.260  0.0000E+00  0.2000E+02
      1.415  0.0000E+00  0.2000E+02
      1.569  0.0000E+00  0.2000E+02
      1.724  0.0000E+00  0.2000E+02
      1.878  0.2013E+00  0.2003E+02
      2.033  0.1052E+01  0.2024E+02
      2.188  0.3121E+01  0.2078E+02
      2.342  0.8812E+00  0.2118E+02
      2.497  0.4734E+00  0.2149E+02
      2.652  0.7616E+00  0.2176E+02
      2.806  0.3521E+00  0.2195E+02
      2.961  0.2407E+01  0.2234E+02
      3.116  0.3063E+01  0.2362E+02
      3.270  0.3515E+01  0.2457E+02
      3.425  0.3450E+01  0.2553E+02
      3.579  0.5652E+00  0.2601E+02
      3.734  0.4225E+00  0.2611E+02
      3.889  0.8825E+01  0.2780E+02
      4.043  0.6469E+01  0.2972E+02
      4.198  0.2998E+01  0.3088E+02
      4.353  0.1475E+01  0.3151E+02
      4.507  0.7509E+00  0.3177E+02
      4.662  0.6856E+00  0.3200E+02
      4.817  0.5075E+00  0.3217E+02
      4.971  0.5773E+00  0.3249E+02
      5.126  0.1012E+01  0.3279E+02
      5.280  0.6884E+00  0.3308E+02
      5.435  0.7886E+00  0.3329E+02
      5.590  0.6053E+00  0.3360E+02
      5.744  0.2459E+01  0.3402E+02
      5.899  0.3577E+01  0.3550E+02
      6.054  0.5052E+00  0.3584E+02
      6.208  0.1736E+00  0.3595E+02
      6.363  0.7782E-01  0.3598E+02
      6.518  0.6215E-01  0.3601E+02
      6.672  0.5104E-01  0.3602E+02
      6.827  0.1177E+00  0.3605E+02
      6.981  0.4857E+00  0.3612E+02
      7.136  0.1042E+00  0.3624E+02
      7.291  0.1864E+01  0.3668E+02
      7.445  0.2117E+01  0.3718E+02
      7.600  0.1896E+01  0.3771E+02
      7.755  0.8716E+00  0.3806E+02
      7.909  0.7773E+00  0.3827E+02
      8.064  0.5002E+00  0.3841E+02
      8.218  0.1104E+01  0.3865E+02
      8.373  0.2634E+01  0.3923E+02
      8.528  0.3803E+01  0.4018E+02
      8.682  0.2003E+01  0.4081E+02
      8.837  0.3781E+01  0.4188E+02
      8.992  0.7112E+01  0.4398E+02
      9.146  0.4465E+01  0.4663E+02
      9.301  0.0000E+00  0.4800E+02
      9.456  0.0000E+00  0.4800E+02
      9.610  0.0000E+00  0.4800E+02
      9.765  0.0000E+00  0.4800E+02
      9.919  0.0000E+00  0.4800E+02
     10.074  0.0000E+00  0.4800E+02
     10.229  0.0000E+00  0.4800E+02
     10.383  0.0000E+00  0.4800E+02
     10.538  0.0000E+00  0.4800E+02
     10.693  0.0000E+00  0.4800E+02
     10.847  0.0000E+00  0.4800E+02
     11.002  0.0000E+00  0.4800E+02
     11.157  0.0000E+00  0.4800E+02
     11.311  0.0000E+00  0.4800E+02
