    3    3    1    1
  0.2945978E+02  0.4999830E-09  0.4999830E-09  0.4999830E-09  0.5000000E-15
  1.000000000000000E-004
  CAR
 unknown system
     37     84     24

  0.0000000E+00  0.0000000E+00  0.0000000E+00  0.4551661E-03
    1      -32.970502   1.000000
    2      -15.438507   1.000000
    3      -15.438507   1.000000
    4      -15.411291   1.000000
    5      -15.411291   1.000000
    6      -15.411291   1.000000
    7      -10.834347   1.000000
    8      -10.834347   1.000000
    9      -10.834347   1.000000
   10       -4.374096   1.000000
   11        3.458802   1.000000
   12        3.458802   1.000000
   13        3.458802   1.000000
   14        3.740482   1.000000
   15        3.740482   1.000000
   16        5.188827   1.000000
   17        6.451134   1.000000
   18        6.451134   1.000000
   19        6.451134   1.000000
   20        7.656863   0.000000
   21        7.656863   0.000000
   22        7.656863   0.000000
   23        8.362913   0.000000
   24        9.118034   0.000000

  0.7692308E-01 -0.1382681E-17  0.4158131E-18  0.3641329E-02
    1      -32.970337   1.000000
    2      -15.438953   1.000000
    3      -15.438953   1.000000
    4      -15.411376   1.000000
    5      -15.411204   1.000000
    6      -15.411204   1.000000
    7      -10.844109   1.000000
    8      -10.833262   1.000000
    9      -10.833262   1.000000
   10       -4.329141   1.000000
   11        3.316643   1.000000
   12        3.376638   1.000000
   13        3.376638   1.000000
   14        3.817950   1.000000
   15        3.817950   1.000000
   16        5.066787   1.000000
   17        6.372879   1.000000
   18        6.372879   1.000000
   19        6.506216   1.000000
   20        7.737237   0.000000
   21        7.743093   0.000000
   22        7.743093   0.000000
   23        8.541363   0.000000
   24        9.126436   0.000000

  0.1538462E+00  0.5094320E-17 -0.7028056E-17  0.3641329E-02
    1      -32.969876   1.000000
    2      -15.440143   1.000000
    3      -15.440143   1.000000
    4      -15.411602   1.000000
    5      -15.410928   1.000000
    6      -15.410928   1.000000
    7      -10.870546   1.000000
    8      -10.830260   1.000000
    9      -10.830260   1.000000
   10       -4.203944   1.000000
   11        2.976289   1.000000
   12        3.247333   1.000000
   13        3.247333   1.000000
   14        3.925303   1.000000
   15        3.925303   1.000000
   16        4.774931   1.000000
   17        6.207472   1.000000
   18        6.207472   1.000000
   19        6.592563   1.000000
   20        7.945686   0.000000
   21        7.945686   0.000000
   22        8.080626   0.000000
   23        8.849361   0.000000
   24        9.150933   0.000000

  0.2307692E+00  0.5323495E-17 -0.8224100E-17  0.3641329E-02
    1      -32.969224   1.000000
    2      -15.441843   1.000000
    3      -15.441843   1.000000
    4      -15.411945   1.000000
    5      -15.410522   1.000000
    6      -15.410522   1.000000
    7      -10.906363   1.000000
    8      -10.826041   1.000000
    9      -10.826041   1.000000
   10       -4.025800   1.000000
   11        2.578929   1.000000
   12        3.143957   1.000000
   13        3.143957   1.000000
   14        3.973981   1.000000
   15        3.973981   1.000000
   16        4.449209   1.000000
   17        6.055356   1.000000
   18        6.055356   1.000000
   19        6.681896   1.000000
   20        8.187404   0.000000
   21        8.187404   0.000000
   22        8.583122   0.000000
   23        9.075893   0.000000
   24        9.151664   0.000000

  0.3076923E+00  0.1018864E-16 -0.1405611E-16  0.3641329E-02
    1      -32.968531   1.000000
    2      -15.443659   1.000000
    3      -15.443659   1.000000
    4      -15.412357   1.000000
    5      -15.410071   1.000000
    6      -15.410071   1.000000
    7      -10.942630   1.000000
    8      -10.821581   1.000000
    9      -10.821581   1.000000
   10       -3.834368   1.000000
   11        2.219717   1.000000
   12        3.082332   1.000000
   13        3.082332   1.000000
   14        3.947376   1.000000
   15        3.947376   1.000000
   16        4.181346   1.000000
   17        5.962918   1.000000
   18        5.962918   1.000000
   19        6.803000   1.000000
   20        8.416114   0.000000
   21        8.416114   0.000000
   22        8.996154   0.000000
   23        9.117924   0.000000
   24        9.118194   0.000000

  0.3846154E+00  0.8805958E-17 -0.1364030E-16  0.3641329E-02
    1      -32.967959   1.000000
    2      -15.445167   1.000000
    3      -15.445167   1.000000
    4      -15.412737   1.000000
    5      -15.409691   1.000000
    6      -15.409691   1.000000
    7      -10.971410   1.000000
    8      -10.817900   1.000000
    9      -10.817900   1.000000
   10       -3.673703   1.000000
   11        1.953987   1.000000
   12        3.059300   1.000000
   13        3.059300   1.000000
   14        3.876739   1.000000
   15        3.876739   1.000000
   16        4.005314   1.000000
   17        5.925031   1.000000
   18        5.925031   1.000000
   19        6.955842   1.000000
   20        8.587809   0.000000
   21        8.587809   0.000000
   22        9.082453   0.000000
   23        9.082485   0.000000
   24        9.132516   0.000000

  0.4615385E+00  0.3017028E-17 -0.8818237E-17  0.3641329E-02
    1      -32.967637   1.000000
    2      -15.446026   1.000000
    3      -15.446026   1.000000
    4      -15.412957   1.000000
    5      -15.409470   1.000000
    6      -15.409470   1.000000
    7      -10.987165   1.000000
    8      -10.815825   1.000000
    9      -10.815825   1.000000
   10       -3.582158   1.000000
   11        1.813623   1.000000
   12        3.057761   1.000000
   13        3.057761   1.000000
   14        3.818783   1.000000
   15        3.818783   1.000000
   16        3.921463   1.000000
   17        5.915351   1.000000
   18        5.915351   1.000000
   19        7.084963   1.000000
   20        8.677307   0.000000
   21        8.677307   0.000000
   22        9.059836   0.000000
   23        9.059857   0.000000
   24        9.069998   0.000000

  0.7692308E-01  0.7692308E-01 -0.2277101E-17  0.2730997E-02
    1      -32.970284   1.000000
    2      -15.439732   1.000000
    3      -15.438361   1.000000
    4      -15.411492   1.000000
    5      -15.411128   1.000000
    6      -15.411128   1.000000
    7      -10.841642   1.000000
    8      -10.835787   1.000000
    9      -10.835787   1.000000
   10       -4.315348   1.000000
   11        3.120273   1.000000
   12        3.472887   1.000000
   13        3.472887   1.000000
   14        3.756064   1.000000
   15        3.841245   1.000000
   16        5.061464   1.000000
   17        6.264907   1.000000
   18        6.264907   1.000000
   19        6.711277   1.000000
   20        7.492037   0.000000
   21        7.886276   0.000000
   22        7.886276   0.000000
   23        8.573219   0.000000
   24        9.125929   0.000000

  0.1538462E+00  0.7692308E-01 -0.2438711E-17  0.1092399E-01
    1      -32.969920   1.000000
    2      -15.441092   1.000000
    3      -15.438660   1.000000
    4      -15.411700   1.000000
    5      -15.410911   1.000000
    6      -15.410860   1.000000
    7      -10.861272   1.000000
    8      -10.835992   1.000000
    9      -10.832250   1.000000
   10       -4.220465   1.000000
   11        2.847287   1.000000
   12        3.371413   1.000000
   13        3.415219   1.000000
   14        3.828642   1.000000
   15        3.918667   1.000000
   16        4.879885   1.000000
   17        6.082802   1.000000
   18        6.104536   1.000000
   19        6.902567   1.000000
   20        7.509180   0.000000
   21        8.094823   0.000000
   22        8.144049   0.000000
   23        8.803023   0.000000
   24        9.109042   0.000000

  0.2307692E+00  0.7692308E-01 -0.1057365E-16  0.1092399E-01
    1      -32.969334   1.000000
    2      -15.442706   1.000000
    3      -15.439784   1.000000
    4      -15.411957   1.000000
    5      -15.410620   1.000000
    6      -15.410458   1.000000
    7      -10.893692   1.000000
    8      -10.833841   1.000000
    9      -10.827208   1.000000
   10       -4.065803   1.000000
   11        2.552868   1.000000
   12        3.190245   1.000000
   13        3.318481   1.000000
   14        3.896318   1.000000
   15        3.997215   1.000000
   16        4.590050   1.000000
   17        5.907685   1.000000
   18        5.972438   1.000000
   19        6.972165   1.000000
   20        7.808238   0.000000
   21        8.305900   0.000000
   22        8.506061   0.000000
   23        9.030108   0.000000
   24        9.106380   0.000000

  0.3076923E+00  0.7692308E-01 -0.2527873E-17  0.1092399E-01
    1      -32.968659   1.000000
    2      -15.444226   1.000000
    3      -15.441482   1.000000
    4      -15.412265   1.000000
    5      -15.410276   1.000000
    6      -15.410006   1.000000
    7      -10.929285   1.000000
    8      -10.829837   1.000000
    9      -10.823075   1.000000
   10       -3.886386   1.000000
   11        2.266724   1.000000
   12        3.060035   1.000000
   13        3.238895   1.000000
   14        3.894068   1.000000
   15        4.011216   1.000000
   16        4.302116   1.000000
   17        5.806413   1.000000
   18        5.902286   1.000000
   19        6.988934   1.000000
   20        8.188143   0.000000
   21        8.491713   0.000000
   22        8.875511   0.000000
   23        9.097049   0.000000
   24        9.130613   0.000000

  0.3846154E+00  0.7692308E-01 -0.1598985E-16  0.1092399E-01
    1      -32.968048   1.000000
    2      -15.445305   1.000000
    3      -15.443354   1.000000
    4      -15.412575   1.000000
    5      -15.409936   1.000000
    6      -15.409617   1.000000
    7      -10.959924   1.000000
    8      -10.824903   1.000000
    9      -10.820781   1.000000
   10       -3.723339   1.000000
   11        2.033326   1.000000
   12        3.006014   1.000000
   13        3.176951   1.000000
   14        3.848194   1.000000
   15        3.961170   1.000000
   16        4.085442   1.000000
   17        5.768608   1.000000
   18        5.881560   1.000000
   19        7.055175   1.000000
   20        8.471040   0.000000
   21        8.629774   0.000000
   22        9.034436   0.000000
   23        9.076923   0.000000
   24        9.158032   0.000000

  0.4615385E+00  0.7692308E-01 -0.1116779E-16  0.1092399E-01
    1      -32.967643   1.000000
    2      -15.445683   1.000000
    3      -15.444957   1.000000
    4      -15.412791   1.000000
    5      -15.409672   1.000000
    6      -15.409384   1.000000
    7      -10.979496   1.000000
    8      -10.820790   1.000000
    9      -10.820157   1.000000
   10       -3.614288   1.000000
   11        1.887883   1.000000
   12        3.017705   1.000000
   13        3.115825   1.000000
   14        3.820265   1.000000
   15        3.887769   1.000000
   16        3.957178   1.000000
   17        5.762364   1.000000
   18        5.880831   1.000000
   19        7.159213   1.000000
   20        8.607506   0.000000
   21        8.704433   0.000000
   22        9.026382   0.000000
   23        9.053270   0.000000
   24        9.142883   0.000000

 -0.4615385E+00  0.7692308E-01 -0.1806317E-16  0.1092399E-01
    1      -32.967534   1.000000
    2      -15.445927   1.000000
    3      -15.445289   1.000000
    4      -15.412838   1.000000
    5      -15.409570   1.000000
    6      -15.409374   1.000000
    7      -10.984536   1.000000
    8      -10.823037   1.000000
    9      -10.816673   1.000000
   10       -3.584427   1.000000
   11        1.849498   1.000000
   12        3.047664   1.000000
   13        3.072138   1.000000
   14        3.827403   1.000000
   15        3.850673   1.000000
   16        3.926278   1.000000
   17        5.756232   1.000000
   18        5.884453   1.000000
   19        7.207550   1.000000
   20        8.638068   0.000000
   21        8.702247   0.000000
   22        9.031371   0.000000
   23        9.042755   0.000000
   24        9.114680   0.000000

 -0.3846154E+00  0.7692308E-01  0.8067035E-17  0.1092399E-01
    1      -32.967751   1.000000
    2      -15.446048   1.000000
    3      -15.444193   1.000000
    4      -15.412697   1.000000
    5      -15.409647   1.000000
    6      -15.409581   1.000000
    7      -10.974255   1.000000
    8      -10.826951   1.000000
    9      -10.815244   1.000000
   10       -3.640748   1.000000
   11        1.924511   1.000000
   12        2.990137   1.000000
   13        3.144215   1.000000
   14        3.812781   1.000000
   15        3.929231   1.000000
   16        3.989608   1.000000
   17        5.732492   1.000000
   18        5.898239   1.000000
   19        7.143263   1.000000
   20        8.607782   0.000000
   21        8.645907   0.000000
   22        9.042065   0.000000
   23        9.053537   0.000000
   24        9.158820   0.000000

 -0.3076923E+00  0.7692308E-01  0.1170656E-16  0.1092399E-01
    1      -32.968238   1.000000
    2      -15.445286   1.000000
    3      -15.442641   1.000000
    4      -15.412407   1.000000
    5      -15.409953   1.000000
    6      -15.409901   1.000000
    7      -10.950478   1.000000
    8      -10.831575   1.000000
    9      -10.816206   1.000000
   10       -3.770426   1.000000
   11        2.108497   1.000000
   12        2.968576   1.000000
   13        3.223044   1.000000
   14        3.844842   1.000000
   15        4.013165   1.000000
   16        4.143751   1.000000
   17        5.696739   1.000000
   18        5.944358   1.000000
   19        7.050473   1.000000
   20        8.421789   0.000000
   21        8.556868   0.000000
   22        9.022507   0.000000
   23        9.076319   0.000000
   24        9.159971   0.000000

 -0.2307692E+00  0.7692308E-01 -0.8003237E-17  0.1092399E-01
    1      -32.968887   1.000000
    2      -15.443841   1.000000
    3      -15.440998   1.000000
    4      -15.412072   1.000000
    5      -15.410399   1.000000
    6      -15.410263   1.000000
    7      -10.917743   1.000000
    8      -10.835743   1.000000
    9      -10.819352   1.000000
   10       -3.943423   1.000000
   11        2.384430   1.000000
   12        2.999058   1.000000
   13        3.315997   1.000000
   14        3.873465   1.000000
   15        4.054728   1.000000
   16        4.386604   1.000000
   17        5.688565   1.000000
   18        6.046596   1.000000
   19        6.992615   1.000000
   20        8.175079   0.000000
   21        8.320444   0.000000
   22        8.784040   0.000000
   23        9.105161   0.000000
   24        9.152149   0.000000

 -0.1538462E+00  0.7692308E-01  0.3066649E-17  0.1092399E-01
    1      -32.969548   1.000000
    2      -15.442034   1.000000
    3      -15.439653   1.000000
    4      -15.411761   1.000000
    5      -15.410804   1.000000
    6      -15.410640   1.000000
    7      -10.883203   1.000000
    8      -10.838216   1.000000
    9      -10.823967   1.000000
   10       -4.119627   1.000000
   11        2.718284   1.000000
   12        3.085631   1.000000
   13        3.424485   1.000000
   14        3.845374   1.000000
   15        4.026566   1.000000
   16        4.678885   1.000000
   17        5.781708   1.000000
   18        6.200383   1.000000
   19        6.937092   1.000000
   20        7.927513   0.000000
   21        7.947231   0.000000
   22        8.461647   0.000000
   23        8.966306   0.000000
   24        9.130011   0.000000

 -0.7692308E-01  0.7692308E-01 -0.2765363E-17  0.5461994E-02
    1      -32.970072   1.000000
    2      -15.440271   1.000000
    3      -15.438911   1.000000
    4      -15.411524   1.000000
    5      -15.411091   1.000000
    6      -15.410973   1.000000
    7      -10.856139   1.000000
    8      -10.837419   1.000000
    9      -10.828993   1.000000
   10       -4.258667   1.000000
   11        3.055866   1.000000
   12        3.220225   1.000000
   13        3.484929   1.000000
   14        3.792308   1.000000
   15        3.935796   1.000000
   16        4.927411   1.000000
   17        6.042782   1.000000
   18        6.343389   1.000000
   19        6.750304   1.000000
   20        7.707524   0.000000
   21        7.756142   0.000000
   22        8.121817   0.000000
   23        8.728227   0.000000
   24        9.125614   0.000000

  0.1538462E+00  0.1538462E+00 -0.4554202E-17  0.2730997E-02
    1      -32.969676   1.000000
    2      -15.442264   1.000000
    3      -15.437936   1.000000
    4      -15.412035   1.000000
    5      -15.410615   1.000000
    6      -15.410615   1.000000
    7      -10.861520   1.000000
    8      -10.839845   1.000000
    9      -10.839845   1.000000
   10       -4.165799   1.000000
   11        2.588822   1.000000
   12        3.504129   1.000000
   13        3.504129   1.000000
   14        3.800049   1.000000
   15        3.849613   1.000000
   16        4.880984   1.000000
   17        5.963631   1.000000
   18        5.963631   1.000000
   19        7.035872   1.000000
   20        7.393861   0.130207
   21        8.284841   0.000000
   22        8.284841   0.000000
   23        8.886013   0.000000
   24        9.089399   0.000000

  0.2307692E+00  0.1538462E+00 -0.4257588E-17  0.1092399E-01
    1      -32.969192   1.000000
    2      -15.443384   1.000000
    3      -15.438147   1.000000
    4      -15.412339   1.000000
    5      -15.410297   1.000000
    6      -15.410223   1.000000
    7      -10.884404   1.000000
    8      -10.840942   1.000000
    9      -10.837425   1.000000
   10       -4.053987   1.000000
   11        2.363425   1.000000
   12        3.394524   1.000000
   13        3.469050   1.000000
   14        3.850209   1.000000
   15        3.895995   1.000000
   16        4.730607   1.000000
   17        5.766924   1.000000
   18        5.854155   1.000000
   19        7.221643   1.000000
   20        7.480772   0.000000
   21        8.456211   0.000000
   22        8.517068   0.000000
   23        9.036865   0.000000
   24        9.074218   0.000000

  0.3076923E+00  0.1538462E+00 -0.1089553E-16  0.1092399E-01
    1      -32.968588   1.000000
    2      -15.444209   1.000000
    3      -15.439263   1.000000
    4      -15.412556   1.000000
    5      -15.410058   1.000000
    6      -15.409773   1.000000
    7      -10.915514   1.000000
    8      -10.839055   1.000000
    9      -10.833850   1.000000
   10       -3.912456   1.000000
   11        2.196493   1.000000
   12        3.204968   1.000000
   13        3.396517   1.000000
   14        3.870867   1.000000
   15        3.965641   1.000000
   16        4.490360   1.000000
   17        5.575782   1.000000
   18        5.805897   1.000000
   19        7.262464   1.000000
   20        7.889524   0.000000
   21        8.594418   0.000000
   22        8.781915   0.000000
   23        9.062184   0.000000
   24        9.137194   0.000000

  0.3846154E+00  0.1538462E+00 -0.8867858E-17  0.1092399E-01
    1      -32.967997   1.000000
    2      -15.444551   1.000000
    3      -15.441008   1.000000
    4      -15.412654   1.000000
    5      -15.409913   1.000000
    6      -15.409366   1.000000
    7      -10.944250   1.000000
    8      -10.834621   1.000000
    9      -10.833139   1.000000
   10       -3.774518   1.000000
   11        2.089941   1.000000
   12        3.065546   1.000000
   13        3.312048   1.000000
   14        3.854958   1.000000
   15        3.978638   1.000000
   16        4.247840   1.000000
   17        5.479788   1.000000
   18        5.801343   1.000000
   19        7.249034   1.000000
   20        8.330789   0.000000
   21        8.697172   0.000000
   22        8.965336   0.000000
   23        9.050934   0.000000
   24        9.164758   0.000000

  0.4615385E+00  0.1538462E+00 -0.1792358E-16  0.1092399E-01
    1      -32.967556   1.000000
    2      -15.444346   1.000000
    3      -15.442972   1.000000
    4      -15.412638   1.000000
    5      -15.409856   1.000000
    6      -15.409124   1.000000
    7      -10.964347   1.000000
    8      -10.835661   1.000000
    9      -10.828650   1.000000
   10       -3.670402   1.000000
   11        2.029911   1.000000
   12        3.013905   1.000000
   13        3.206262   1.000000
   14        3.857125   1.000000
   15        3.937099   1.000000
   16        4.074285   1.000000
   17        5.447932   1.000000
   18        5.806247   1.000000
   19        7.299955   1.000000
   20        8.527639   0.000000
   21        8.760247   0.000000
   22        8.997407   0.000000
   23        9.035410   0.000000
   24        9.181670   0.000000

 -0.4615385E+00  0.1538462E+00  0.1779732E-16  0.1092399E-01
    1      -32.967364   1.000000
    2      -15.444686   1.000000
    3      -15.443630   1.000000
    4      -15.412527   1.000000
    5      -15.409867   1.000000
    6      -15.409100   1.000000
    7      -10.972258   1.000000
    8      -10.840611   1.000000
    9      -10.822496   1.000000
   10       -3.621067   1.000000
   11        2.001856   1.000000
   12        3.050026   1.000000
   13        3.086514   1.000000
   14        3.872885   1.000000
   15        3.907771   1.000000
   16        4.002742   1.000000
   17        5.429176   1.000000
   18        5.806447   1.000000
   19        7.382913   0.663808
   20        8.521587   0.000000
   21        8.768546   0.000000
   22        9.020229   0.000000
   23        9.032346   0.000000
   24        9.155838   0.000000

 -0.3846154E+00  0.1538462E+00  0.2906681E-16  0.1092399E-01
    1      -32.967467   1.000000
    2      -15.445782   1.000000
    3      -15.442577   1.000000
    4      -15.412361   1.000000
    5      -15.409932   1.000000
    6      -15.409301   1.000000
    7      -10.967052   1.000000
    8      -10.846433   1.000000
    9      -10.817555   1.000000
   10       -3.636375   1.000000
   11        2.008000   1.000000
   12        2.981081   1.000000
   13        3.150740   1.000000
   14        3.820346   1.000000
   15        3.992700   1.000000
   16        4.041393   1.000000
   17        5.385124   1.000000
   18        5.813777   1.000000
   19        7.410682   0.000229
   20        8.551104   0.000000
   21        8.691304   0.000000
   22        9.022121   0.000000
   23        9.045314   0.000000
   24        9.165579   0.000000

 -0.3076923E+00  0.1538462E+00  0.4950764E-17  0.1092399E-01
    1      -32.967841   1.000000
    2      -15.446010   1.000000
    3      -15.441403   1.000000
    4      -15.412185   1.000000
    5      -15.410032   1.000000
    6      -15.409665   1.000000
    7      -10.950316   1.000000
    8      -10.851122   1.000000
    9      -10.814959   1.000000
   10       -3.714711   1.000000
   11        2.068511   1.000000
   12        2.916815   1.000000
   13        3.286344   1.000000
   14        3.798471   1.000000
   15        4.075358   1.000000
   16        4.179352   1.000000
   17        5.310938   1.000000
   18        5.854628   1.000000
   19        7.394672   0.107458
   20        8.520485   0.000000
   21        8.564811   0.000000
   22        9.028741   0.000000
   23        9.039762   0.000000
   24        9.191281   0.000000

 -0.2307692E+00  0.1538462E+00  0.1299654E-16  0.1092399E-01
    1      -32.968400   1.000000
    2      -15.445334   1.000000
    3      -15.440375   1.000000
    4      -15.412040   1.000000
    5      -15.410167   1.000000
    6      -15.410106   1.000000
    7      -10.926272   1.000000
    8      -10.852428   1.000000
    9      -10.815320   1.000000
   10       -3.841250   1.000000
   11        2.207031   1.000000
   12        2.910310   1.000000
   13        3.423588   1.000000
   14        3.794221   1.000000
   15        4.117228   1.000000
   16        4.387079   1.000000
   17        5.263200   1.000000
   18        5.950287   1.000000
   19        7.383038   0.657343
   20        8.289365   0.000000
   21        8.389907   0.000000
   22        8.937233   0.000000
   23        9.063159   0.000000
   24        9.192811   0.000000

 -0.1538462E+00  0.1538462E+00  0.1018864E-16  0.5461994E-02
    1      -32.969017   1.000000
    2      -15.443897   1.000000
    3      -15.439731   1.000000
    4      -15.411914   1.000000
    5      -15.410510   1.000000
    6      -15.410363   1.000000
    7      -10.901744   1.000000
    8      -10.848066   1.000000
    9      -10.818572   1.000000
   10       -3.987963   1.000000
   11        2.431212   1.000000
   12        2.967862   1.000000
   13        3.507351   1.000000
   14        3.788553   1.000000
   15        4.098485   1.000000
   16        4.575079   1.000000
   17        5.391021   1.000000
   18        6.087486   1.000000
   19        7.292251   1.000000
   20        8.064076   0.000000
   21        8.070680   0.000000
   22        8.749596   0.000000
   23        9.087480   0.000000
   24        9.095044   0.000000

  0.2307692E+00  0.2307692E+00 -0.6831302E-17  0.2730997E-02
    1      -32.968832   1.000000
    2      -15.443712   1.000000
    3      -15.437326   1.000000
    4      -15.412808   1.000000
    5      -15.409846   1.000000
    6      -15.409846   1.000000
    7      -10.888891   1.000000
    8      -10.845727   1.000000
    9      -10.845727   1.000000
   10       -3.995972   1.000000
   11        2.204227   1.000000
   12        3.525156   1.000000
   13        3.525156   1.000000
   14        3.750043   1.000000
   15        3.864216   1.000000
   16        4.725916   1.000000
   17        5.763950   1.000000
   18        5.763950   1.000000
   19        7.018188   1.000000
   20        7.672641   0.000000
   21        8.584850   0.000000
   22        8.584850   0.000000
   23        9.041166   0.000000
   24        9.095896   0.000000

  0.3076923E+00  0.2307692E+00 -0.9529898E-17  0.1092399E-01
    1      -32.968334   1.000000
    2      -15.443593   1.000000
    3      -15.437522   1.000000
    4      -15.413125   1.000000
    5      -15.409497   1.000000
    6      -15.409395   1.000000
    7      -10.909404   1.000000
    8      -10.847113   1.000000
    9      -10.846307   1.000000
   10       -3.909161   1.000000
   11        2.126955   1.000000
   12        3.384824   1.000000
   13        3.495460   1.000000
   14        3.802932   1.000000
   15        3.893338   1.000000
   16        4.597385   1.000000
   17        5.593113   1.000000
   18        5.732610   1.000000
   19        7.165637   1.000000
   20        7.847519   0.000000
   21        8.682432   0.000000
   22        8.731287   0.000000
   23        9.016645   0.000000
   24        9.118054   0.000000

  0.3846154E+00  0.2307692E+00 -0.1282926E-16  0.1092399E-01
    1      -32.967816   1.000000
    2      -15.443081   1.000000
    3      -15.438686   1.000000
    4      -15.413205   1.000000
    5      -15.409368   1.000000
    6      -15.408992   1.000000
    7      -10.932085   1.000000
    8      -10.847874   1.000000
    9      -10.844804   1.000000
   10       -3.815674   1.000000
   11        2.134951   1.000000
   12        3.195600   1.000000
   13        3.419778   1.000000
   14        3.890821   1.000000
   15        3.900865   1.000000
   16        4.407059   1.000000
   17        5.363881   1.000000
   18        5.739750   1.000000
   19        7.295245   1.000000
   20        8.212812   0.000000
   21        8.756413   0.000000
   22        8.893109   0.000000
   23        9.012880   0.000000
   24        9.133639   0.000000

  0.4615385E+00  0.2307692E+00 -0.6395346E-17  0.1092399E-01
    1      -32.967391   1.000000
    2      -15.442292   1.000000
    3      -15.440522   1.000000
    4      -15.413016   1.000000
    5      -15.409493   1.000000
    6      -15.408742   1.000000
    7      -10.948365   1.000000
    8      -10.853679   1.000000
    9      -10.839331   1.000000
   10       -3.735137   1.000000
   11        2.194034   1.000000
   12        3.070193   1.000000
   13        3.303592   1.000000
   14        3.920160   1.000000
   15        3.921913   1.000000
   16        4.225732   1.000000
   17        5.204915   1.000000
   18        5.744011   1.000000
   19        7.356521   0.999984
   20        8.485476   0.000000
   21        8.811114   0.000000
   22        8.962766   0.000000
   23        9.015957   0.000000
   24        9.191224   0.000000

 -0.4615385E+00  0.2307692E+00 -0.2636660E-17  0.1092399E-01
    1      -32.967162   1.000000
    2      -15.442604   1.000000
    3      -15.441422   1.000000
    4      -15.412586   1.000000
    5      -15.409824   1.000000
    6      -15.408707   1.000000
    7      -10.954794   1.000000
    8      -10.862682   1.000000
    9      -10.831931   1.000000
   10       -3.681055   1.000000
   11        2.235897   1.000000
   12        3.036232   1.000000
   13        3.162920   1.000000
   14        3.882517   1.000000
   15        3.974070   1.000000
   16        4.139967   1.000000
   17        5.111862   1.000000
   18        5.731386   1.000000
   19        7.460229   0.000000
   20        8.468146   0.000000
   21        8.838342   0.000000
   22        9.004654   0.000000
   23        9.007263   0.000000
   24        9.170244   0.000000

 -0.3846154E+00  0.2307692E+00  0.2185402E-17  0.1092399E-01
    1      -32.967178   1.000000
    2      -15.444458   1.000000
    3      -15.440677   1.000000
    4      -15.412058   1.000000
    5      -15.410238   1.000000
    6      -15.408905   1.000000
    7      -10.951551   1.000000
    8      -10.871591   1.000000
    9      -10.824281   1.000000
   10       -3.662104   1.000000
   11        2.209259   1.000000
   12        3.029231   1.000000
   13        3.094821   1.000000
   14        3.833663   1.000000
   15        4.049542   1.000000
   16        4.163707   1.000000
   17        5.043985   1.000000
   18        5.721690   1.000000
   19        7.579875   0.000000
   20        8.425719   0.000000
   21        8.801745   0.000000
   22        8.998967   0.000000