 vasp.6.0.8 29Jun18 (build Jun 13 2019 12:54:44) complex

 executed on      IFC18_CrayMPICH date 2021.12.05  14:21:48
 running   64 mpi-ranks, with    1 threads/rank
 distrk:  each k-point on   16 cores,    4 groups
 distr:  one band on NCORES_PER_BAND=   4 cores,    4 groups


--------------------------------------------------------------------------------------------------------


 INCAR:
 POTCAR:    PAW_PBE Th 07Sep2000
 POTCAR:    PAW_PBE Bi_d 06Sep2000
 POTCAR:    PAW_PBE Pt 04Feb2005
 POTCAR:    PAW_PBE Th 07Sep2000
   VRHFIN =Th:  [Xe,5d,4f]
   LEXCH  = PE
   EATOM  =   984.7553 eV,   72.3775 Ry

   TITEL  = PAW_PBE Th 07Sep2000
   LULTRA =        F    use ultrasoft PP ?
   IUNSCR =        1    unscreen: 0-lin 1-nonlin 2-no
   RPACOR =    2.200    partial core radius
   POMASS =  232.039; ZVAL   =   12.000    mass and valenz
   RCORE  =    2.800    outmost cutoff radius
   RWIGS  =    3.000; RWIGS  =    1.588    wigner-seitz radius (au A)
   ENMAX  =  247.306; ENMIN  =  185.480 eV
   RCLOC  =    2.211    cutoff for local pot
   LCOR   =        T    correct aug charges
   LPAW   =        T    paw PP
   EAUG   =  535.431
   DEXC   =    0.000
   RMAX   =    2.862    core radius for proj-oper
   RAUG   =    1.300    factor for augmentation sphere
   RDEP   =    2.926    radius for radial grids
   RDEPT  =    2.250    core radius for aug-charge

   Atomic configuration
   18 entries
     n  l   j            E        occ.
     1  0  0.50   -109990.1879   2.0000
     2  0  0.50    -20388.0147   2.0000
     2  1  1.50    -17049.6156   6.0000
     3  0  0.50     -5106.5436   2.0000
     3  1  1.50     -4175.1262   6.0000
     3  2  2.50     -3342.8437  10.0000
     4  0  0.50     -1280.8211   2.0000
     4  1  1.50      -976.4859   6.0000
     4  2  2.50      -661.8358  10.0000
     4  3  3.50      -324.9124  14.0000
     5  0  0.50      -278.7726   2.0000
     5  1  1.50      -186.2212   6.0000
     5  2  2.50       -86.9031  10.0000
     6  0  0.50       -43.3059   2.0000
     7  0  0.50        -4.0783   2.0000
     6  1  1.50       -21.4071   6.0000
     6  2  1.50        -2.3664   1.0000
     5  3  2.50        -1.2804   1.0000
   Description
     l       E           TYP  RCUT    TYP  RCUT
     0    -43.3059201     23  2.800
     0     -4.0782900     23  2.800
     1    -21.4071032     23  2.500
     1    -22.7676858     23  2.500
     2     -2.3664170     23  2.500
     2      3.0546543     23  2.500
     3     -1.2803910     23  2.800
     3      0.1360583     23  2.800
  local pseudopotential read in
  partial core-charges read in
  partial kinetic energy density read in
  atomic valenz-charges read in
  non local Contribution for L=           0  read in
    real space projection operators read in
  non local Contribution for L=           0  read in
    real space projection operators read in
  non local Contribution for L=           1  read in
    real space projection operators read in
  non local Contribution for L=           1  read in
    real space projection operators read in
  non local Contribution for L=           2  read in
    real space projection operators read in
  non local Contribution for L=           2  read in
    real space projection operators read in
  non local Contribution for L=           3  read in
    real space projection operators read in
  non local Contribution for L=           3  read in
    real space projection operators read in
    PAW grid and wavefunctions read in

   number of l-projection  operators is LMAX  =           8
   number of lm-projection operators is LMMAX =          32

 POTCAR:    PAW_PBE Bi_d 06Sep2000
   VRHFIN =Bi:
   LEXCH  = PE
   EATOM  =  1959.2045 eV,  143.9975 Ry

   TITEL  = PAW_PBE Bi_d 06Sep2000
   LULTRA =        F    use ultrasoft PP ?
   IUNSCR =        1    unscreen: 0-lin 1-nonlin 2-no
   RPACOR =    2.200    partial core radius
   POMASS =  208.980; ZVAL   =   15.000    mass and valenz
   RCORE  =    2.500    outmost cutoff radius
   RWIGS  =    3.090; RWIGS  =    1.635    wigner-seitz radius (au A)
   ENMAX  =  242.839; ENMIN  =  182.129 eV
   ICORE  =        3    local potential
   LCOR   =        T    correct aug charges
   LPAW   =        T    paw PP
   EAUG   =  442.899
   DEXC   =    0.000
   RMAX   =    2.551    core radius for proj-oper
   RAUG   =    1.300    factor for augmentation sphere
   RDEP   =    2.650    radius for radial grids
   RDEPT  =    2.039    core radius for aug-charge

   Atomic configuration
   16 entries
     n  l   j            E        occ.
     1  0  0.50    -90639.6581   2.0000
     2  0  0.50    -16282.4666   2.0000
     2  1  1.50    -13922.8286   6.0000
     3  0  0.50     -3930.4763   2.0000
     3  1  1.50     -3256.7013   6.0000
     3  2  2.50     -2581.6168  10.0000
     4  0  0.50      -902.2614   2.0000
     4  1  1.50      -681.5915   6.0000
     4  2  2.50      -429.8249  10.0000
     4  3  3.50      -152.6004  14.0000
     5  0  0.50      -157.7156   2.0000
     5  1  1.50       -95.8054   6.0000
     5  2  2.50       -27.0806  10.0000
     6  0  0.50       -14.4732   2.0000
     6  1  1.50        -4.5702   3.0000
     5  3  2.50        -2.7212   0.0000
   Description
     l       E           TYP  RCUT    TYP  RCUT
     2    -27.0805982     23  2.500
     2     -1.3605826     23  2.500
     0    -14.4732271     23  2.500
     0      6.8029130     23  2.500
     1     -4.5701651     23  2.500
     1     13.6058260     23  2.500
     3     -1.3605826      7  2.500
  local pseudopotential read in
  partial core-charges read in
  partial kinetic energy density read in
  atomic valenz-charges read in
  non local Contribution for L=           2  read in
    real space projection operators read in
  non local Contribution for L=           2  read in
    real space projection operators read in
  non local Contribution for L=           0  read in
    real space projection operators read in
  non local Contribution for L=           0  read in
    real space projection operators read in
  non local Contribution for L=           1  read in
    real space projection operators read in
  non local Contribution for L=           1  read in
    real space projection operators read in
    PAW grid and wavefunctions read in

   number of l-projection  operators is LMAX  =           6
   number of lm-projection operators is LMMAX =          18

 POTCAR:    PAW_PBE Pt 04Feb2005
   VRHFIN =Pt: s1d9
   LEXCH  = PE
   EATOM  =   729.1176 eV,   53.5886 Ry

   TITEL  = PAW_PBE Pt 04Feb2005
   LULTRA =        F    use ultrasoft PP ?
   IUNSCR =        1    unscreen: 0-lin 1-nonlin 2-no
   RPACOR =    2.330    partial core radius
   POMASS =  195.080; ZVAL   =   10.000    mass and valenz
   RCORE  =    2.600    outmost cutoff radius
   RWIGS  =    2.750; RWIGS  =    1.455    wigner-seitz radius (au A)
   ENMAX  =  230.283; ENMIN  =  172.712 eV
   ICORE  =        3    local potential
   LCOR   =        T    correct aug charges
   LPAW   =        T    paw PP
   EAUG   =  358.966
   DEXC   =    0.000
   RMAX   =    2.658    core radius for proj-oper
   RAUG   =    1.300    factor for augmentation sphere
   RDEP   =    2.761    radius for radial grids
   RDEPT  =    2.203    core radius for aug-charge

   Atomic configuration
   16 entries
     n  l   j            E        occ.
     1  0  0.50    -78401.1885   2.0000
     2  0  0.50    -13770.7750   2.0000
     2  1  1.50    -11931.0468   6.0000
     3  0  0.50     -3234.7234   2.0000
     3  1  1.50     -2699.2216   6.0000
     3  2  2.50     -2119.5714  10.0000
     4  0  0.50      -695.1528   2.0000
     4  1  1.50      -519.6034   6.0000
     4  2  2.50      -306.6786  10.0000
     4  3  3.50       -70.1041  14.0000
     5  0  0.50      -101.7747   2.0000
     5  1  1.50       -55.9873   6.0000
     5  2  2.50        -6.1423   9.0000
     6  0  0.50        -5.6573   1.0000
     6  1  1.50        -6.8029   0.0000
     5  3  2.50        -1.3606   0.0000
   Description
     l       E           TYP  RCUT    TYP  RCUT
     2     -6.1423404     23  2.500
     2     -7.5029230     23  2.500
     0     -5.6573207     23  2.500
     0      0.7416693     23  2.500
     1     -2.7211652     23  2.600
     1     20.4087390     23  2.600
     3     -1.3605826     23  2.500
  local pseudopotential read in
  partial core-charges read in
  partial kinetic energy density read in
  atomic valenz-charges read in
  non local Contribution for L=           2  read in
    real space projection operators read in
  non local Contribution for L=           2  read in
    real space projection operators read in
  non local Contribution for L=           0  read in
    real space projection operators read in
  non local Contribution for L=           0  read in
    real space projection operators read in
  non local Contribution for L=           1  read in
    real space projection operators read in
  non local Contribution for L=           1  read in
    real space projection operators read in
    PAW grid and wavefunctions read in

   number of l-projection  operators is LMAX  =           6
   number of lm-projection operators is LMMAX =          18

 WARNING: PSMAXN for non-local potential too small
          PSMAXN should be >   13.5545592237991       NTYP=           1

 -----------------------------------------------------------------------------
|                                                                             |
|  ADVICE TO THIS USER RUNNING 'VASP/VAMP'   (HEAR YOUR MASTER'S VOICE ...):  |
|                                                                             |
|      You enforced a specific xc-type in the INCAR file,                     |
|      a different type was found on the POTCAR file                          |
|          I HOPE YOU KNOW, WHAT YOU ARE  DOING                               |
|                                                                             |
 -----------------------------------------------------------------------------

  PAW_PBE Th 07Sep2000                  :
 energy of atom  1       EATOM= -984.7553
 kinetic energy error for atom=    0.0005 (will be added to EATOM!!)
  PAW_PBE Bi_d 06Sep2000                :
 energy of atom  2       EATOM=-1959.2045
 kinetic energy error for atom=    0.0012 (will be added to EATOM!!)
  PAW_PBE Pt 04Feb2005                  :
 energy of atom  3       EATOM= -729.1176
 kinetic energy error for atom=    0.0010 (will be added to EATOM!!)


 POSCAR: Th1 Bi1 Pt1
  positions in direct lattice
  No initial velocities read in
 exchange correlation table for  LEXCH =       14
   RHO(1)=    0.500       N(1)  =     2000
   RHO(2)=  100.500       N(2)  =     4000



--------------------------------------------------------------------------------------------------------


 ion  position               nearest neighbor table
   1  0.250  0.250  0.250-   3 3.06   3 3.06   3 3.06   3 3.06   2 3.54   2 3.54   2 3.54   2 3.54
                             2 3.54   2 3.54
   2  0.750  0.750  0.750-   3 3.06   3 3.06   3 3.06   3 3.06   1 3.54   1 3.54   1 3.54   1 3.54
                             1 3.54   1 3.54
   3  0.000  0.000  0.000-   2 3.06   1 3.06   2 3.06   1 3.06   2 3.06   1 3.06   2 3.06   1 3.06


  LATTYP: Found a face centered cubic cell.
 ALAT       =     7.0708276879

  Lattice vectors:

 A1 = (   0.0000000000,   3.5354138439,   3.5354138439)
 A2 = (   3.5354138439,   0.0000000000,   3.5354138439)
 A3 = (   3.5354138439,   3.5354138439,   0.0000000000)


Analysis of symmetry for initial positions (statically):
=====================================================================
 Subroutine PRICEL returns:
 Original cell was already a primitive cell.


 Routine SETGRP: Setting up the symmetry group for a
 face centered cubic supercell.


 Subroutine GETGRP returns: Found 24 space group operations
 (whereof 24 operations were pure point group operations)
 out of a pool of 48 trial point group operations.


The static configuration has the point symmetry T_d .


Analysis of symmetry for dynamics (positions and initial velocities):
=====================================================================
 Subroutine PRICEL returns:
 Original cell was already a primitive cell.


 Routine SETGRP: Setting up the symmetry group for a
 face centered cubic supercell.


 Subroutine GETGRP returns: Found 24 space group operations
 (whereof 24 operations were pure point group operations)
 out of a pool of 48 trial point group operations.


The dynamic configuration has the point symmetry T_d .


 Subroutine INISYM returns: Found 24 space group operations
 (whereof 24 operations are pure point group operations),
 and found     1 'primitive' translations


----------------------------------------------------------------------------------------

                                     Primitive cell

  volume of cell :      88.3793

  direct lattice vectors                    reciprocal lattice vectors
     0.000000000  3.535413844  3.535413844    -0.141426159  0.141426159  0.141426159
     3.535413844  0.000000000  3.535413844     0.141426159 -0.141426159  0.141426159
     3.535413844  3.535413844  0.000000000     0.141426159  0.141426159 -0.141426159

  length of vectors
     4.999830207  4.999830207  4.999830207     0.244957293  0.244957293  0.244957293

  position of ions in fractional coordinates (direct lattice)
     0.250000000  0.250000000  0.250000000
     0.750000000  0.750000000  0.750000000
     0.000000000  0.000000000  0.000000000

  ion indices of the primitive-cell ions
   primitive index   ion index
                 1           1
                 2           2
                 3           3

----------------------------------------------------------------------------------------



 KPOINTS: KPOINTS

Automatic generation of k-mesh.
Space group operators:
 irot       det(A)        alpha          n_x          n_y          n_z        tau_x        tau_y        tau_z
    1     1.000000     0.000000     1.000000     0.000000     0.000000     0.000000     0.000000     0.000000
    2     1.000000   120.000000    -0.577350    -0.577350    -0.577350     0.000000     0.000000     0.000000
    3     1.000000   120.000000     0.577350     0.577350     0.577350     0.000000     0.000000     0.000000
    4    -1.000000    90.000000     0.000000     0.000000    -1.000000     0.000000     0.000000     0.000000
    5    -1.000000   180.000000    -0.000000     0.707107     0.707107     0.000000     0.000000     0.000000
    6    -1.000000    90.000000     0.000000     1.000000     0.000000     0.000000     0.000000     0.000000
    7     1.000000   180.000000     0.000000    -0.000000     1.000000     0.000000     0.000000     0.000000
    8     1.000000   120.000000    -0.577350     0.577350     0.577350     0.000000     0.000000     0.000000
    9     1.000000   120.000000    -0.577350     0.577350    -0.577350     0.000000     0.000000     0.000000
   10    -1.000000    90.000000     0.000000     0.000000     1.000000     0.000000     0.000000     0.000000
   11    -1.000000    90.000000    -1.000000    -0.000000     0.000000     0.000000     0.000000     0.000000
   12    -1.000000   180.000000     0.707107     0.000000     0.707107     0.000000     0.000000     0.000000
   13     1.000000   120.000000     0.577350    -0.577350     0.577350     0.000000     0.000000     0.000000
   14     1.000000   120.000000    -0.577350    -0.577350     0.577350     0.000000     0.000000     0.000000
   15     1.000000   180.000000     1.000000     0.000000     0.000000     0.000000     0.000000     0.000000
   16    -1.000000    90.000000     0.000000    -1.000000     0.000000     0.000000     0.000000     0.000000
   17    -1.000000   180.000000     0.707107     0.707107     0.000000     0.000000     0.000000     0.000000
   18    -1.000000    90.000000     1.000000    -0.000000    -0.000000     0.000000     0.000000     0.000000
   19     1.000000   120.000000     0.577350    -0.577350    -0.577350     0.000000     0.000000     0.000000
   20     1.000000   180.000000    -0.000000    -1.000000    -0.000000     0.000000     0.000000     0.000000
   21     1.000000   120.000000     0.577350     0.577350    -0.577350     0.000000     0.000000     0.000000
   22    -1.000000   180.000000     0.000000    -0.707107     0.707107     0.000000     0.000000     0.000000
   23    -1.000000   180.000000     0.707107    -0.707107     0.000000     0.000000     0.000000     0.000000
   24    -1.000000   180.000000     0.707107     0.000000    -0.707107     0.000000     0.000000     0.000000

 Subroutine IBZKPT returns following result:
 ===========================================

 Found     84 irreducible k-points:

 Following reciprocal coordinates:
            Coordinates               Weight
  0.000000  0.000000  0.000000      1.000000
  0.076923 -0.000000  0.000000      8.000000
  0.153846  0.000000 -0.000000      8.000000
  0.230769  0.000000 -0.000000      8.000000
  0.307692  0.000000 -0.000000      8.000000
  0.384615  0.000000 -0.000000      8.000000
  0.461538  0.000000 -0.000000      8.000000
  0.076923  0.076923 -0.000000      6.000000
  0.153846  0.076923 -0.000000     24.000000
  0.230769  0.076923 -0.000000     24.000000
  0.307692  0.076923 -0.000000     24.000000
  0.384615  0.076923 -0.000000     24.000000
  0.461538  0.076923 -0.000000     24.000000
 -0.461538  0.076923 -0.000000     24.000000
 -0.384615  0.076923  0.000000     24.000000
 -0.307692  0.076923  0.000000     24.000000
 -0.230769  0.076923 -0.000000     24.000000
 -0.153846  0.076923  0.000000     24.000000
 -0.076923  0.076923 -0.000000     12.000000
  0.153846  0.153846 -0.000000      6.000000
  0.230769  0.153846 -0.000000     24.000000
  0.307692  0.153846 -0.000000     24.000000
  0.384615  0.153846 -0.000000     24.000000
  0.461538  0.153846 -0.000000     24.000000
 -0.461538  0.153846  0.000000     24.000000
 -0.384615  0.153846  0.000000     24.000000
 -0.307692  0.153846  0.000000     24.000000
 -0.230769  0.153846  0.000000     24.000000
 -0.153846  0.153846  0.000000     12.000000
  0.230769  0.230769 -0.000000      6.000000
  0.307692  0.230769 -0.000000     24.000000
  0.384615  0.230769 -0.000000     24.000000
  0.461538  0.230769 -0.000000     24.000000
 -0.461538  0.230769 -0.000000     24.000000
 -0.384615  0.230769  0.000000     24.000000
 -0.307692  0.230769  0.000000     24.000000
 -0.230769  0.230769  0.000000     12.000000
  0.307692  0.307692 -0.000000      6.000000
  0.384615  0.307692 -0.000000     24.000000
  0.461538  0.307692 -0.000000     24.000000
 -0.461538  0.307692 -0.000000     24.000000
 -0.384615  0.307692 -0.000000     24.000000
 -0.307692  0.307692  0.000000     12.000000
  0.384615  0.384615 -0.000000      6.000000
  0.461538  0.384615 -0.000000     24.000000
 -0.461538  0.384615  0.000000     24.000000
 -0.384615  0.384615  0.000000     12.000000
  0.461538  0.461538 -0.000000      6.000000
 -0.461538  0.461538  0.000000     12.000000
  0.230769  0.153846  0.076923     24.000000
  0.307692  0.153846  0.076923     48.000000
  0.384615  0.153846  0.076923     48.000000
  0.461538  0.153846  0.076923     48.000000
 -0.461538  0.153846  0.076923     48.000000
  0.307692  0.230769  0.076923     24.000000
  0.384615  0.230769  0.076923     48.000000
  0.461538  0.230769  0.076923     48.000000
 -0.461538  0.230769  0.076923     48.000000
 -0.384615  0.230769  0.076923     48.000000
 -0.307692  0.230769  0.076923     48.000000
 -0.230769  0.230769  0.076923     48.000000
 -0.153846  0.230769  0.076923     24.000000
  0.384615  0.307692  0.076923     24.000000
  0.461538  0.307692  0.076923     48.000000
 -0.461538  0.307692  0.076923     48.000000
 -0.384615  0.307692  0.076923     48.000000
 -0.307692  0.307692  0.076923     48.000000
 -0.230769  0.307692  0.076923     24.000000
  0.461538  0.384615  0.076923     24.000000
 -0.461538  0.384615  0.076923     48.000000
 -0.384615  0.384615  0.076923     48.000000
 -0.307692  0.384615  0.076923     24.000000
 -0.461538  0.461538  0.076923     24.000000
 -0.384615  0.461538  0.076923     24.000000
  0.461538  0.307692  0.153846     24.000000
 -0.461538  0.307692  0.153846     48.000000
 -0.384615  0.307692  0.153846     48.000000
 -0.461538  0.384615  0.153846     24.000000
 -0.384615  0.384615  0.153846     48.000000
 -0.307692  0.384615  0.153846     48.000000
 -0.230769  0.384615  0.153846     24.000000
 -0.384615  0.461538  0.153846     24.000000
 -0.307692  0.461538  0.153846     24.000000
 -0.307692  0.461538  0.230769     24.000000

 Following cartesian coordinates:
            Coordinates               Weight
  0.000000  0.000000  0.000000      1.000000
 -0.011230  0.011230  0.011230      8.000000
 -0.022460  0.022460  0.022460      8.000000
 -0.033690  0.033690  0.033690      8.000000
 -0.044920  0.044920  0.044920      8.000000
 -0.056151  0.056151  0.056151      8.000000
 -0.067381  0.067381  0.067381      8.000000
 -0.000000 -0.000000  0.022460      6.000000
 -0.011230  0.011230  0.033690     24.000000
 -0.022460  0.022460  0.044920     24.000000
 -0.033690  0.033690  0.056151     24.000000
 -0.044920  0.044920  0.067381     24.000000
 -0.056151  0.056151  0.078611     24.000000
  0.078611 -0.078611 -0.056151     24.000000
  0.067381 -0.067381 -0.044920     24.000000
  0.056151 -0.056151 -0.033690     24.000000
  0.044920 -0.044920 -0.022460     24.000000
  0.033690 -0.033690 -0.011230     24.000000
  0.022460 -0.022460  0.000000     12.000000
  0.000000 -0.000000  0.044920      6.000000
 -0.011230  0.011230  0.056151     24.000000
 -0.022460  0.022460  0.067381     24.000000
 -0.033690  0.033690  0.078611     24.000000
 -0.044920  0.044920  0.089841     24.000000
  0.089841 -0.089841 -0.044920     24.000000
  0.078611 -0.078611 -0.033690     24.000000
  0.067381 -0.067381 -0.022460     24.000000
  0.056151 -0.056151 -0.011230     24.000000
  0.044920 -0.044920 -0.000000     12.000000
  0.000000 -0.000000  0.067381      6.000000
 -0.011230  0.011230  0.078611     24.000000
 -0.022460  0.022460  0.089841     24.000000
 -0.033690  0.033690  0.101071     24.000000
  0.101071 -0.101071 -0.033690     24.000000
  0.089841 -0.089841 -0.022460     24.000000
  0.078611 -0.078611 -0.011230     24.000000
  0.067381 -0.067381 -0.000000     12.000000
  0.000000 -0.000000  0.089841      6.000000
 -0.011230  0.011230  0.101071     24.000000
 -0.022460  0.022460  0.112301     24.000000
  0.112301 -0.112301 -0.022460     24.000000
  0.101071 -0.101071 -0.011230     24.000000
  0.089841 -0.089841 -0.000000     12.000000
 -0.000000  0.000000  0.112301      6.000000
 -0.011230  0.011230  0.123531     24.000000
  0.123531 -0.123531 -0.011230     24.000000
  0.112301 -0.112301 -0.000000     12.000000
 -0.000000  0.000000  0.134761      6.000000
  0.134761 -0.134761  0.000000     12.000000
 -0.000000  0.022460  0.044920     24.000000
 -0.011230  0.033690  0.056151     48.000000
 -0.022460  0.044920  0.067381     48.000000
 -0.033690  0.056151  0.078611     48.000000
  0.101071 -0.078611 -0.056151     48.000000
  0.000000  0.022460  0.067381     24.000000
 -0.011230  0.033690  0.078611     48.000000
 -0.022460  0.044920  0.089841     48.000000
  0.112301 -0.089841 -0.044920     48.000000
  0.101071 -0.078611 -0.033690     48.000000
  0.089841 -0.067381 -0.022460     48.000000
  0.078611 -0.056151 -0.011230     48.000000
  0.067381 -0.044920 -0.000000     24.000000
 -0.000000  0.022460  0.089841     24.000000
 -0.011230  0.033690  0.101071     48.000000
  0.123531 -0.101071 -0.033690     48.000000
  0.112301 -0.089841 -0.022460     48.000000
  0.101071 -0.078611 -0.011230     48.000000
  0.089841 -0.067381 -0.000000     24.000000
  0.000000  0.022460  0.112301     24.000000
  0.134761 -0.112301 -0.022460     48.000000
  0.123531 -0.101071 -0.011230     48.000000
  0.112301 -0.089841 -0.000000     24.000000
  0.145991 -0.123531 -0.011230     24.000000
  0.134761 -0.112301 -0.000000     24.000000
 -0.000000  0.044920  0.089841     24.000000
  0.134761 -0.089841 -0.044920     48.000000
  0.123531 -0.078611 -0.033690     48.000000
  0.145991 -0.101071 -0.033690     24.000000
  0.134761 -0.089841 -0.022460     48.000000
  0.123531 -0.078611 -0.011230     48.000000
  0.112301 -0.067381 -0.000000     24.000000
  0.145991 -0.101071 -0.011230     24.000000
  0.134761 -0.089841 -0.000000     24.000000
  0.145991 -0.078611 -0.011230     24.000000



--------------------------------------------------------------------------------------------------------




 Dimension of arrays:
   k-points           NKPTS =     84   k-points in BZ     NKDIM =     84   number of bands    NBANDS=     24
   number of dos      NEDOS =    301   number of ions     NIONS =      3
   non local maximal  LDIM  =      8   non local SUM 2l+1 LMDIM =     32
   total plane-waves  NPLWV = 110592
   max r-space proj   IRMAX =      1   max aug-charges    IRDMAX= 606449
   dimension x,y,z NGX =    48 NGY =   48 NGZ =   48
   dimension x,y,z NGXF=    96 NGYF=   96 NGZF=   96
   support grid    NGXF=   192 NGYF=  192 NGZF=  192
   ions per type =               1   1   1
   NGX,Y,Z   is equivalent  to a cutoff of  15.96, 15.96, 15.96 a.u.
   NGXF,Y,Z  is equivalent  to a cutoff of  31.92, 31.92, 31.92 a.u.

 SYSTEM =  unknown system
 POSCAR =  Th1 Bi1 Pt1

 Startparameter for this run:
   NWRITE =      2    write-flag & timer
   PREC   = acc       normal or accurate (medium, high low for compatibility)
   ISTART =      0    job   : 0-new  1-cont  2-samecut
   ICHARG =      2    charge: 1-file 2-atom 10-const
   ISPIN  =      1    spin polarized calculation?
   LNONCOLLINEAR =      F non collinear calculations
   LSORBIT =      F    spin-orbit coupling
   INIWAV =      1    electr: 0-lowe 1-rand  2-diag
   LASPH  =      F    aspherical Exc in radial PAW
   METAGGA=      F    non-selfconsistent MetaGGA calc.

 Electronic Relaxation 1
   ENCUT  =  700.0 eV  51.45 Ry    7.17 a.u.  10.79 10.79 10.79*2*pi/ulx,y,z
   ENINI  =  700.0     initial cutoff
   ENAUG  =  535.4 eV  augmentation charge cutoff
   NELM   =     60;   NELMIN=  5; NELMDL= -5     # of ELM steps
   EDIFF  = 0.1E-06   stopping-criterion for ELM
   LREAL  =      F    real-space projection
   NLSPLINE    = F    spline interpolate recip. space projectors
   LCOMPAT=      F    compatible to vasp.4.4
   GGA_COMPAT  = T    GGA compatible to vasp.4.4-vasp.4.6
   LMAXPAW     = -100 max onsite density
   LMAXMIX     =    2 max onsite mixed and CHGCAR
   VOSKOWN=      0    Vosko Wilk Nusair interpolation
   ROPT   =    0.00000   0.00000   0.00000
 Ionic relaxation
   EDIFFG = 0.1E-05   stopping-criterion for IOM
   NSW    =      0    number of steps for IOM
   NBLOCK =      1;   KBLOCK =      1    inner block; outer block
   IBRION =     -1    ionic relax: 0-MD 1-quasi-New 2-CG
   NFREE  =      0    steps in history (QN), initial steepest desc. (CG)
   ISIF   =      3    stress and relaxation
   IWAVPR =     10    prediction:  0-non 1-charg 2-wave 3-comb
   ISYM   =      2    0-nonsym 1-usesym 2-fastsym
   LCORR  =      T    Harris-Foulkes like correction to forces

   POTIM  = 0.5000    time-step for ionic-motion
   TEIN   =    0.0    initial temperature
   TEBEG  =    0.0;   TEEND  =   0.0 temperature during run
   SMASS  =  -3.00    Nose mass-parameter (am)
   estimated Nose-frequenzy (Omega)   =  0.10E-29 period in steps = 0.13E+47 mass=  -0.571E-27a.u.
   SCALEE = 1.0000    scale energy and forces
   NPACO  =    256;   APACO  = 16.0  distance and # of slots for P.C.
   PSTRESS=    0.0 pullay stress

  Mass of Ions in am
   POMASS = 232.04208.98195.08
  Ionic Valenz
   ZVAL   =  12.00 15.00 10.00
  Atomic Wigner-Seitz radii
   RWIGS  =  -1.00 -1.00 -1.00
  virtual crystal weights
   VCA    =   1.00  1.00  1.00
   NELECT =      37.0000    total number of electrons
   NUPDOWN=      -1.0000    fix difference up-down

 DOS related values:
   EMIN   =  10.00;   EMAX   =-10.00  energy-range for DOS
   EFERMI =   0.00
   ISMEAR =     0;   SIGMA  =   0.01  broadening in eV -4-tet -1-fermi 0-gaus

 Electronic relaxation 2 (details)
   IALGO  =     38    algorithm
   LDIAG  =      T    sub-space diagonalisation (order eigenvalues)
   LSUBROT=      F    optimize rotation matrix (better conditioning)
   TURBO    =      0    0=normal 1=particle mesh
   IRESTART =      0    0=no restart 2=restart with 2 vectors
   NREBOOT  =      0    no. of reboots
   NMIN     =      0    reboot dimension
   EREF     =   0.00    reference energy to select bands
   IMIX   =      4    mixing-type and parameters
     AMIX     =   0.40;   BMIX     =  1.00
     AMIX_MAG =   1.60;   BMIX_MAG =  1.00
     AMIN     =   0.10
     WC   =   100.;   INIMIX=   1;  MIXPRE=   1;  MAXMIX= -45

 Intra band minimization:
   WEIMIN = 0.0000     energy-eigenvalue tresh-hold
   EBREAK =  0.10E-08  absolut break condition
   DEPER  =   0.30     relativ break condition

   TIME   =   0.40     timestep for ELM

  volume/ion in A,a.u.               =      29.46       198.80
  Fermi-wavevector in a.u.,A,eV,Ry     =   1.224687  2.314323 20.406814  1.499859
  Thomas-Fermi vector in A             =   2.359753

 Write flags
   LWAVE        =      F    write WAVECAR
   LDOWNSAMPLE  =      F    k-point downsampling of WAVECAR
   LCHARG       =      F    write CHGCAR
   LVTOT        =      F    write LOCPOT, total local potential
   LVHAR        =      F    write LOCPOT, Hartree potential only
   LELF         =      F    write electronic localiz. function (ELF)
   LORBIT       =      0    0 simple, 1 ext, 2 COOP (PROOUT), +10 PAW based schemes


 Dipole corrections
   LMONO  =      F    monopole corrections only (constant potential shift)
   LDIPOL =      F    correct potential (dipole corrections)
   IDIPOL =      0    1-x, 2-y, 3-z, 4-all directions
   EPSILON=  1.0000000 bulk dielectric constant

 Exchange correlation treatment:
   GGA     =    PS    GGA type
   LEXCH   =    14    internal setting for exchange type
   VOSKOWN=      0    Vosko Wilk Nusair interpolation
   LHFCALC =     F    Hartree Fock is set to
   LHFONE  =     F    Hartree Fock one center treatment
   AEXX    =    0.0000 exact exchange contribution

 Linear response parameters
   LEPSILON=     F    determine dielectric tensor
   LRPA    =     F    only Hartree local field effects (RPA)
   LNABLA  =     F    use nabla operator in PAW spheres
   LVEL    =     F    velocity operator in full k-point grid
   LINTERFAST=   F  fast interpolation
   KINTER  =     0    interpolate to denser k-point grid
   CSHIFT  =0.1000    complex shift for real part using Kramers Kronig
   OMEGAMAX=  -1.0    maximum frequency
   DEG_THRESHOLD= 0.2000000E-02 threshold for treating states as degnerate
   RTIME   =   -0.100 relaxation time in fs
  (WPLASMAI=    0.000 imaginary part of plasma frequency in eV, 0.658/RTIME)
   DFIELD  = 0.0000000 0.0000000 0.0000000 field for delta impulse in time

 Orbital magnetization related:
   ORBITALMAG=     F  switch on orbital magnetization
   LCHIMAG   =     F  perturbation theory with respect to B field
   DQ        =  0.001000  dq finite difference perturbation B field
   LLRAUG    =     F  two centre corrections for induced B field



--------------------------------------------------------------------------------------------------------


 Static calculation
 charge density and potential will be updated during run
 non-spin polarized calculation
 Variant of blocked Davidson
 Davidson routine will perform the subspace rotation
 perform sub-space diagonalisation
    after iterative eigenvector-optimisation
 modified Broyden-mixing scheme, WC =      100.0
 initial mixing is a Kerker type mixing with AMIX =  0.4000 and BMIX =      1.0000
 Hartree-type preconditioning will be used
 using additional bands            5
 reciprocal scheme for non local part
 use partial core corrections
 calculate Harris-corrections to forces
   (improved forces if not selfconsistent)
 use gradient corrections
 use of overlap-Matrix (Vanderbilt PP)
 Gauss-broadening in eV      SIGMA  =   0.01


--------------------------------------------------------------------------------------------------------


  energy-cutoff  :      700.00
  volume of cell :       88.38
      direct lattice vectors                 reciprocal lattice vectors
     0.000000000  3.535413844  3.535413844    -0.141426159  0.141426159  0.141426159
     3.535413844  0.000000000  3.535413844     0.141426159 -0.141426159  0.141426159
     3.535413844  3.535413844  0.000000000     0.141426159  0.141426159 -0.141426159

  length of vectors
     4.999830207  4.999830207  4.999830207     0.244957293  0.244957293  0.244957293



 k-points in units of 2pi/SCALE and weight: KPOINTS
   0.00000000  0.00000000  0.00000000       0.000
  -0.01123011  0.01123011  0.01123011       0.004
  -0.02246022  0.02246022  0.02246022       0.004
  -0.03369033  0.03369033  0.03369033       0.004
  -0.04492043  0.04492043  0.04492043       0.004
  -0.05615054  0.05615054  0.05615054       0.004
  -0.06738065  0.06738065  0.06738065       0.004
  -0.00000000 -0.00000000  0.02246022       0.003
  -0.01123011  0.01123011  0.03369033       0.011
  -0.02246022  0.02246022  0.04492043       0.011
  -0.03369033  0.03369033  0.05615054       0.011
  -0.04492043  0.04492043  0.06738065       0.011
  -0.05615054  0.05615054  0.07861076       0.011
   0.07861076 -0.07861076 -0.05615054       0.011
   0.06738065 -0.06738065 -0.04492043       0.011
   0.05615054 -0.05615054 -0.03369033       0.011
   0.04492043 -0.04492043 -0.02246022       0.011
   0.03369033 -0.03369033 -0.01123011       0.011
   0.02246022 -0.02246022  0.00000000       0.005
   0.00000000 -0.00000000  0.04492043       0.003
  -0.01123011  0.01123011  0.05615054       0.011
  -0.02246022  0.02246022  0.06738065       0.011
  -0.03369033  0.03369033  0.07861076       0.011
  -0.04492043  0.04492043  0.08984087       0.011
   0.08984087 -0.08984087 -0.04492043       0.011
   0.07861076 -0.07861076 -0.03369033       0.011
   0.06738065 -0.06738065 -0.02246022       0.011
   0.05615054 -0.05615054 -0.01123011       0.011
   0.04492043 -0.04492043 -0.00000000       0.005
   0.00000000 -0.00000000  0.06738065       0.003
  -0.01123011  0.01123011  0.07861076       0.011
  -0.02246022  0.02246022  0.08984087       0.011
  -0.03369033  0.03369033  0.10107098       0.011
   0.10107098 -0.10107098 -0.03369033       0.011
   0.08984087 -0.08984087 -0.02246022       0.011
   0.07861076 -0.07861076 -0.01123011       0.011
   0.06738065 -0.06738065 -0.00000000       0.005
   0.00000000 -0.00000000  0.08984087       0.003
  -0.01123011  0.01123011  0.10107098       0.011
  -0.02246022  0.02246022  0.11230109       0.011
   0.11230109 -0.11230109 -0.02246022       0.011
   0.10107098 -0.10107098 -0.01123011       0.011
   0.08984087 -0.08984087 -0.00000000       0.005
  -0.00000000  0.00000000  0.11230109       0.003
  -0.01123011  0.01123011  0.12353119       0.011
   0.12353119 -0.12353119 -0.01123011       0.011
   0.11230109 -0.11230109 -0.00000000       0.005
  -0.00000000  0.00000000  0.13476130       0.003
   0.13476130 -0.13476130  0.00000000       0.005
  -0.00000000  0.02246022  0.04492043       0.011
  -0.01123011  0.03369033  0.05615054       0.022
  -0.02246022  0.04492043  0.06738065       0.022
  -0.03369033  0.05615054  0.07861076       0.022
   0.10107098 -0.07861076 -0.05615054       0.022
   0.00000000  0.02246022  0.06738065       0.011
  -0.01123011  0.03369033  0.07861076       0.022
  -0.02246022  0.04492043  0.08984087       0.022
   0.11230109 -0.08984087 -0.04492043       0.022
   0.10107098 -0.07861076 -0.03369033       0.022
   0.08984087 -0.06738065 -0.02246022       0.022
   0.07861076 -0.05615054 -0.01123011       0.022
   0.06738065 -0.04492043 -0.00000000       0.011
  -0.00000000  0.02246022  0.08984087       0.011
  -0.01123011  0.03369033  0.10107098       0.022
   0.12353119 -0.10107098 -0.03369033       0.022
   0.11230109 -0.08984087 -0.02246022       0.022
   0.10107098 -0.07861076 -0.01123011       0.022
   0.08984087 -0.06738065 -0.00000000       0.011
   0.00000000  0.02246022  0.11230109       0.011
   0.13476130 -0.11230109 -0.02246022       0.022
   0.12353119 -0.10107098 -0.01123011       0.022
   0.11230109 -0.08984087 -0.00000000       0.011
   0.14599141 -0.12353119 -0.01123011       0.011
   0.13476130 -0.11230109 -0.00000000       0.011
  -0.00000000  0.04492043  0.08984087       0.011
   0.13476130 -0.08984087 -0.04492043       0.022
   0.12353119 -0.07861076 -0.03369033       0.022
   0.14599141 -0.10107098 -0.03369033       0.011
   0.13476130 -0.08984087 -0.02246022       0.022
   0.12353119 -0.07861076 -0.01123011       0.022
   0.11230109 -0.06738065 -0.00000000       0.011
   0.14599141 -0.10107098 -0.01123011       0.011
   0.13476130 -0.08984087 -0.00000000       0.011
   0.14599141 -0.07861076 -0.01123011       0.011

 k-points in reciprocal lattice and weights: KPOINTS
   0.00000000  0.00000000  0.00000000       0.000
   0.07692308 -0.00000000  0.00000000       0.004
   0.15384615  0.00000000 -0.00000000       0.004
   0.23076923  0.00000000 -0.00000000       0.004
   0.30769231  0.00000000 -0.00000000       0.004
   0.38461538  0.00000000 -0.00000000       0.004
   0.46153846  0.00000000 -0.00000000       0.004
   0.07692308  0.07692308 -0.00000000       0.003
   0.15384615  0.07692308 -0.00000000       0.011
   0.23076923  0.07692308 -0.00000000       0.011
   0.30769231  0.07692308 -0.00000000       0.011
   0.38461538  0.07692308 -0.00000000       0.011
   0.46153846  0.07692308 -0.00000000       0.011
  -0.46153846  0.07692308 -0.00000000       0.011
  -0.38461538  0.07692308  0.00000000       0.011
  -0.30769231  0.07692308  0.00000000       0.011
  -0.23076923  0.07692308 -0.00000000       0.011
  -0.15384615  0.07692308  0.00000000       0.011
  -0.07692308  0.07692308 -0.00000000       0.005
   0.15384615  0.15384615 -0.00000000       0.003
   0.23076923  0.15384615 -0.00000000       0.011
   0.30769231  0.15384615 -0.00000000       0.011
   0.38461538  0.15384615 -0.00000000       0.011
   0.46153846  0.15384615 -0.00000000       0.011
  -0.46153846  0.15384615  0.00000000       0.011
  -0.38461538  0.15384615  0.00000000       0.011
  -0.30769231  0.15384615  0.00000000       0.011
  -0.23076923  0.15384615  0.00000000       0.011
  -0.15384615  0.15384615  0.00000000       0.005
   0.23076923  0.23076923 -0.00000000       0.003
   0.30769231  0.23076923 -0.00000000       0.011
   0.38461538  0.23076923 -0.00000000       0.011
   0.46153846  0.23076923 -0.00000000       0.011
  -0.46153846  0.23076923 -0.00000000       0.011
  -0.38461538  0.23076923  0.00000000       0.011
  -0.30769231  0.23076923  0.00000000       0.011
  -0.23076923  0.23076923  0.00000000       0.005
   0.30769231  0.30769231 -0.00000000       0.003
   0.38461538  0.30769231 -0.00000000       0.011
   0.46153846  0.30769231 -0.00000000       0.011
  -0.46153846  0.30769231 -0.00000000       0.011
  -0.38461538  0.30769231 -0.00000000       0.011
  -0.30769231  0.30769231  0.00000000       0.005
   0.38461538  0.38461538 -0.00000000       0.003
   0.46153846  0.38461538 -0.00000000       0.011
  -0.46153846  0.38461538  0.00000000       0.011
  -0.38461538  0.38461538  0.00000000       0.005
   0.46153846  0.46153846 -0.00000000       0.003
  -0.46153846  0.46153846  0.00000000       0.005
   0.23076923  0.15384615  0.07692308       0.011
   0.30769231  0.15384615  0.07692308       0.022
   0.38461538  0.15384615  0.07692308       0.022
   0.46153846  0.15384615  0.07692308       0.022
  -0.46153846  0.15384615  0.07692308       0.022
   0.30769231  0.23076923  0.07692308       0.011
   0.38461538  0.23076923  0.07692308       0.022
   0.46153846  0.23076923  0.07692308       0.022
  -0.46153846  0.23076923  0.07692308       0.022
  -0.38461538  0.23076923  0.07692308       0.022
  -0.30769231  0.23076923  0.07692308       0.022
  -0.23076923  0.23076923  0.07692308       0.022
  -0.15384615  0.23076923  0.07692308       0.011
   0.38461538  0.30769231  0.07692308       0.011
   0.46153846  0.30769231  0.07692308       0.022
  -0.46153846  0.30769231  0.07692308       0.022
  -0.38461538  0.30769231  0.07692308       0.022
  -0.30769231  0.30769231  0.07692308       0.022
  -0.23076923  0.30769231  0.07692308       0.011
   0.46153846  0.38461538  0.07692308       0.011
  -0.46153846  0.38461538  0.07692308       0.022
  -0.38461538  0.38461538  0.07692308       0.022
  -0.30769231  0.38461538  0.07692308       0.011
  -0.46153846  0.46153846  0.07692308       0.011
  -0.38461538  0.46153846  0.07692308       0.011
   0.46153846  0.30769231  0.15384615       0.011
  -0.46153846  0.30769231  0.15384615       0.022
  -0.38461538  0.30769231  0.15384615       0.022
  -0.46153846  0.38461538  0.15384615       0.011
  -0.38461538  0.38461538  0.15384615       0.022
  -0.30769231  0.38461538  0.15384615       0.022
  -0.23076923  0.38461538  0.15384615       0.011
  -0.38461538  0.46153846  0.15384615       0.011
  -0.30769231  0.46153846  0.15384615       0.011
  -0.30769231  0.46153846  0.23076923       0.011

 position of ions in fractional coordinates (direct lattice)
   0.25000000  0.25000000  0.25000000
   0.75000000  0.75000000  0.75000000
   0.00000000  0.00000000  0.00000000

 position of ions in cartesian coordinates  (Angst):
   1.76770692  1.76770692  1.76770692
   5.30312077  5.30312077  5.30312077
   0.00000000  0.00000000  0.00000000



--------------------------------------------------------------------------------------------------------


 k-point  1 :   0.0000 0.0000 0.0000  plane waves:    3719
 k-point  2 :   0.0769-0.0000 0.0000  plane waves:    3728
 k-point  3 :   0.1538 0.0000-0.0000  plane waves:    3731
 k-point  4 :   0.2308 0.0000-0.0000  plane waves:    3711
 k-point  5 :   0.3077 0.0000-0.0000  plane waves:    3717
 k-point  6 :   0.3846 0.0000-0.0000  plane waves:    3720
 k-point  7 :   0.4615 0.0000-0.0000  plane waves:    3729
 k-point  8 :   0.0769 0.0769-0.0000  plane waves:    3727
 k-point  9 :   0.1538 0.0769-0.0000  plane waves:    3715
 k-point 10 :   0.2308 0.0769-0.0000  plane waves:    3709
 k-point 11 :   0.3077 0.0769-0.0000  plane waves:    3715
 k-point 12 :   0.3846 0.0769-0.0000  plane waves:    3719
 k-point 13 :   0.4615 0.0769-0.0000  plane waves:    3727
 k-point 14 :  -0.4615 0.0769-0.0000  plane waves:    3715
 k-point 15 :  -0.3846 0.0769 0.0000  plane waves:    3724
 k-point 16 :  -0.3077 0.0769 0.0000  plane waves:    3707
 k-point 17 :  -0.2308 0.0769-0.0000  plane waves:    3720
 k-point 18 :  -0.1538 0.0769 0.0000  plane waves:    3702
 k-point 19 :  -0.0769 0.0769-0.0000  plane waves:    3723
 k-point 20 :   0.1538 0.1538-0.0000  plane waves:    3711
 k-point 21 :   0.2308 0.1538-0.0000  plane waves:    3696
 k-point 22 :   0.3077 0.1538-0.0000  plane waves:    3718
 k-point 23 :   0.3846 0.1538-0.0000  plane waves:    3716
 k-point 24 :   0.4615 0.1538-0.0000  plane waves:    3733
 k-point 25 :  -0.4615 0.1538 0.0000  plane waves:    3709
 k-point 26 :  -0.3846 0.1538 0.0000  plane waves:    3718
 k-point 27 :  -0.3077 0.1538 0.0000  plane waves:    3717
 k-point 28 :  -0.2308 0.1538 0.0000  plane waves:    3724
 k-point 29 :  -0.1538 0.1538 0.0000  plane waves:    3711
 k-point 30 :   0.2308 0.2308-0.0000  plane waves:    3707
 k-point 31 :   0.3077 0.2308-0.0000  plane waves:    3701
 k-point 32 :   0.3846 0.2308-0.0000  plane waves:    3702
 k-point 33 :   0.4615 0.2308-0.0000  plane waves:    3720
 k-point 34 :  -0.4615 0.2308-0.0000  plane waves:    3716
 k-point 35 :  -0.3846 0.2308 0.0000  plane waves:    3714
 k-point 36 :  -0.3077 0.2308 0.0000  plane waves:    3719
 k-point 37 :  -0.2308 0.2308 0.0000  plane waves:    3719
 k-point 38 :   0.3077 0.3077-0.0000  plane waves:    3695
 k-point 39 :   0.3846 0.3077-0.0000  plane waves:    3720
 k-point 40 :   0.4615 0.3077-0.0000  plane waves:    3712
 k-point 41 :  -0.4615 0.3077-0.0000  plane waves:    3714
 k-point 42 :  -0.3846 0.3077-0.0000  plane waves:    3717
 k-point 43 :  -0.3077 0.3077 0.0000  plane waves:    3719
 k-point 44 :   0.3846 0.3846-0.0000  plane waves:    3720
 k-point 45 :   0.4615 0.3846-0.0000  plane waves:    3714
 k-point 46 :  -0.4615 0.3846 0.0000  plane waves:    3721
 k-point 47 :  -0.3846 0.3846 0.0000  plane waves:    3733
 k-point 48 :   0.4615 0.4615-0.0000  plane waves:    3716
 k-point 49 :  -0.4615 0.4615 0.0000  plane waves:    3734
 k-point 50 :   0.2308 0.1538 0.0769  plane waves:    3699
 k-point 51 :   0.3077 0.1538 0.0769  plane waves:    3711
 k-point 52 :   0.3846 0.1538 0.0769  plane waves:    3714
 k-point 53 :   0.4615 0.1538 0.0769  plane waves:    3731
 k-point 54 :  -0.4615 0.1538 0.0769  plane waves:    3717
 k-point 55 :   0.3077 0.2308 0.0769  plane waves:    3695
 k-point 56 :   0.3846 0.2308 0.0769  plane waves:    3702
 k-point 57 :   0.4615 0.2308 0.0769  plane waves:    3713
 k-point 58 :  -0.4615 0.2308 0.0769  plane waves:    3709
 k-point 59 :  -0.3846 0.2308 0.0769  plane waves:    3708
 k-point 60 :  -0.3077 0.2308 0.0769  plane waves:    3714
 k-point 61 :  -0.2308 0.2308 0.0769  plane waves:    3721
 k-point 62 :  -0.1538 0.2308 0.0769  plane waves:    3715
 k-point 63 :   0.3846 0.3077 0.0769  plane waves:    3707
 k-point 64 :   0.4615 0.3077 0.0769  plane waves:    3715
 k-point 65 :  -0.4615 0.3077 0.0769  plane waves:    3718
 k-point 66 :  -0.3846 0.3077 0.0769  plane waves:    3723
 k-point 67 :  -0.3077 0.3077 0.0769  plane waves:    3711
 k-point 68 :  -0.2308 0.3077 0.0769  plane waves:    3718
 k-point 69 :   0.4615 0.3846 0.0769  plane waves:    3717
 k-point 70 :  -0.4615 0.3846 0.0769  plane waves:    3712
 k-point 71 :  -0.3846 0.3846 0.0769  plane waves:    3724
 k-point 72 :  -0.3077 0.3846 0.0769  plane waves:    3726
 k-point 73 :  -0.4615 0.4615 0.0769  plane waves:    3726
 k-point 74 :  -0.3846 0.4615 0.0769  plane waves:    3723
 k-point 75 :   0.4615 0.3077 0.1538  plane waves:    3727
 k-point 76 :  -0.4615 0.3077 0.1538  plane waves:    3720
 k-point 77 :  -0.3846 0.3077 0.1538  plane waves:    3714
 k-point 78 :  -0.4615 0.3846 0.1538  plane waves:    3728
 k-point 79 :  -0.3846 0.3846 0.1538  plane waves:    3720
 k-point 80 :  -0.3077 0.3846 0.1538  plane waves:    3734
 k-point 81 :  -0.2308 0.3846 0.1538  plane waves:    3721
 k-point 82 :  -0.3846 0.4615 0.1538  plane waves:    3723
 k-point 83 :  -0.3077 0.4615 0.1538  plane waves:    3728
 k-point 84 :  -0.3077 0.4615 0.2308  plane waves:    3710

 maximum and minimum number of plane-waves per node :       947      905

 maximum number of plane-waves:      3734
 maximum index in each direction:
   IXMAX=   11   IYMAX=   10   IZMAX=   10
   IXMIN=  -11   IYMIN=  -11   IZMIN=  -11


 parallel 3D FFT for wavefunctions:
    minimum data exchange during FFTs selected (reduces bandwidth)
 parallel 3D FFT for charge:
    minimum data exchange during FFTs selected (reduces bandwidth)


 total amount of memory used by VASP MPI-rank0   112524. kBytes
=======================================================================

   base      :      30000. kBytes
   nonl-proj :      60944. kBytes
   fftplans  :       8952. kBytes
   grid      :       4709. kBytes
   one-center:         49. kBytes
   wavefun   :       7870. kBytes

     INWAV:  cpu time    0.0003: real time    0.0006
 Broyden mixing: mesh for mixing (old mesh)
   NGX = 21   NGY = 21   NGZ = 21
  (NGX  = 96   NGY  = 96   NGZ  = 96)
  gives a total of   9261 points

 initial charge density was supplied:
 charge density of overlapping atoms calculated
 number of electron      37.0000000 magnetization
 keeping initial charge density in first step


--------------------------------------------------------------------------------------------------------


 Maximum index for augmentation-charges        37149 (set IRDMAX)


--------------------------------------------------------------------------------------------------------


 First call to EWALD:  gamma=   0.398
 Maximum number of real-space cells 3x 3x 3
 Maximum number of reciprocal cells 3x 3x 3

    FEWALD:  cpu time    0.0059: real time    0.0067


--------------------------------------- Iteration      1(   1)  ---------------------------------------


    POTLOK:  cpu time    0.0572: real time    0.1161
    SETDIJ:  cpu time    0.1381: real time    0.1384
     EDDAV:  cpu time    1.7327: real time    1.7447
       DOS:  cpu time    0.0043: real time    0.0046
    --------------------------------------------
      LOOP:  cpu time    1.9327: real time    2.0046

 eigenvalue-minimisations  :  4032
 total energy-change (2. order) : 0.4365538E+03  (-0.2036122E+04)
 number of electron      37.0000000 magnetization
 augmentation part       37.0000000 magnetization

 Free energy of the ion-electron system (eV)
  ---------------------------------------------------
  alpha Z        PSCENC =       194.40699983
  Ewald energy   TEWEN  =     -3029.96503416
  -Hartree energ DENC   =      -799.72341666
  -exchange      EXHF   =         0.00000000
  -V(xc)+E(xc)   XCENC  =        67.32796092
  PAW double counting   =      3147.30828992    -3070.62761383
  entropy T*S    EENTRO =        -0.00011554
  eigenvalues    EBANDS =       253.15328344
  atomic energy  EATOM  =      3674.67342263
  Solvation  Ediel_sol  =         0.00000000
  ---------------------------------------------------
  free energy    TOTEN  =       436.55377654 eV

  energy without entropy =      436.55389208  energy(sigma->0) =      436.55383431


--------------------------------------------------------------------------------------------------------




--------------------------------------- Iteration      1(   2)  ---------------------------------------


     EDDAV:  cpu time    1.7442: real time    1.7649
       DOS:  cpu time    0.0031: real time    0.0038
    --------------------------------------------
      LOOP:  cpu time    1.7472: real time    1.7718

 eigenvalue-minimisations  :  4256
 total energy-change (2. order) :-0.3933080E+03  (-0.3862293E+03)
 number of electron      37.0000000 magnetization
 augmentation part       37.0000000 magnetization

 Free energy of the ion-electron system (eV)
  ---------------------------------------------------
  alpha Z        PSCENC =       194.40699983
  Ewald energy   TEWEN  =     -3029.96503416
  -Hartree energ DENC   =      -799.72341666
  -exchange      EXHF   =         0.00000000
  -V(xc)+E(xc)   XCENC  =        67.32796092
  PAW double counting   =      3147.30828992    -3070.62761383
  entropy T*S    EENTRO =        -0.00047924
  eigenvalues    EBANDS =      -140.15433907
  atomic energy  EATOM  =      3674.67342263
  Solvation  Ediel_sol  =         0.00000000
  ---------------------------------------------------
  free energy    TOTEN  =        43.24579033 eV

  energy without entropy =       43.24626957  energy(sigma->0) =       43.24602995


--------------------------------------------------------------------------------------------------------




--------------------------------------- Iteration      1(   3)  ---------------------------------------


     EDDAV:  cpu time    2.1306: real time    2.1599
       DOS:  cpu time    0.0029: real time    0.0031
    --------------------------------------------
      LOOP:  cpu time    2.1335: real time    2.1626

 eigenvalue-minimisations  :  5584
 total energy-change (2. order) :-0.6189337E+02  (-0.6120621E+02)
 number of electron      37.0000000 magnetization
 augmentation part       37.0000000 magnetization

 Free energy of the ion-electron system (eV)
  ---------------------------------------------------
  alpha Z        PSCENC =       194.40699983
  Ewald energy   TEWEN  =     -3029.96503416
  -Hartree energ DENC   =      -799.72341666
  -exchange      EXHF   =         0.00000000
  -V(xc)+E(xc)   XCENC  =        67.32796092
  PAW double counting   =      3147.30828992    -3070.62761383
  entropy T*S    EENTRO =        -0.00016901
  eigenvalues    EBANDS =      -202.04801592
  atomic energy  EATOM  =      3674.67342263
  Solvation  Ediel_sol  =         0.00000000
  ---------------------------------------------------
  free energy    TOTEN  =       -18.64757627 eV

  energy without entropy =      -18.64740727  energy(sigma->0) =      -18.64749177


--------------------------------------------------------------------------------------------------------




--------------------------------------- Iteration      1(   4)  ---------------------------------------


     EDDAV:  cpu time    2.6837: real time    2.7088
       DOS:  cpu time    0.0029: real time    0.0033
    --------------------------------------------
      LOOP:  cpu time    2.6867: real time    2.7120

 eigenvalue-minimisations  :  7288
 total energy-change (2. order) :-0.4067727E+01  (-0.4055205E+01)
 number of electron      37.0000000 magnetization
 augmentation part       37.0000000 magnetization

 Free energy of the ion-electron system (eV)
  ---------------------------------------------------
  alpha Z        PSCENC =       194.40699983
  Ewald energy   TEWEN  =     -3029.96503416
  -Hartree energ DENC   =      -799.72341666
  -exchange      EXHF   =         0.00000000
  -V(xc)+E(xc)   XCENC  =        67.32796092
  PAW double counting   =      3147.30828992    -3070.62761383
  entropy T*S    EENTRO =        -0.00030229
  eigenvalues    EBANDS =      -206.11560926
  atomic energy  EATOM  =      3674.67342263
  Solvation  Ediel_sol  =         0.00000000
  ---------------------------------------------------
  free energy    TOTEN  =       -22.71530290 eV

  energy without entropy =      -22.71500061  energy(sigma->0) =      -22.71515176


--------------------------------------------------------------------------------------------------------




--------------------------------------- Iteration      1(   5)  ---------------------------------------


     EDDAV:  cpu time    2.2208: real time    2.2403
       DOS:  cpu time    0.0030: real time    0.0032
    CHARGE:  cpu time    0.4644: real time    0.4653
    MIXING:  cpu time    0.0101: real time    0.0103
    --------------------------------------------
      LOOP:  cpu time    2.6983: real time    2.7195

 eigenvalue-minimisations  :  5640
 total energy-change (2. order) :-0.1211258E+00  (-0.1210975E+00)
 number of electron      37.0000000 magnetization
 augmentation part        6.0191909 magnetization

 Broyden mixing:
  rms(total) = 0.28179E+01    rms(broyden)= 0.28179E+01
  rms(prec ) = 0.31838E+01
  weight for this iteration     100.00

 Free energy of the ion-electron system (eV)
  ---------------------------------------------------
  alpha Z        PSCENC =       194.40699983
  Ewald energy   TEWEN  =     -3029.96503416
  -Hartree energ DENC   =      -799.72341666
  -exchange      EXHF   =         0.00000000
  -V(xc)+E(xc)   XCENC  =        67.32796092
  PAW double counting   =      3147.30828992    -3070.62761383
  entropy T*S    EENTRO =        -0.00028310
  eigenvalues    EBANDS =      -206.23675428
  atomic energy  EATOM  =      3674.67342263
  Solvation  Ediel_sol  =         0.00000000
  ---------------------------------------------------
  free energy    TOTEN  =       -22.83642873 eV

  energy without entropy =      -22.83614563  energy(sigma->0) =      -22.83628718


--------------------------------------------------------------------------------------------------------




--------------------------------------- Iteration      1(   6)  ---------------------------------------


    POTLOK:  cpu time    0.0482: real time    0.0755
    SETDIJ:  cpu time    0.1247: real time    0.1248
     EDDAV:  cpu time    2.0028: real time    2.0034
       DOS:  cpu time    0.0031: real time    0.0033
    CHARGE:  cpu time    0.4154: real time    0.4156
    MIXING:  cpu time    0.0066: real time    0.0071
    --------------------------------------------
      LOOP:  cpu time    2.6007: real time    2.6302

 eigenvalue-minimisations  :  5128
 total energy-change (2. order) : 0.1027432E+01  (-0.2052028E+00)
 number of electron      37.0000000 magnetization
 augmentation part        6.0614401 magnetization

 Broyden mixing:
  rms(total) = 0.17930E+01    rms(broyden)= 0.17930E+01
  rms(prec ) = 0.19180E+01
  weight for this iteration     100.00

 eigenvalues of (default mixing * dielectric matrix)
  average eigenvalue GAMMA=   2.6567
  2.6567

 Free energy of the ion-electron system (eV)
  ---------------------------------------------------
  alpha Z        PSCENC =       194.40699983
  Ewald energy   TEWEN  =     -3029.96503416
  -Hartree energ DENC   =      -784.70739788
  -exchange      EXHF   =         0.00000000
  -V(xc)+E(xc)   XCENC  =        66.86611372
  PAW double counting   =      3367.39271872    -3294.78141216
  entropy T*S    EENTRO =        -0.00022909
  eigenvalues    EBANDS =      -215.69417837
  atomic energy  EATOM  =      3674.67342263
  Solvation  Ediel_sol  =         0.00000000
  ---------------------------------------------------
  free energy    TOTEN  =       -21.80899674 eV

  energy without entropy =      -21.80876766  energy(sigma->0) =      -21.80888220


--------------------------------------------------------------------------------------------------------




--------------------------------------- Iteration      1(   7)  ---------------------------------------


    POTLOK:  cpu time    0.0522: real time    0.0743
    SETDIJ:  cpu time    0.1222: real time    0.1224
     EDDAV:  cpu time    2.2527: real time    2.2530
       DOS:  cpu time    0.0032: real time    0.0034
    CHARGE:  cpu time    0.3888: real time    0.3889
    MIXING:  cpu time    0.0051: real time    0.0052
    --------------------------------------------
      LOOP:  cpu time    2.8242: real time    2.8464

 eigenvalue-minimisations  :  6072
 total energy-change (2. order) : 0.1045854E+00  (-0.2745251E+00)
 number of electron      37.0000000 magnetization
 augmentation part        6.0295910 magnetization

 Broyden mixing:
  rms(total) = 0.63741E+00    rms(broyden)= 0.63741E+00
  rms(prec ) = 0.77369E+00
  weight for this iteration     100.00

 eigenvalues of (default mixing * dielectric matrix)
  average eigenvalue GAMMA=   2.1602
  1.0325  3.2879

 Free energy of the ion-electron system (eV)
  ---------------------------------------------------
  alpha Z        PSCENC =       194.40699983
  Ewald energy   TEWEN  =     -3029.96503416
  -Hartree energ DENC   =      -770.56110435
  -exchange      EXHF   =         0.00000000
  -V(xc)+E(xc)   XCENC  =        66.60441655
  PAW double counting   =      3653.10201313    -3584.76969505
  entropy T*S    EENTRO =        -0.00024857
  eigenvalues    EBANDS =      -225.19518135
  atomic energy  EATOM  =      3674.67342263
  Solvation  Ediel_sol  =         0.00000000
  ---------------------------------------------------
  free energy    TOTEN  =       -21.70441134 eV

  energy without entropy =      -21.70416277  energy(sigma->0) =      -21.70428706


--------------------------------------------------------------------------------------------------------




--------------------------------------- Iteration      1(   8)  ---------------------------------------


    POTLOK:  cpu time    0.0478: real time    0.0680
    SETDIJ:  cpu time    0.1238: real time    0.1240
     EDDAV:  cpu time    2.0095: real time    2.0100
       DOS:  cpu time    0.0031: real time    0.0033
    CHARGE:  cpu time    0.3875: real time    0.3878
    MIXING:  cpu time    0.0051: real time    0.0052
    --------------------------------------------
      LOOP:  cpu time    2.5768: real time    2.5989

 eigenvalue-minimisations  :  5088
 total energy-change (2. order) : 0.6240332E-01  (-0.4203009E-01)
 number of electron      37.0000000 magnetization
 augmentation part        5.9735333 magnetization

 Broyden mixing:
  rms(total) = 0.45894E+00    rms(broyden)= 0.45894E+00
  rms(prec ) = 0.49731E+00
  weight for this iteration     100.00

 eigenvalues of (default mixing * dielectric matrix)
  average eigenvalue GAMMA=   1.8325
  3.3133  1.0921  1.0921

 Free energy of the ion-electron system (eV)
  ---------------------------------------------------
  alpha Z        PSCENC =       194.40699983
  Ewald energy   TEWEN  =     -3029.96503416
  -Hartree energ DENC   =      -771.53502678
  -exchange      EXHF   =         0.00000000
  -V(xc)+E(xc)   XCENC  =        66.63084831
  PAW double counting   =      3668.46139102    -3600.03690537
  entropy T*S    EENTRO =        -0.00054935
  eigenvalues    EBANDS =      -224.27715416
  atomic energy  EATOM  =      3674.67342263
  Solvation  Ediel_sol  =         0.00000000
  ---------------------------------------------------
  free energy    TOTEN  =       -21.64200802 eV

  energy without entropy =      -21.64145866  energy(sigma->0) =      -21.64173334


--------------------------------------------------------------------------------------------------------




--------------------------------------- Iteration      1(   9)  ---------------------------------------


    POTLOK:  cpu time    0.0517: real time    0.0717
    SETDIJ:  cpu time    0.1170: real time    0.1175
     EDDAV:  cpu time    2.2916: real time    2.2919
       DOS:  cpu time    0.0031: real time    0.0039
    CHARGE:  cpu time    0.3834: real time    0.3836
    MIXING:  cpu time    0.0076: real time    0.0079
    --------------------------------------------
      LOOP:  cpu time    2.8543: real time    2.8757

 eigenvalue-minimisations  :  6144
 total energy-change (2. order) : 0.8983827E-02  (-0.1604037E-01)
 number of electron      37.0000000 magnetization
 augmentation part        5.9517484 magnetization

 Broyden mixing:
  rms(total) = 0.18948E+00    rms(broyden)= 0.18948E+00
  rms(prec ) = 0.20738E+00
  weight for this iteration     100.00

 eigenvalues of (default mixing * dielectric matrix)
  average eigenvalue GAMMA=   1.4312
  2.5771  1.2685  1.2685  0.6109

 Free energy of the ion-electron system (eV)
  ---------------------------------------------------
  alpha Z        PSCENC =       194.40699983
  Ewald energy   TEWEN  =     -3029.96503416
  -Hartree energ DENC   =      -773.92509098
  -exchange      EXHF   =         0.00000000
  -V(xc)+E(xc)   XCENC  =        66.66884879
  PAW double counting   =      3732.56031143    -3664.00947873
  entropy T*S    EENTRO =        -0.00039963
  eigenvalues    EBANDS =      -222.04260336
  atomic energy  EATOM  =      3674.67342263
  Solvation  Ediel_sol  =         0.00000000
  ---------------------------------------------------
  free energy    TOTEN  =       -21.63302419 eV

  energy without entropy =      -21.63262456  energy(sigma->0) =      -21.63282438


--------------------------------------------------------------------------------------------------------




--------------------------------------- Iteration      1(  10)  ---------------------------------------


    POTLOK:  cpu time    0.0462: real time    0.0706
    SETDIJ:  cpu time    0.1218: real time    0.1219
     EDDAV:  cpu time    1.9181: real time    1.9183
       DOS:  cpu time    0.0031: real time    0.0034
    CHARGE:  cpu time    0.3851: real time    0.3853
    MIXING:  cpu time    0.0080: real time    0.0081
    --------------------------------------------
      LOOP:  cpu time    2.4822: real time    2.5090

 eigenvalue-minimisations  :  4888
 total energy-change (2. order) : 0.3142111E-02  (-0.2593082E-02)
 number of electron      37.0000000 magnetization
 augmentation part        5.9630241 magnetization

 Broyden mixing:
  rms(total) = 0.66946E-01    rms(broyden)= 0.66946E-01
  rms(prec ) = 0.84527E-01
  weight for this iteration     100.00

 eigenvalues of (default mixing * dielectric matrix)
  average eigenvalue GAMMA=   1.4960
  2.6112  2.0460  1.1890  1.0040  0.6297

 Free energy of the ion-electron system (eV)
  ---------------------------------------------------
  alpha Z        PSCENC =       194.40699983
  Ewald energy   TEWEN  =     -3029.96503416
  -Hartree energ DENC   =      -773.81588289
  -exchange      EXHF   =         0.00000000
  -V(xc)+E(xc)   XCENC  =        66.64769250
  PAW double counting   =      3703.18864423    -3634.44353107
  entropy T*S    EENTRO =        -0.00047920
  eigenvalues    EBANDS =      -222.32171394
  atomic energy  EATOM  =      3674.67342263
  Solvation  Ediel_sol  =         0.00000000
  ---------------------------------------------------
  free energy    TOTEN  =       -21.62988208 eV

  energy without entropy =      -21.62940287  energy(sigma->0) =      -21.62964248


--------------------------------------------------------------------------------------------------------




--------------------------------------- Iteration      1(  11)  ---------------------------------------


    POTLOK:  cpu time    0.0451: real time    0.0710
    SETDIJ:  cpu time    0.1232: real time    0.1233
     EDDAV:  cpu time    2.2181: real time    2.2185
       DOS:  cpu time    0.0030: real time    0.0033
    CHARGE:  cpu time    0.3888: real time    0.3890
    MIXING:  cpu time    0.0058: real time    0.0059
    --------------------------------------------
      LOOP:  cpu time    2.7839: real time    2.8096

 eigenvalue-minimisations  :  5944
 total energy-change (2. order) : 0.7819177E-03  (-0.6132844E-03)
 number of electron      37.0000000 magnetization
 augmentation part        5.9683650 magnetization

 Broyden mixing:
  rms(total) = 0.75342E-02    rms(broyden)= 0.75341E-02
  rms(prec ) = 0.18937E-01
  weight for this iteration     100.00

 eigenvalues of (default mixing * dielectric matrix)
  average eigenvalue GAMMA=   1.3504
  2.4609  2.0268  1.0377  1.0377  0.8781  0.6613

 Free energy of the ion-electron system (eV)
  ---------------------------------------------------
  alpha Z        PSCENC =       194.40699983
  Ewald energy   TEWEN  =     -3029.96503416
  -Hartree energ DENC   =      -774.20020760
  -exchange      EXHF   =         0.00000000
  -V(xc)+E(xc)   XCENC  =        66.64257256
  PAW double counting   =      3709.34491425    -3640.48566272
  entropy T*S    EENTRO =        -0.00039395
  eigenvalues    EBANDS =      -222.04571099
  atomic energy  EATOM  =      3674.67342263
  Solvation  Ediel_sol  =         0.00000000
  ---------------------------------------------------
  free energy    TOTEN  =       -21.62910016 eV

  energy without entropy =      -21.62870621  energy(sigma->0) =      -21.62890318


--------------------------------------------------------------------------------------------------------




--------------------------------------- Iteration      1(  12)  ---------------------------------------


    POTLOK:  cpu time    0.0621: real time    0.0861
    SETDIJ:  cpu time    0.1212: real time    0.1213
     EDDAV:  cpu time    2.5193: real time    2.5200
       DOS:  cpu time    0.0031: real time    0.0036
    CHARGE:  cpu time    0.3886: real time    0.3888
    MIXING:  cpu time    0.0057: real time    0.0060
    --------------------------------------------
      LOOP:  cpu time    3.1001: real time    3.1256

 eigenvalue-minimisations  :  6752
 total energy-change (2. order) : 0.1306148E-03  (-0.1491719E-03)
 number of electron      37.0000000 magnetization
 augmentation part        5.9689789 magnetization

 Broyden mixing:
  rms(total) = 0.63500E-02    rms(broyden)= 0.63500E-02
  rms(prec ) = 0.70017E-02
  weight for this iteration     100.00

 eigenvalues of (default mixing * dielectric matrix)
  average eigenvalue GAMMA=   1.3915
  2.3119  2.3119  1.2559  1.2559  0.6360  0.9844  0.9844

 Free energy of the ion-electron system (eV)
  ---------------------------------------------------
  alpha Z        PSCENC =       194.40699983
  Ewald energy   TEWEN  =     -3029.96503416
  -Hartree energ DENC   =      -774.28839718
  -exchange      EXHF   =         0.00000000
  -V(xc)+E(xc)   XCENC  =        66.64678781
  PAW double counting   =      3706.89075023    -3637.99086118
  entropy T*S    EENTRO =        -0.00038710
  eigenvalues    EBANDS =      -222.00225043
  atomic energy  EATOM  =      3674.67342263
  Solvation  Ediel_sol  =         0.00000000
  ---------------------------------------------------
  free energy    TOTEN  =       -21.62896955 eV

  energy without entropy =      -21.62858244  energy(sigma->0) =      -21.62877599


--------------------------------------------------------------------------------------------------------




--------------------------------------- Iteration      1(  13)  ---------------------------------------


    POTLOK:  cpu time    0.0464: real time    0.0832
    SETDIJ:  cpu time    0.1220: real time    0.1221
     EDDAV:  cpu time    2.0869: real time    2.0872
       DOS:  cpu time    0.0031: real time    0.0042
    CHARGE:  cpu time    0.3882: real time    0.3885
    MIXING:  cpu time    0.0059: real time    0.0062
    --------------------------------------------
      LOOP:  cpu time    2.6525: real time    2.6920

 eigenvalue-minimisations  :  5480
 total energy-change (2. order) :-0.6177782E-05  (-0.7054747E-05)
 number of electron      37.0000000 magnetization
 augmentation part        5.9694038 magnetization

 Broyden mixing:
  rms(total) = 0.32524E-02    rms(broyden)= 0.32524E-02
  rms(prec ) = 0.46598E-02
  weight for this iteration     100.00

 eigenvalues of (default mixing * dielectric matrix)
  average eigenvalue GAMMA=   1.4499
  2.5343  2.0388  2.0388  1.3656  0.6421  0.9833  0.9833  1.0131

 Free energy of the ion-electron system (eV)
  ---------------------------------------------------
  alpha Z        PSCENC =       194.40699983
  Ewald energy   TEWEN  =     -3029.96503416
  -Hartree energ DENC   =      -774.27307685
  -exchange      EXHF   =         0.00000000
  -V(xc)+E(xc)   XCENC  =        66.64598250
  PAW double counting   =      3706.59653135    -3637.68797833
  entropy T*S    EENTRO =        -0.00038734
  eigenvalues    EBANDS =      -222.02543536
  atomic energy  EATOM  =      3674.67342263
  Solvation  Ediel_sol  =         0.00000000
  ---------------------------------------------------
  free energy    TOTEN  =       -21.62897572 eV

  energy without entropy =      -21.62858839  energy(sigma->0) =      -21.62878206


--------------------------------------------------------------------------------------------------------




--------------------------------------- Iteration      1(  14)  ---------------------------------------


    POTLOK:  cpu time    0.0549: real time    0.0824
    SETDIJ:  cpu time    0.1165: real time    0.1166
     EDDAV:  cpu time    2.3568: real time    2.3572
       DOS:  cpu time    0.0030: real time    0.0032
    CHARGE:  cpu time    0.3876: real time    0.3879
    MIXING:  cpu time    0.0060: real time    0.0061
    --------------------------------------------
      LOOP:  cpu time    2.9250: real time    2.9539

 eigenvalue-minimisations  :  6272
 total energy-change (2. order) : 0.3405332E-05  (-0.1734473E-05)
 number of electron      37.0000000 magnetization
 augmentation part        5.9690118 magnetization

 Broyden mixing:
  rms(total) = 0.29988E-03    rms(broyden)= 0.29984E-03
  rms(prec ) = 0.60086E-03
  weight for this iteration     100.00

 eigenvalues of (default mixing * dielectric matrix)
  average eigenvalue GAMMA=   1.4000
  2.5157  2.2215  1.8984  0.6420  1.2543  1.0357  1.0357  0.9984  0.9984

 Free energy of the ion-electron system (eV)
  ---------------------------------------------------
  alpha Z        PSCENC =       194.40699983
  Ewald energy   TEWEN  =     -3029.96503416
  -Hartree energ DENC   =      -774.26449672
  -exchange      EXHF   =         0.00000000
  -V(xc)+E(xc)   XCENC  =        66.64675761
  PAW double counting   =      3706.18374723    -3637.28273659
  entropy T*S    EENTRO =        -0.00039178
  eigenvalues    EBANDS =      -222.02724038
  atomic energy  EATOM  =      3674.67342263
  Solvation  Ediel_sol  =         0.00000000
  ---------------------------------------------------
  free energy    TOTEN  =       -21.62897232 eV

  energy without entropy =      -21.62858054  energy(sigma->0) =      -21.62877643


--------------------------------------------------------------------------------------------------------




--------------------------------------- Iteration      1(  15)  ---------------------------------------


    POTLOK:  cpu time    0.0566: real time    0.0839
    SETDIJ:  cpu time    0.1181: real time    0.1193
     EDDAV:  cpu time    2.3996: real time    2.3999
       DOS:  cpu time    0.0031: real time    0.0034
    CHARGE:  cpu time    0.3826: real time    0.3829
    MIXING:  cpu time    0.0092: real time    0.0093
    --------------------------------------------
      LOOP:  cpu time    2.9690: real time    2.9988

 eigenvalue-minimisations  :  6496
 total energy-change (2. order) :-0.1306080E-07  (-0.2141014E-06)
 number of electron      37.0000000 magnetization
 augmentation part        5.9688372 magnetization

 Broyden mixing:
  rms(total) = 0.11616E-02    rms(broyden)= 0.11616E-02
  rms(prec ) = 0.12121E-02
  weight for this iteration     100.00

 eigenvalues of (default mixing * dielectric matrix)
  average eigenvalue GAMMA=   1.3857
  2.5830  2.2559  1.4844  1.4844  1.2859  1.2859  0.9910  0.9910  0.6419  0.8539

 Free energy of the ion-electron system (eV)
  ---------------------------------------------------
  alpha Z        PSCENC =       194.40699983
  Ewald energy   TEWEN  =     -3029.96503416
  -Hartree energ DENC   =      -774.25994832
  -exchange      EXHF   =         0.00000000
  -V(xc)+E(xc)   XCENC  =        66.64662226
  PAW double counting   =      3706.10687243    -3637.20484818
  entropy T*S    EENTRO =        -0.00039294
  eigenvalues    EBANDS =      -222.03266589
  atomic energy  EATOM  =      3674.67342263
  Solvation  Ediel_sol  =         0.00000000
  ---------------------------------------------------
  free energy    TOTEN  =       -21.62897233 eV

  energy without entropy =      -21.62857939  energy(sigma->0) =      -21.62877586


--------------------------------------------------------------------------------------------------------




--------------------------------------- Iteration      1(  16)  ---------------------------------------


    POTLOK:  cpu time    0.0548: real time    0.0771
    SETDIJ:  cpu time    0.1227: real time    0.1229
     EDDAV:  cpu time    2.0003: real time    2.0006
       DOS:  cpu time    0.0033: real time    0.0036
    CHARGE:  cpu time    0.3876: real time    0.3877
    MIXING:  cpu time    0.0067: real time    0.0228
    --------------------------------------------
      LOOP:  cpu time    2.5756: real time    2.6156

 eigenvalue-minimisations  :  5088
 total energy-change (2. order) :-0.1309181E-06  (-0.4573981E-07)
 number of electron      37.0000000 magnetization
 augmentation part        5.9688540 magnetization

 Broyden mixing:
  rms(total) = 0.42003E-03    rms(broyden)= 0.42000E-03
  rms(prec ) = 0.44449E-03
  weight for this iteration     100.00

 eigenvalues of (default mixing * dielectric matrix)
  average eigenvalue GAMMA=   1.4586
  2.6265  2.6265  1.8900  1.8900  1.3774  0.6416  1.0255  1.0255  0.9951  0.9734
  0.9734

 Free energy of the ion-electron system (eV)
  ---------------------------------------------------
  alpha Z        PSCENC =       194.40699983
  Ewald energy   TEWEN  =     -3029.96503416
  -Hartree energ DENC   =      -774.25969654
  -exchange      EXHF   =         0.00000000
  -V(xc)+E(xc)   XCENC  =        66.64634156
  PAW double counting   =      3706.29878600    -3637.39436561
  entropy T*S    EENTRO =        -0.00039235
  eigenvalues    EBANDS =      -222.03503382
  atomic energy  EATOM  =      3674.67342263
  Solvation  Ediel_sol  =         0.00000000
  ---------------------------------------------------
  free energy    TOTEN  =       -21.62897246 eV

  energy without entropy =      -21.62858011  energy(sigma->0) =      -21.62877628


--------------------------------------------------------------------------------------------------------




--------------------------------------- Iteration      1(  17)  ---------------------------------------


    POTLOK:  cpu time    0.0615: real time    0.0873
    SETDIJ:  cpu time    0.1231: real time    0.1234
     EDDAV:  cpu time    1.6656: real time    1.6658
       DOS:  cpu time    0.0031: real time    0.0033
    --------------------------------------------
      LOOP:  cpu time    1.8531: real time    1.8752

 eigenvalue-minimisations  :  3936
 total energy-change (2. order) : 0.2839533E-07  (-0.6709443E-08)
 number of electron      37.0000000 magnetization
 augmentation part        5.9688540 magnetization

 Free energy of the ion-electron system (eV)
  ---------------------------------------------------
  alpha Z        PSCENC =       194.40699983
  Ewald energy   TEWEN  =     -3029.96503416
  -Hartree energ DENC   =      -774.25983137
  -exchange      EXHF   =         0.00000000
  -V(xc)+E(xc)   XCENC  =        66.64630115
  PAW double counting   =      3706.24509818    -3637.34011653
  entropy T*S    EENTRO =        -0.00039259
  eigenvalues    EBANDS =      -222.03541958
  atomic energy  EATOM  =      3674.67342263
  Solvation  Ediel_sol  =         0.00000000
  ---------------------------------------------------
  free energy    TOTEN  =       -21.62897243 eV

  energy without entropy =      -21.62857984  energy(sigma->0) =      -21.62877614


--------------------------------------------------------------------------------------------------------




 average (electrostatic) potential at core
  the test charge radii are     1.1985  1.0856  1.2059
  (the norm of the test charge is              1.0000)
       1 -58.6816       2-103.3362       3 -66.6443



 E-fermi :   7.3859     XC(G=0): -10.5690     alpha+bet :-12.7295


 k-point     1 :       0.0000    0.0000    0.0000
  band No.  band energies     occupation
      1     -32.9705      2.00000
      2     -15.4385      2.00000
      3     -15.4385      2.00000
      4     -15.4113      2.00000
      5     -15.4113      2.00000
      6     -15.4113      2.00000
      7     -10.8343      2.00000
      8     -10.8343      2.00000
      9     -10.8343      2.00000
     10      -4.3741      2.00000
     11       3.4588      2.00000
     12       3.4588      2.00000
     13       3.4588      2.00000
     14       3.7405      2.00000
     15       3.7405      2.00000
     16       5.1888      2.00000
     17       6.4511      2.00000
     18       6.4511      2.00000
     19       6.4511      2.00000
     20       7.6569      0.00000
     21       7.6569      0.00000
     22       7.6569      0.00000
     23       8.3629      0.00000
     24       9.1180      0.00000

 k-point     2 :       0.0769   -0.0000    0.0000
  band No.  band energies     occupation
      1     -32.9703      2.00000
      2     -15.4390      2.00000
      3     -15.4390      2.00000
      4     -15.4114      2.00000
      5     -15.4112      2.00000
      6     -15.4112      2.00000
      7     -10.8441      2.00000
      8     -10.8333      2.00000
      9     -10.8333      2.00000
     10      -4.3291      2.00000
     11       3.3166      2.00000
     12       3.3766      2.00000
     13       3.3766      2.00000
     14       3.8179      2.00000
     15       3.8179      2.00000
     16       5.0668      2.00000
     17       6.3729      2.00000
     18       6.3729      2.00000
     19       6.5062      2.00000
     20       7.7372      0.00000
     21       7.7431      0.00000
     22       7.7431      0.00000
     23       8.5414      0.00000
     24       9.1264      0.00000

 k-point     3 :       0.1538    0.0000   -0.0000
  band No.  band energies     occupation
      1     -32.9699      2.00000
      2     -15.4401      2.00000
      3     -15.4401      2.00000
      4     -15.4116      2.00000
      5     -15.4109      2.00000
      6     -15.4109      2.00000
      7     -10.8705      2.00000
      8     -10.8303      2.00000
[...]
  212              fftbas_plan_mpi                       0.099680                     12   6
  213                dfftw_execute                         0.039814                   36   7
  214                map_backward                          0.006535                   12   7
  215                  map_gather                            0.001695                  6   8
  216                  m_alltoallv_z                         0.002370                  6   8
  217                  map_scatter                           0.002179                  6   8
  218                map_forward                           0.049971                   12   7
  219                  map_gather                            0.029023                  6   8
  220                  m_alltoallv_z                         0.008699                  6   8
  221                  map_scatter                           0.011959                  6   8
  222            M_sumb_d                              0.002888                        6   5
  223          M_sumb_d                              0.000028                          1   4
  224        setdij_                               2.033301                           20   3
  225          fft3d_mpi                             0.356716                         40   4
  226            fftbas_plan_mpi                       0.325886                       40   5
  227              dfftw_execute                         0.133641                    120   6
  228              map_backward                          0.022283                     40   6
  229                map_gather                            0.005530                   20   7
  230                m_alltoallv_z                         0.008483                   20   7
  231                map_scatter                           0.007300                   20   7
  232              map_forward                           0.158921                     40   6
  233                map_gather                            0.090016                   20   7
  234                m_alltoallv_z                         0.028769                   20   7
  235                map_scatter                           0.039117                   20   7
  236          M_sumb_d                              0.006378                         20   4
  237        set_dd_magatom                        0.000003                            1   3
  238        set_dd_paw                            0.015574                            1   3
  239          set_rsgf_all                          0.000004                          1   4
  240          M_sumb_d                              0.015424                          8   4
  241        strkin                                0.001242                            1   3
  242          M_sumb_d                              0.000474                          1   4
  243        strelo                                0.003868                            1   3
  244          M_sumb_d                              0.000277                          2   4
  245        strenl                                1.301271                            1   3
  246          spher                                 0.965430                         19   4
  247          phase                                 0.014935                        189   4
  248          proj1                                 0.290674                       1134   4
  249            crexp_mul_wave                        0.035849                     3402   5
  250            M_sumb_d                              0.089803                     1134   5
  251          M_sumb_d                              0.006523                          1   4
  252        M_sumb_d                              0.000270                            6   3
  253        fft3d_mpi                             0.022274                           11   3
  254          fftbas_plan_mpi                       0.020468                         11   4
  255            dfftw_execute                         0.007633                       33   5
  256            map_forward                           0.004193                       10   5
  257              map_gather                            0.001349                      5   6
  258              m_alltoallv_z                         0.001513                      5   6
  259              map_scatter                           0.001071                      5   6
  260            map_backward                          0.006056                       12   5
  261              map_gather                            0.001555                      6   6
  262              m_alltoallv_z                         0.001962                      6   6
  263              map_scatter                           0.002237                      6   6
  264        ggaall_grid                           0.002654                            1   3
  265        forhar                                0.010430                            2   3
  266          M_sumb_d                              0.000402                          2   4
  267        strehar                               0.004246                            1   3
  268          M_sumb_d                              0.000140                          1   4
  269        chggra                                0.009548                            1   3
  270          fft3d_mpi                             0.006149                          3   4
  271            fftbas_plan_mpi                       0.005662                        3   5
  272              dfftw_execute                         0.002227                      9   6
  273              map_backward                          0.000983                      2   6
  274                map_gather                            0.000243                    1   7
  275                m_alltoallv_z                         0.000308                    1   7
  276                map_scatter                           0.000373                    1   7
  277              map_forward                           0.001653                      4   6
  278                map_gather                            0.000535                    2   7
  279                m_alltoallv_z                         0.000594                    2   7
  280                map_scatter                           0.000419                    2   7
  281          M_sumb_d                              0.000123                          3   4
  282        brmix                                 0.009943                            1   3
  283          M_sumb_d                              0.000268                          6   4
  284          brpre                                 0.000053                          1   4
  285          setg0                                 0.002521                          1   4
  286          broyd                                 0.002521                          1   4
  287            M_sumb_d                              0.000790                       19   5
  288            brget                                 0.000327                       69   5
  289            brsav                                 0.000084                       17   5
  290          M_bcast_z                             0.003114                          1   4
  291          M_bcast_d                             0.000052                          1   4
  292        M_bcast_d                             0.000039                            2   3
  293      potlok                                0.040951                              1   2
  294        fft3d_mpi                             0.027208                           13   3
  295          fftbas_plan_mpi                       0.025155                         13   4
  296            dfftw_execute                         0.009103                       39   5
  297            map_forward                           0.006757                       14   5
  298              map_gather                            0.002165                      8   6
  299              m_alltoallv_z                         0.002471                      8   6
  300              map_scatter                           0.001741                      8   6
  301            map_backward                          0.006204                       12   5
  302              map_gather                            0.001621                      6   6
  303              m_alltoallv_z                         0.002053                      6   6
  304              map_scatter                           0.002222                      6   6
  305        ggaall_grid                           0.002594                            1   3
  306        M_sumb_d                              0.000386                            6   3
  307        M_bcast_d                             0.000131                            1   3
  308      potlok_metagga                        0.000003                              1   2
  309      set_dd_magatom                        0.000004                              1   2
  310      set_dd_paw                            0.000505                              1   2
  311        set_rsgf_all                          0.000004                            1   3
  312        M_sumb_d                              0.000257                            8   3
  313      densta                                0.002359                              1   2
  314        M_sumb_d                              0.000808                           41   3
  315      lprj_proall                           0.000008                              1   2

 Flat profile
 ============

             routine name                   CPU           calls
 ---------------------------------------------------------------
 total_time                             13.194246           1
 dfftw_execute                           7.996788       53202
 eddav                                   5.752605          17
 fftbas_plan_mpi                         3.869766       17736
 setdij_                                 3.612162          41
 set_charge                              3.102299          13
 M_sumb_d                                3.097158       49164
 m_alltoallv_z                           2.250992       17761
 pdssyex_zheevx                          1.590402         357
 vhamil                                  1.361871        8032
 M_alltoall_d                            1.354978       58996
 elmin                                   1.255771           1
 proj1                                   1.151929        7150
 fftwav_mpi                              1.129270        9397
 spher                                   1.120403          20
 map_forward                             1.102916       19088
 gemm                                    1.050857       24096
 orth1                                   1.041165       12069
 map_gather                              0.978953       17761
 map_scatter                             0.923347       17761
 vnlac0                                  0.548758        8032
 M_bcast_z                               0.511145        6569
 redis_pw                                0.509007       22710
 hamiltmu                                0.453121        4016
 redis_proj                              0.440239       28621
 w1_copy                                 0.383221       24096
 fft3d_mpi                               0.342623       17734
 eccp                                    0.321572        2142
 work_mul_crexp                          0.314159       24096
 map_backward                            0.297055       16380
 fftext_mpi                              0.285872        8032
 crexp_mul_wave                          0.244065       21450
 crpa_reader                             0.228469           1
 pw_charge                               0.192865        1365
 kinhamil                                0.170526        8032
 overl                                   0.156891       13943
 potlok                                  0.141138          14
 M_bcast_d                               0.132215        4050
 overl1                                  0.103120        8032
 apply_precond                           0.089135        5890
 setup_precond                           0.081421        2142
 lincom                                  0.068016         378
 w1_projall                              0.065114        2945
 force_and_stress                        0.057604           1
 fornl                                   0.055347           1
 phase                                   0.046383         589
 soft_charge                             0.041342          13
 ggaall_grid                             0.039908          15
 truncate_high_frequency_w1              0.034944       10174
 densta                                  0.027435          18
 setg0                                   0.026115          14
 broyd                                   0.025807          13
 strenl                                  0.023709           1
 brmix                                   0.023490          13
 forhar                                  0.010028           2
 depsum                                  0.005682          13
 forloc                                  0.005011           1
 strehar                                 0.004106           1
 strelo                                  0.003591           1
 set_dd_paw                              0.003433          15
 chggra                                  0.003276           1
 brget                                   0.002392         501
 orthch                                  0.002302           1
 brgrid                                  0.002298           1
 choleski                                0.001916          21
 proj                                    0.001694          21
 brsav                                   0.001130         145
 brpre                                   0.000793          13
 strkin                                  0.000768           1
 fordep                                  0.000128           1
 vectorpot                               0.000082          14
 set_rsgf_all                            0.000070          15
 potlok_metagga                          0.000055          14
 set_dd_magatom                          0.000054          15
 set_kineden                             0.000045          12
 rotate_active_occupied_orbital          0.000015           1
 lprj_proall                             0.000008           1
 redis_pw_over_bands                     0.000003           1
 ---------------------------------------------------------------
  summed up times    63.4685869216919

 Accumulative profile
 ====================

             routine name                   CPU           calls
 ---------------------------------------------------------------
 total_time                             63.468587           1
 elmin                                  44.432699           1
 eddav                                  36.190939          17
 fft3d_mpi                              17.718832       17734
 fftbas_plan_mpi                        17.419817       17736
 hamiltmu                               11.862219        4016
 fftwav_mpi                             10.355174        9397
 dfftw_execute                           7.996788       53202
 kinhamil                                7.504122        8032
 fftext_mpi                              7.333596        8032
 set_charge                              5.124504          13
 force_and_stress                        4.560001           1
 setdij_                                 4.419253          41
 map_forward                             3.440685       19088
 M_sumb_d                                3.097158       49164
 vnlac0                                  2.439984        8032
 m_alltoallv_z                           2.250992       17761
 map_backward                            2.112579       16380
 proj1                                   1.926051        7150
 soft_charge                             1.746356          13
 w1_projall                              1.669178        2945
 pdssyex_zheevx                          1.590402         357
 vhamil                                  1.361871        8032
 M_alltoall_d                            1.354978       58996
 strenl                                  1.301271           1
 redis_pw                                1.291109       22710
 spher                                   1.120403          20
 gemm                                    1.050857       24096
 orth1                                   1.041165       12069
 redis_proj                              1.013115       28621
 map_gather                              0.978953       17761
 map_scatter                             0.923347       17761
 fordep                                  0.625743           1
 potlok                                  0.551914          14
 M_bcast_z                               0.511145        6569
 eccp                                    0.452812        2142
 w1_copy                                 0.383221       24096
 work_mul_crexp                          0.314159       24096
 crexp_mul_wave                          0.244065       21450
 crpa_reader                             0.228469           1
 pw_charge                               0.192865        1365
 set_dd_paw                              0.174365          15
 overl                                   0.156891       13943
 M_bcast_d                               0.132215        4050
 setup_precond                           0.131751        2142
 brmix                                   0.105118          13
 overl1                                  0.103120        8032
 apply_precond                           0.089135        5890
 fornl                                   0.074874           1
 lincom                                  0.068016         378
 phase                                   0.046383         589
 densta                                  0.041855          18
 ggaall_grid                             0.039908          15
 broyd                                   0.035540          13
 orthch                                  0.035136           1
 truncate_high_frequency_w1              0.034944       10174
 proj                                    0.033006          21
 setg0                                   0.026115          14
 depsum                                  0.011035          13
 forhar                                  0.010430           2
 chggra                                  0.009548           1
 forloc                                  0.005187           1
 strehar                                 0.004246           1
 strelo                                  0.003868           1
 brget                                   0.002392         501
 brgrid                                  0.002298           1
 choleski                                0.001916          21
 strkin                                  0.001242           1
 brsav                                   0.001130         145
 brpre                                   0.000793          13
 vectorpot                               0.000082          14
 set_rsgf_all                            0.000070          15
 potlok_metagga                          0.000055          14
 set_dd_magatom                          0.000054          15
 set_kineden                             0.000045          12
 rotate_active_occupied_orbital          0.000015           1
 lprj_proall                             0.000008           1
 redis_pw_over_bands                     0.000003           1
 ---------------------------------------------------------------

Profiling took   1.457828  1.691616  0.006340  0.004706 seconds
Profiling took   1.459400 seconds
