 ----------------------------------------------------
    OOO  PPPP  EEEEE N   N M   M PPPP
   O   O P   P E     NN  N MM MM P   P
   O   O PPPP  EEEEE N N N M M M PPPP   -- VERSION
   O   O P     E     N  NN M   M P
    OOO  P     EEEEE N   N M   M P
 ----------------------------------------------------
 running   64 mpi-ranks, with    1 threads/rank
 distrk:  each k-point on   16 cores,    4 groups
 distr:  one band on    4 cores,    4 groups
 using from now: INCAR
 vasp.6.0.8 29Jun18 (build Jun 13 2019 12:54:44) complex

 POSCAR found type information on POSCAR  Th Bi Pt
 POSCAR found :  3 types and       3 ions
 scaLAPACK will be used
 WARNING: PSMAXN for non-local potential too small

 -----------------------------------------------------------------------------
|                                                                             |
|  ADVICE TO THIS USER RUNNING 'VASP/VAMP'   (HEAR YOUR MASTER'S VOICE ...):  |
|                                                                             |
|      You enforced a specific xc-type in the INCAR file,                     |
|      a different type was found on the POTCAR file                          |
|          I HOPE YOU KNOW, WHAT YOU ARE  DOING                               |
|                                                                             |
 -----------------------------------------------------------------------------

 LDA part: xc-table for Pade appr. of Perdew
 POSCAR, INCAR and KPOINTS ok, starting setup
 FFT: planning ...
 WAVECAR not read
 entering main loop
       N       E                     dE             d eps       ncg     rms          rms(c)
 ELPA: falling back to scaLAPACK
 ELPA: falling back to scaLAPACK
 ELPA: falling back to scaLAPACK
 ELPA: falling back to scaLAPACK
DAV:   1     0.436553776542E+03    0.43655E+03   -0.20361E+04  4032   0.197E+03
DAV:   2     0.432457903346E+02   -0.39331E+03   -0.38623E+03  4256   0.484E+02
DAV:   3    -0.186475762727E+02   -0.61893E+02   -0.61206E+02  5584   0.161E+02
DAV:   4    -0.227153028991E+02   -0.40677E+01   -0.40552E+01  7288   0.425E+01
DAV:   5    -0.228364287278E+02   -0.12113E+00   -0.12110E+00  5640   0.581E+00    0.282E+01
DAV:   6    -0.218089967445E+02    0.10274E+01   -0.20520E+00  5128   0.802E+00    0.179E+01
DAV:   7    -0.217044113402E+02    0.10459E+00   -0.27453E+00  6072   0.857E+00    0.637E+00
DAV:   8    -0.216420080156E+02    0.62403E-01   -0.42030E-01  5088   0.304E+00    0.459E+00
DAV:   9    -0.216330241887E+02    0.89838E-02   -0.16040E-01  6144   0.205E+00    0.189E+00
DAV:  10    -0.216298820776E+02    0.31421E-02   -0.25931E-02  4888   0.999E-01    0.669E-01
DAV:  11    -0.216291001599E+02    0.78192E-03   -0.61328E-03  5944   0.446E-01    0.753E-02
DAV:  12    -0.216289695451E+02    0.13061E-03   -0.14917E-03  6752   0.211E-01    0.635E-02
DAV:  13    -0.216289757229E+02   -0.61778E-05   -0.70547E-05  5480   0.448E-02    0.325E-02
DAV:  14    -0.216289723176E+02    0.34053E-05   -0.17345E-05  6272   0.227E-02    0.300E-03
DAV:  15    -0.216289723306E+02   -0.13061E-07   -0.21410E-06  6496   0.761E-03    0.116E-02
DAV:  16    -0.216289724615E+02   -0.13092E-06   -0.45740E-07  5088   0.398E-03    0.420E-03
DAV:  17    -0.216289724332E+02    0.28395E-07   -0.67094E-08  3936   0.167E-03
   1 F= -.21628972E+02 E0= -.21628776E+02  d E =-.392590E-03
