<?xml version="1.0" encoding="ISO-8859-1"?>
<modeling>
 <generator>
  <i name="program" type="string">vasp </i>
  <i name="version" type="string">6.0.8  </i>
  <i name="subversion" type="string">29Jun18 (build Jun 13 2019 12:54:44) complex                          parallel </i>
  <i name="platform" type="string">IFC18_CrayMPICH </i>
  <i name="date" type="string">2021 12 05 </i>
  <i name="time" type="string">14:21:48 </i>
 </generator>
 <incar>
  <i type="int" name="KPAR">     4</i>
  <i type="int" name="NPAR">     4</i>
  <i type="int" name="ISTART">     0</i>
  <i type="string" name="PREC"> ACC</i>
  <i type="string" name="ALGO"> Normal</i>
  <i type="logical" name="ADDGRID"> T  </i>
  <i type="int" name="ISPIN">     1</i>
  <i type="int" name="NELMIN">     5</i>
  <i type="int" name="IBRION">    -1</i>
  <i name="EDIFF">      0.00000010</i>
  <i type="int" name="NSW">     0</i>
  <i type="int" name="ISIF">     3</i>
  <i name="ENCUT">    700.00000000</i>
  <i type="logical" name="LREAL"> F  </i>
  <i type="int" name="ISMEAR">     0</i>
  <i name="SIGMA">      0.01000000</i>
  <i type="logical" name="LWAVE"> F  </i>
  <i type="logical" name="LCHARG"> F  </i>
  <i type="logical" name="LVTOT"> F  </i>
  <i type="string" name="ALGO"> Normal</i>
  <i type="string" name="GGA"> PS</i>
  <i name="EDIFF">      0.00000010</i>
  <i type="int" name="ISPIN">     1</i>
 </incar>
 <structure name="primitive_cell" >
  <crystal>
   <varray name="basis" >
    <v>       0.00000000       3.53541384       3.53541384 </v>
    <v>       3.53541384       0.00000000       3.53541384 </v>
    <v>       3.53541384       3.53541384       0.00000000 </v>
   </varray>
   <i name="volume">     88.37934330 </i>
   <varray name="rec_basis" >
    <v>      -0.14142616       0.14142616       0.14142616 </v>
    <v>       0.14142616      -0.14142616       0.14142616 </v>
    <v>       0.14142616       0.14142616      -0.14142616 </v>
   </varray>
  </crystal>
  <varray name="positions" >
   <v>       0.25000000       0.25000000       0.25000000 </v>
   <v>       0.75000000       0.75000000       0.75000000 </v>
   <v>       0.00000000       0.00000000       0.00000000 </v>
  </varray>
 </structure>
 <varray name="primitive_index" >
  <v type="int" >        1 </v>
  <v type="int" >        2 </v>
  <v type="int" >        3 </v>
 </varray>
 <kpoints>
  <generation param="Gamma">
   <v type="int" name="divisions">      13       13       13 </v>
   <v name="usershift">      0.00000000       0.00000000       0.00000000 </v>
   <v name="genvec1">      0.07692308      -0.00000000       0.00000000 </v>
   <v name="genvec2">     -0.00000000       0.07692308      -0.00000000 </v>
   <v name="genvec3">      0.00000000       0.00000000       0.07692308 </v>
   <v name="shift">      0.00000000       0.00000000       0.00000000 </v>
  </generation>
  <varray name="kpointlist" >
   <v>       0.00000000       0.00000000       0.00000000 </v>
   <v>       0.07692308      -0.00000000       0.00000000 </v>
   <v>       0.15384615       0.00000000      -0.00000000 </v>
   <v>       0.23076923       0.00000000      -0.00000000 </v>
   <v>       0.30769231       0.00000000      -0.00000000 </v>
   <v>       0.38461538       0.00000000      -0.00000000 </v>
   <v>       0.46153846       0.00000000      -0.00000000 </v>
   <v>       0.07692308       0.07692308      -0.00000000 </v>
   <v>       0.15384615       0.07692308      -0.00000000 </v>
   <v>       0.23076923       0.07692308      -0.00000000 </v>
   <v>       0.30769231       0.07692308      -0.00000000 </v>
   <v>       0.38461538       0.07692308      -0.00000000 </v>
   <v>       0.46153846       0.07692308      -0.00000000 </v>
   <v>      -0.46153846       0.07692308      -0.00000000 </v>
   <v>      -0.38461538       0.07692308       0.00000000 </v>
   <v>      -0.30769231       0.07692308       0.00000000 </v>
   <v>      -0.23076923       0.07692308      -0.00000000 </v>
   <v>      -0.15384615       0.07692308       0.00000000 </v>
   <v>      -0.07692308       0.07692308      -0.00000000 </v>
   <v>       0.15384615       0.15384615      -0.00000000 </v>
   <v>       0.23076923       0.15384615      -0.00000000 </v>
   <v>       0.30769231       0.15384615      -0.00000000 </v>
   <v>       0.38461538       0.15384615      -0.00000000 </v>
   <v>       0.46153846       0.15384615      -0.00000000 </v>
   <v>      -0.46153846       0.15384615       0.00000000 </v>
   <v>      -0.38461538       0.15384615       0.00000000 </v>
   <v>      -0.30769231       0.15384615       0.00000000 </v>
   <v>      -0.23076923       0.15384615       0.00000000 </v>
   <v>      -0.15384615       0.15384615       0.00000000 </v>
   <v>       0.23076923       0.23076923      -0.00000000 </v>
   <v>       0.30769231       0.23076923      -0.00000000 </v>
   <v>       0.38461538       0.23076923      -0.00000000 </v>
   <v>       0.46153846       0.23076923      -0.00000000 </v>
   <v>      -0.46153846       0.23076923      -0.00000000 </v>
   <v>      -0.38461538       0.23076923       0.00000000 </v>
   <v>      -0.30769231       0.23076923       0.00000000 </v>
   <v>      -0.23076923       0.23076923       0.00000000 </v>
   <v>       0.30769231       0.30769231      -0.00000000 </v>
   <v>       0.38461538       0.30769231      -0.00000000 </v>
   <v>       0.46153846       0.30769231      -0.00000000 </v>
   <v>      -0.46153846       0.30769231      -0.00000000 </v>
   <v>      -0.38461538       0.30769231      -0.00000000 </v>
   <v>      -0.30769231       0.30769231       0.00000000 </v>
   <v>       0.38461538       0.38461538      -0.00000000 </v>
   <v>       0.46153846       0.38461538      -0.00000000 </v>
   <v>      -0.46153846       0.38461538       0.00000000 </v>
   <v>      -0.38461538       0.38461538       0.00000000 </v>
   <v>       0.46153846       0.46153846      -0.00000000 </v>
   <v>      -0.46153846       0.46153846       0.00000000 </v>
   <v>       0.23076923       0.15384615       0.07692308 </v>
   <v>       0.30769231       0.15384615       0.07692308 </v>
   <v>       0.38461538       0.15384615       0.07692308 </v>
   <v>       0.46153846       0.15384615       0.07692308 </v>
   <v>      -0.46153846       0.15384615       0.07692308 </v>
   <v>       0.30769231       0.23076923       0.07692308 </v>
   <v>       0.38461538       0.23076923       0.07692308 </v>
   <v>       0.46153846       0.23076923       0.07692308 </v>
   <v>      -0.46153846       0.23076923       0.07692308 </v>
   <v>      -0.38461538       0.23076923       0.07692308 </v>
   <v>      -0.30769231       0.23076923       0.07692308 </v>
   <v>      -0.23076923       0.23076923       0.07692308 </v>
   <v>      -0.15384615       0.23076923       0.07692308 </v>
   <v>       0.38461538       0.30769231       0.07692308 </v>
   <v>       0.46153846       0.30769231       0.07692308 </v>
   <v>      -0.46153846       0.30769231       0.07692308 </v>
   <v>      -0.38461538       0.30769231       0.07692308 </v>
   <v>      -0.30769231       0.30769231       0.07692308 </v>
   <v>      -0.23076923       0.30769231       0.07692308 </v>
   <v>       0.46153846       0.38461538       0.07692308 </v>
   <v>      -0.46153846       0.38461538       0.07692308 </v>
   <v>      -0.38461538       0.38461538       0.07692308 </v>
   <v>      -0.30769231       0.38461538       0.07692308 </v>
   <v>      -0.46153846       0.46153846       0.07692308 </v>
   <v>      -0.38461538       0.46153846       0.07692308 </v>
   <v>       0.46153846       0.30769231       0.15384615 </v>
   <v>      -0.46153846       0.30769231       0.15384615 </v>
   <v>      -0.38461538       0.30769231       0.15384615 </v>
   <v>      -0.46153846       0.38461538       0.15384615 </v>
   <v>      -0.38461538       0.38461538       0.15384615 </v>
   <v>      -0.30769231       0.38461538       0.15384615 </v>
   <v>      -0.23076923       0.38461538       0.15384615 </v>
   <v>      -0.38461538       0.46153846       0.15384615 </v>
   <v>      -0.30769231       0.46153846       0.15384615 </v>
   <v>      -0.30769231       0.46153846       0.23076923 </v>
  </varray>
  <varray name="weights" >
   <v>       0.00045517 </v>
   <v>       0.00364133 </v>
   <v>       0.00364133 </v>
   <v>       0.00364133 </v>
   <v>       0.00364133 </v>
   <v>       0.00364133 </v>
   <v>       0.00364133 </v>
   <v>       0.00273100 </v>
   <v>       0.01092399 </v>
   <v>       0.01092399 </v>
   <v>       0.01092399 </v>
   <v>       0.01092399 </v>
   <v>       0.01092399 </v>
   <v>       0.01092399 </v>
   <v>       0.01092399 </v>
   <v>       0.01092399 </v>
   <v>       0.01092399 </v>
   <v>       0.01092399 </v>
   <v>       0.00546199 </v>
   <v>       0.00273100 </v>
   <v>       0.01092399 </v>
   <v>       0.01092399 </v>
   <v>       0.01092399 </v>
   <v>       0.01092399 </v>
   <v>       0.01092399 </v>
   <v>       0.01092399 </v>
   <v>       0.01092399 </v>
   <v>       0.01092399 </v>
   <v>       0.00546199 </v>
   <v>       0.00273100 </v>
   <v>       0.01092399 </v>
   <v>       0.01092399 </v>
   <v>       0.01092399 </v>
   <v>       0.01092399 </v>
   <v>       0.01092399 </v>
   <v>       0.01092399 </v>
   <v>       0.00546199 </v>
   <v>       0.00273100 </v>
   <v>       0.01092399 </v>
   <v>       0.01092399 </v>
   <v>       0.01092399 </v>
   <v>       0.01092399 </v>
   <v>       0.00546199 </v>
   <v>       0.00273100 </v>
   <v>       0.01092399 </v>
   <v>       0.01092399 </v>
   <v>       0.00546199 </v>
   <v>       0.00273100 </v>
   <v>       0.00546199 </v>
   <v>       0.01092399 </v>
   <v>       0.02184797 </v>
   <v>       0.02184797 </v>
   <v>       0.02184797 </v>
   <v>       0.02184797 </v>
   <v>       0.01092399 </v>
   <v>       0.02184797 </v>
   <v>       0.02184797 </v>
   <v>       0.02184797 </v>
   <v>       0.02184797 </v>
   <v>       0.02184797 </v>
   <v>       0.02184797 </v>
   <v>       0.01092399 </v>
   <v>       0.01092399 </v>
   <v>       0.02184797 </v>
   <v>       0.02184797 </v>
   <v>       0.02184797 </v>
   <v>       0.02184797 </v>
   <v>       0.01092399 </v>
   <v>       0.01092399 </v>
   <v>       0.02184797 </v>
   <v>       0.02184797 </v>
   <v>       0.01092399 </v>
   <v>       0.01092399 </v>
   <v>       0.01092399 </v>
   <v>       0.01092399 </v>
   <v>       0.02184797 </v>
   <v>       0.02184797 </v>
   <v>       0.01092399 </v>
   <v>       0.02184797 </v>
   <v>       0.02184797 </v>
   <v>       0.01092399 </v>
   <v>       0.01092399 </v>
   <v>       0.01092399 </v>
   <v>       0.01092399 </v>
  </varray>
 </kpoints>
 <parameters>
  <separator name="general" >
   <i type="string" name="SYSTEM">unknown system</i>
   <i type="logical" name="LCOMPAT"> F  </i>
  </separator>
  <separator name="electronic" >
   <i type="string" name="PREC">acc</i>
   <i name="ENMAX">    700.00000000</i>
   <i name="ENAUG">    535.43100000</i>
   <i name="EDIFF">      0.00000010</i>
   <i type="int" name="IALGO">    38</i>
   <i type="int" name="IWAVPR">    10</i>
   <i type="int" name="NBANDS">    24</i>
   <i type="int" name="NBANDSLOW">    -1</i>
   <i type="int" name="NBANDSHIGH">    -1</i>
   <i name="NELECT">     37.00000000</i>
   <i type="int" name="TURBO">     0</i>
   <i type="int" name="IRESTART">     0</i>
   <i type="int" name="NREBOOT">     0</i>
   <i type="int" name="NMIN">     0</i>
   <i name="EREF">      0.00000000</i>
   <separator name="electronic smearing" >
    <i type="int" name="ISMEAR">     0</i>
    <i name="SIGMA">      0.01000000</i>
    <i name="KSPACING">      0.50000000</i>
    <i type="logical" name="KGAMMA"> T  </i>
    <i type="logical" name="KBLOWUP"> T  </i>
   </separator>
   <separator name="electronic projectors" >
    <i type="logical" name="LREAL"> F  </i>
    <v name="ROPT">      0.00000000      0.00000000      0.00000000</v>
    <i type="int" name="LMAXPAW">  -100</i>
    <i type="int" name="LMAXMIX">     2</i>
    <i type="logical" name="NLSPLINE"> F  </i>
   </separator>
   <separator name="electronic startup" >
    <i type="int" name="ISTART">     0</i>
    <i type="int" name="ICHARG">     2</i>
    <i type="int" name="INIWAV">     1</i>
   </separator>
   <separator name="electronic spin" >
    <i type="int" name="ISPIN">     1</i>
    <i type="logical" name="LNONCOLLINEAR"> F  </i>
    <v name="MAGMOM">      1.00000000      1.00000000      1.00000000</v>
    <i name="NUPDOWN">     -1.00000000</i>
    <i type="logical" name="LSORBIT"> F  </i>
    <v name="SAXIS">      0.00000000      0.00000000      1.00000000</v>
    <i type="logical" name="LSPIRAL"> F  </i>
    <v name="QSPIRAL">      0.00000000      0.00000000      0.00000000</v>
    <i type="logical" name="LZEROZ"> F  </i>
   </separator>
   <separator name="electronic exchange-correlation" >
    <i type="logical" name="LASPH"> F  </i>
    <i type="logical" name="LMETAGGA"> F  </i>
   </separator>
   <separator name="electronic convergence" >
    <i type="int" name="NELM">    60</i>
    <i type="int" name="NELMDL">    -5</i>
    <i type="int" name="NELMIN">     5</i>
    <i name="ENINI">    700.00000000</i>
    <separator name="electronic convergence detail" >
     <i type="logical" name="LDIAG"> T  </i>
     <i type="logical" name="LSUBROT"> F  </i>
     <i name="WEIMIN">      0.00000000</i>
     <i name="EBREAK">      0.00000000</i>
     <i name="DEPER">      0.30000000</i>
     <i type="int" name="NRMM">     4</i>
     <i name="TIME">      0.40000000</i>
    </separator>
   </separator>
   <separator name="electronic mixer" >
    <i name="AMIX">      0.40000000</i>
    <i name="BMIX">      1.00000000</i>
    <i name="AMIN">      0.10000000</i>
    <i name="AMIX_MAG">      1.60000000</i>
    <i name="BMIX_MAG">      1.00000000</i>
    <separator name="electronic mixer details" >
     <i type="int" name="IMIX">     4</i>
     <i type="logical" name="MIXFIRST"> F  </i>
     <i type="int" name="MAXMIX">   -45</i>
     <i name="WC">    100.00000000</i>
     <i type="int" name="INIMIX">     1</i>
     <i type="int" name="MIXPRE">     1</i>
     <i type="int" name="MREMOVE">     5</i>
    </separator>
   </separator>
   <separator name="electronic dipolcorrection" >
    <i type="logical" name="LDIPOL"> F  </i>
    <i type="logical" name="LMONO"> F  </i>
    <i type="int" name="IDIPOL">     0</i>
    <i name="EPSILON">      1.00000000</i>
    <v name="DIPOL">   -100.00000000   -100.00000000   -100.00000000</v>
    <i name="EFIELD">      0.00000000</i>
   </separator>
  </separator>
  <separator name="grids" >
   <i type="int" name="NGX">    48</i>
   <i type="int" name="NGY">    48</i>
   <i type="int" name="NGZ">    48</i>
   <i type="int" name="NGXF">    96</i>
   <i type="int" name="NGYF">    96</i>
   <i type="int" name="NGZF">    96</i>
   <i type="logical" name="ADDGRID"> T  </i>
  </separator>
  <separator name="ionic" >
   <i type="int" name="NSW">     0</i>
   <i type="int" name="IBRION">    -1</i>
   <i type="int" name="MDALGO">     0</i>
   <i type="int" name="ISIF">     3</i>
   <i name="PSTRESS">      0.00000000</i>
   <i name="EDIFFG">      0.00000100</i>
   <i type="int" name="NFREE">     0</i>
   <i name="POTIM">      0.50000000</i>
   <i name="SMASS">     -3.00000000</i>
   <i name="SCALEE">      1.00000000</i>
  </separator>
  <separator name="ionic md" >
   <i name="TEBEG">      0.00010000</i>
   <i name="TEEND">      0.00010000</i>
   <i type="int" name="NBLOCK">     1</i>
   <i type="int" name="KBLOCK">     1</i>
   <i type="int" name="NPACO">   256</i>
   <i name="APACO">     16.00000000</i>
  </separator>
  <separator name="symmetry" >
   <i type="int" name="ISYM">     2</i>
   <i name="SYMPREC">      0.00001000</i>
  </separator>
  <separator name="dos" >
   <i type="int" name="LORBIT">     0</i>
   <v name="RWIGS">     -1.00000000     -1.00000000     -1.00000000</v>
   <i type="int" name="NEDOS">   301</i>
   <i name="EMIN">     10.00000000</i>
   <i name="EMAX">    -10.00000000</i>
   <i name="EFERMI">      0.00000000</i>
  </separator>
  <separator name="writing" >
   <i type="int" name="NWRITE">     2</i>
   <i type="logical" name="LWAVE"> F  </i>
   <i type="logical" name="LDOWNSAMPLE"> F  </i>
   <i type="logical" name="LCHARG"> F  </i>
   <i type="logical" name="LPARD"> F  </i>
   <i type="logical" name="LVTOT"> F  </i>
   <i type="logical" name="LVHAR"> F  </i>
   <i type="logical" name="LELF"> F  </i>
   <i type="logical" name="LOPTICS"> F  </i>
   <v name="STM">      0.00000000      0.00000000      0.00000000      0.00000000      0.00000000      0.00000000      0.00000000</v>
  </separator>
  <separator name="performance" >
   <i type="int" name="NPAR">     4</i>
   <i type="int" name="NSIM">     4</i>
   <i type="int" name="NBLK">    -1</i>
   <i type="logical" name="LPLANE"> T  </i>
   <i type="logical" name="LSCALAPACK"> T  </i>
   <i type="logical" name="LSCAAWARE"> F  </i>
   <i type="logical" name="LSCALU"> F  </i>
   <i type="logical" name="LASYNC"> F  </i>
   <i type="logical" name="LORBITALREAL"> F  </i>
  </separator>
  <separator name="miscellaneous" >
   <i type="int" name="IDIOT">     3</i>
   <i type="int" name="PHON_NSTRUCT">    -1</i>
   <i type="logical" name="LMUSIC"> F  </i>
   <v name="POMASS">    232.03900000    208.98000000    195.08000000</v>
   <v name="DARWINR">      0.00000000      0.00000000      0.00000000</v>
   <v name="DARWINV">      1.00000000      1.00000000      1.00000000</v>
   <i type="logical" name="LCORR"> T  </i>
  </separator>
  <i type="logical" name="GGA_COMPAT"> T  </i>
  <i type="logical" name="LBERRY"> F  </i>
  <i type="int" name="ICORELEVEL">     0</i>
  <i type="logical" name="LDAU"> F  </i>
  <i type="int" name="I_CONSTRAINED_M">     0</i>
  <separator name="electronic exchange-correlation" >
   <i type="string" name="GGA">PS</i>
   <i type="int" name="VOSKOWN">     0</i>
   <i type="logical" name="LHFCALC"> F  </i>
   <i type="string" name="PRECFOCK"></i>
   <i type="logical" name="LSYMGRAD"> F  </i>
   <i type="logical" name="LHFONE"> F  </i>
   <i type="logical" name="LRHFCALC"> F  </i>
   <i type="logical" name="LTHOMAS"> F  </i>
   <i type="logical" name="LMODELHF"> F  </i>
   <i type="logical" name="LFOCKACE"> F  </i>
   <i name="ENCUT4O">     -1.00000000</i>
   <i type="int" name="EXXOEP">     0</i>
   <i type="int" name="FOURORBIT">     0</i>
   <i name="AEXX">      0.00000000</i>
   <i name="HFALPHA">      0.00000000</i>
   <i name="MCALPHA">      0.00000000</i>
   <i name="ALDAX">      1.00000000</i>
   <i name="AGGAX">      1.00000000</i>
   <i name="ALDAC">      1.00000000</i>
   <i name="AGGAC">      1.00000000</i>
   <i type="int" name="NKREDX">     1</i>
   <i type="int" name="NKREDY">     1</i>
   <i type="int" name="NKREDZ">     1</i>
   <i type="logical" name="SHIFTRED"> F  </i>
   <i type="logical" name="ODDONLY"> F  </i>
   <i type="logical" name="EVENONLY"> F  </i>
   <i type="int" name="LMAXFOCK">     0</i>
   <i type="int" name="NMAXFOCKAE">     0</i>
   <i type="logical" name="LFOCKAEDFT"> F  </i>
   <i name="HFSCREEN">      0.00000000</i>
   <i name="HFSCREENC">      0.00000000</i>
   <i type="int" name="NBANDSGWLOW">     0</i>
  </separator>
  <separator name="vdW DFT" >
   <i type="logical" name="LUSE_VDW"> F  </i>
   <i name="Zab_VDW">     -0.84910000</i>
   <i name="PARAM1">      0.12340000</i>
   <i name="PARAM2">      1.00000000</i>
   <i name="PARAM3">      0.00000000</i>
  </separator>
  <separator name="model GW" >
   <i type="int" name="MODEL_GW">     0</i>
   <i name="MODEL_EPS0">     17.67586866</i>
   <i name="MODEL_ALPHA">      1.00000000</i>
  </separator>
  <separator name="linear response parameters" >
   <i type="logical" name="LEPSILON"> F  </i>
   <i type="logical" name="LRPA"> F  </i>
   <i type="logical" name="LNABLA"> F  </i>
   <i type="logical" name="LVEL"> F  </i>
   <i type="int" name="KINTER">     0</i>
   <i name="CSHIFT">      0.10000000</i>
   <i name="OMEGAMAX">     -1.00000000</i>
   <i name="DEG_THRESHOLD">      0.00200000</i>
   <i name="RTIME">     -0.10000000</i>
   <i name="WPLASMAI">      0.00000000</i>
   <v name="DFIELD">      0.00000000      0.00000000      0.00000000</v>
   <v name="WPLASMA">      0.00000000      0.00000000      0.00000000      0.00000000      0.00000000      0.00000000      0.00000000      0.00000000      0.00000000</v>
  </separator>
  <separator name="orbital magnetization" >
   <i type="logical" name="NUCIND"> F  </i>
   <v name="MAGPOS">      0.00000000      0.00000000      0.00000000</v>
   <i type="logical" name="LNICSALL"> T  </i>
   <i type="logical" name="ORBITALMAG"> F  </i>
   <i type="logical" name="LMAGBLOCH"> F  </i>
   <i type="logical" name="LCHIMAG"> F  </i>
   <i type="logical" name="LGAUGE"> T  </i>
   <i type="int" name="MAGATOM">     0</i>
   <v name="MAGDIPOL">      0.00000000      0.00000000      0.00000000</v>
   <v name="AVECCONST">      0.00000000      0.00000000      0.00000000</v>
  </separator>
  <separator name="response functions" >
   <i type="logical" name="LFINITE_TEMPERATURE"> F  </i>
   <i type="logical" name="LADDER"> F  </i>
   <i type="logical" name="LRPAFORCE"> F  </i>
   <i type="logical" name="LFXC"> F  </i>
   <i type="logical" name="LHARTREE"> T  </i>
   <i type="int" name="IBSE">     0</i>
   <v type="int" name="KPOINT">    -1     0     0     0</v>
   <i type="logical" name="LTCTC"> F  </i>
   <i type="logical" name="LTCTE"> F  </i>
   <i type="logical" name="LTETE"> F  </i>
   <i type="logical" name="LTRIPLET"> F  </i>
   <i type="logical" name="LFXCEPS"> F  </i>
   <i type="logical" name="LFXHEG"> F  </i>
   <i type="int" name="NATURALO">     2</i>
   <i type="logical" name="L2ORDER"> F  </i>
   <i type="logical" name="LDMP1"> F  </i>
   <i type="logical" name="LMP2LT"> F  </i>
   <i type="logical" name="LSMP2LT"> F  </i>
   <i type="logical" name="LUSEW"> F  </i>
   <i name="ENCUTGW">     -2.00000000</i>
   <i name="ENCUTGWSOFT">     -2.00000000</i>
   <i name="ENCUTLF">     -1.00000000</i>
   <i type="int" name="LMAXMP2">    -1</i>
   <i name="SCISSOR">      0.00000000</i>
   <i type="int" name="NOMEGA">     0</i>
   <i type="int" name="NOMEGAR">     0</i>
   <i type="int" name="NBANDSGW">    -1</i>
   <i type="int" name="NBANDSO">    -1</i>
   <i type="int" name="NBANDSV">    -1</i>
   <i type="int" name="NELM">     1</i>
   <i type="int" name="NELMHF">     1</i>
   <i type="int" name="DIM">     3</i>
   <i type="int" name="IESPILON">     4</i>
   <i type="int" name="ANTIRES">     0</i>
   <i name="OMEGAMAX">    -30.00000000</i>
   <i name="OMEGAMIN">    -30.00000000</i>
   <i name="OMEGATL">   -200.00000000</i>
   <i type="int" name="OMEGAGRID">   145</i>
   <i name="CSHIFT">     -0.10000000</i>
   <i type="logical" name="LSELFENERGY"> F  </i>
   <i type="logical" name="LSPECTRAL"> F  </i>
   <i type="logical" name="LSPECTRALGW"> F  </i>
   <i type="logical" name="LSINGLES"> F  </i>
   <i type="logical" name="LFERMIGW"> F  </i>
   <i type="logical" name="ODDONLYGW"> F  </i>
   <i type="logical" name="EVENONLYGW"> F  </i>
   <i type="int" name="NKREDLFX">     1</i>
   <i type="int" name="NKREDLFY">     1</i>
   <i type="int" name="NKREDLFZ">     1</i>
   <i type="int" name="MAXMEM">  2800</i>
   <i type="int" name="TELESCOPE">     0</i>
   <i type="int" name="NTAUPAR">     1</i>
   <i type="int" name="NOMEGAPAR">    -1</i>
   <i name="LAMBDA">      1.00000000</i>
  </separator>
  <separator name="External order field" >
   <i name="OFIELD_KAPPA">      0.00000000</i>
   <v name="OFIELD_K">      0.00000000      0.00000000      0.00000000</v>
   <i name="OFIELD_Q6_NEAR">      0.00000000</i>
   <i name="OFIELD_Q6_FAR">      0.00000000</i>
   <i name="OFIELD_A">      0.00000000</i>
  </separator>
 </parameters>
 <atominfo>
  <atoms>       3 </atoms>
  <types>       3 </types>
  <array name="atoms" >
   <dimension dim="1">ion</dimension>
   <field type="string">element</field>
   <field type="int">atomtype</field>
   <set>
    <rc><c>Th</c><c>   1</c></rc>
    <rc><c>Bi</c><c>   2</c></rc>
    <rc><c>Pt</c><c>   3</c></rc>
   </set>
  </array>
  <array name="atomtypes" >
   <dimension dim="1">type</dimension>
   <field type="int">atomspertype</field>
   <field type="string">element</field>
   <field>mass</field>
   <field>valence</field>
   <field type="string">pseudopotential</field>
   <set>
    <rc><c>   1</c><c>Th</c><c>    232.03900000</c><c>     12.00000000</c><c>  PAW_PBE Th 07Sep2000                  </c></rc>
    <rc><c>   1</c><c>Bi</c><c>    208.98000000</c><c>     15.00000000</c><c>  PAW_PBE Bi_d 06Sep2000                </c></rc>
    <rc><c>   1</c><c>Pt</c><c>    195.08000000</c><c>     10.00000000</c><c>  PAW_PBE Pt 04Feb2005                  </c></rc>
   </set>
  </array>
 </atominfo>
 <structure name="initialpos" >
  <crystal>
   <varray name="basis" >
    <v>       0.00000000       3.53541384       3.53541384 </v>
    <v>       3.53541384       0.00000000       3.53541384 </v>
    <v>       3.53541384       3.53541384       0.00000000 </v>
   </varray>
   <i name="volume">     88.37934330 </i>
   <varray name="rec_basis" >
    <v>      -0.14142616       0.14142616       0.14142616 </v>
    <v>       0.14142616      -0.14142616       0.14142616 </v>
    <v>       0.14142616       0.14142616      -0.14142616 </v>
   </varray>
  </crystal>
  <varray name="positions" >
   <v>       0.25000000       0.25000000       0.25000000 </v>
   <v>       0.75000000       0.75000000       0.75000000 </v>
   <v>       0.00000000       0.00000000       0.00000000 </v>
  </varray>
 </structure>
 <calculation>
  <scstep>
   <time name="dav">    1.73    1.74</time>
   <time name="total">    1.93    2.00</time>
   <energy>
    <i name="alphaZ">    194.40699983 </i>
    <i name="ewald">  -3029.96503416 </i>
    <i name="hartreedc">   -799.72341666 </i>
    <i name="XCdc">     67.32796092 </i>
    <i name="pawpsdc">   3147.30828992 </i>
    <i name="pawaedc">  -3070.62761383 </i>
    <i name="eentropy">     -0.00011554 </i>
    <i name="bandstr">    253.15328344 </i>
    <i name="atom">   3674.67342263 </i>
    <i name="e_fr_energy">    436.55377654 </i>
    <i name="e_wo_entrp">    436.55389208 </i>
    <i name="e_0_energy">    436.55383431 </i>
   </energy>
  </scstep>
  <scstep>
   <time name="dav">    1.74    1.76</time>
   <time name="total">    1.75    1.77</time>
   <energy>
    <i name="e_fr_energy">     43.24579033 </i>
    <i name="e_wo_entrp">     43.24626957 </i>
    <i name="e_0_energy">     43.24602995 </i>
   </energy>
  </scstep>
  <scstep>
   <time name="dav">    2.13    2.16</time>
   <time name="total">    2.13    2.16</time>
   <energy>
    <i name="e_fr_energy">    -18.64757627 </i>
    <i name="e_wo_entrp">    -18.64740727 </i>
    <i name="e_0_energy">    -18.64749177 </i>
   </energy>
  </scstep>
  <scstep>
   <time name="dav">    2.68    2.71</time>
   <time name="total">    2.69    2.71</time>
   <energy>
    <i name="e_fr_energy">    -22.71530290 </i>
    <i name="e_wo_entrp">    -22.71500061 </i>
    <i name="e_0_energy">    -22.71515176 </i>
   </energy>
  </scstep>
  <scstep>
   <time name="dav">    2.22    2.24</time>
   <time name="total">    2.70    2.72</time>
   <energy>
    <i name="e_fr_energy">    -22.83642873 </i>
    <i name="e_wo_entrp">    -22.83614563 </i>
    <i name="e_0_energy">    -22.83628718 </i>
   </energy>
  </scstep>
  <scstep>
   <time name="dav">    2.00    2.00</time>
   <time name="total">    2.60    2.63</time>
   <energy>
    <i name="e_fr_energy">    -21.80899674 </i>
    <i name="e_wo_entrp">    -21.80876766 </i>
    <i name="e_0_energy">    -21.80888220 </i>
   </energy>
  </scstep>
  <scstep>
   <time name="dav">    2.25    2.25</time>
   <time name="total">    2.82    2.85</time>
   <energy>
    <i name="e_fr_energy">    -21.70441134 </i>
    <i name="e_wo_entrp">    -21.70416277 </i>
    <i name="e_0_energy">    -21.70428706 </i>
   </energy>
  </scstep>
  <scstep>
   <time name="dav">    2.01    2.01</time>
   <time name="total">    2.58    2.60</time>
   <energy>
    <i name="e_fr_energy">    -21.64200802 </i>
    <i name="e_wo_entrp">    -21.64145866 </i>
    <i name="e_0_energy">    -21.64173334 </i>
   </energy>
  </scstep>
  <scstep>
   <time name="dav">    2.29    2.29</time>
   <time name="total">    2.85    2.88</time>
   <energy>
    <i name="e_fr_energy">    -21.63302419 </i>
    <i name="e_wo_entrp">    -21.63262456 </i>
    <i name="e_0_energy">    -21.63282438 </i>
   </energy>
  </scstep>
  <scstep>
   <time name="dav">    1.92    1.92</time>
   <time name="total">    2.48    2.51</time>
   <energy>
    <i name="e_fr_energy">    -21.62988208 </i>
    <i name="e_wo_entrp">    -21.62940287 </i>
    <i name="e_0_energy">    -21.62964248 </i>
   </energy>
  </scstep>
  <scstep>
   <time name="dav">    2.22    2.22</time>
   <time name="total">    2.78    2.81</time>
   <energy>
    <i name="e_fr_energy">    -21.62910016 </i>
    <i name="e_wo_entrp">    -21.62870621 </i>
    <i name="e_0_energy">    -21.62890318 </i>
   </energy>
  </scstep>
  <scstep>
   <time name="dav">    2.52    2.52</time>
   <time name="total">    3.10    3.13</time>
   <energy>
    <i name="e_fr_energy">    -21.62896955 </i>
    <i name="e_wo_entrp">    -21.62858244 </i>
    <i name="e_0_energy">    -21.62877599 </i>
   </energy>
  </scstep>
  <scstep>
   <time name="dav">    2.09    2.09</time>
   <time name="total">    2.65    2.69</time>
   <energy>
    <i name="e_fr_energy">    -21.62897572 </i>
    <i name="e_wo_entrp">    -21.62858839 </i>
    <i name="e_0_energy">    -21.62878206 </i>
   </energy>
  </scstep>
  <scstep>
   <time name="dav">    2.36    2.36</time>
   <time name="total">    2.92    2.95</time>
   <energy>
    <i name="e_fr_energy">    -21.62897232 </i>
    <i name="e_wo_entrp">    -21.62858054 </i>
    <i name="e_0_energy">    -21.62877643 </i>
   </energy>
  </scstep>
  <scstep>
   <time name="dav">    2.40    2.40</time>
   <time name="total">    2.97    3.00</time>
   <energy>
    <i name="e_fr_energy">    -21.62897233 </i>
    <i name="e_wo_entrp">    -21.62857939 </i>
    <i name="e_0_energy">    -21.62877586 </i>
   </energy>
  </scstep>
  <scstep>
   <time name="dav">    2.00    2.00</time>
   <time name="total">    2.58    2.62</time>
   <energy>
    <i name="e_fr_energy">    -21.62897246 </i>
    <i name="e_wo_entrp">    -21.62858011 </i>
    <i name="e_0_energy">    -21.62877628 </i>
   </energy>
  </scstep>
  <scstep>
   <time name="dav">    1.67    1.67</time>
   <time name="total">    1.85    1.88</time>
   <energy>
    <i name="alphaZ">    194.40699983 </i>
    <i name="ewald">  -3029.96503416 </i>
    <i name="hartreedc">   -774.25983137 </i>
    <i name="XCdc">     66.64630115 </i>
    <i name="pawpsdc">   3706.24509818 </i>
    <i name="pawaedc">  -3637.34011653 </i>
    <i name="eentropy">     -0.00039259 </i>
    <i name="bandstr">   -222.03541958 </i>
    <i name="atom">   3674.67342263 </i>
    <i name="e_fr_energy">    -21.62897243 </i>
    <i name="e_wo_entrp">    -21.62857984 </i>
    <i name="e_0_energy">    -21.62877614 </i>
   </energy>
  </scstep>
  <structure>
   <crystal>
    <varray name="basis" >
     <v>       0.00000000       3.53541384       3.53541384 </v>
     <v>       3.53541384       0.00000000       3.53541384 </v>
     <v>       3.53541384       3.53541384       0.00000000 </v>
    </varray>
    <i name="volume">     88.37934330 </i>
    <varray name="rec_basis" >
     <v>      -0.14142616       0.14142616       0.14142616 </v>
     <v>       0.14142616      -0.14142616       0.14142616 </v>
     <v>       0.14142616       0.14142616      -0.14142616 </v>
    </varray>
   </crystal>
   <varray name="positions" >
    <v>       0.25000000       0.25000000       0.25000000 </v>
    <v>       0.75000000       0.75000000       0.75000000 </v>
    <v>       0.00000000       0.00000000       0.00000000 </v>
   </varray>
  </structure>
  <varray name="forces" >
   <v>       0.00000000       0.00000000       0.00000000 </v>
   <v>       0.00000000       0.00000000       0.00000000 </v>
   <v>      -0.00000000      -0.00000000      -0.00000000 </v>
  </varray>
  <varray name="stress" >
   <v>     -80.89789264       0.00000000      -0.00000000 </v>
   <v>       0.00000000     -80.89789264       0.00000000 </v>
   <v>      -0.00000000      -0.00000000     -80.89789264 </v>
  </varray>
  <energy>
   <i name="e_fr_energy">    -21.62897243 </i>
   <i name="e_wo_entrp">    -21.62877614 </i>
   <i name="e_0_energy">     -0.00039259 </i>
  </energy>
  <time name="totalsc">   48.26   49.23</time>
  <eigenvalues>
   <array>
    <dimension dim="1">band</dimension>
    <dimension dim="2">kpoint</dimension>
    <dimension dim="3">spin</dimension>
    <field>eigene</field>
    <field>occ</field>
    <set>
     <set comment="spin 1">
      <set comment="kpoint 1">
       <r>  -32.9705    1.0000 </r>
       <r>  -15.4385    1.0000 </r>
       <r>  -15.4385    1.0000 </r>
       <r>  -15.4113    1.0000 </r>
       <r>  -15.4113    1.0000 </r>
       <r>  -15.4113    1.0000 </r>
       <r>  -10.8343    1.0000 </r>
       <r>  -10.8343    1.0000 </r>
       <r>  -10.8343    1.0000 </r>
       <r>   -4.3741    1.0000 </r>
       <r>    3.4588    1.0000 </r>
       <r>    3.4588    1.0000 </r>
       <r>    3.4588    1.0000 </r>
       <r>    3.7405    1.0000 </r>
       <r>    3.7405    1.0000 </r>
       <r>    5.1888    1.0000 </r>
       <r>    6.4511    1.0000 </r>
       <r>    6.4511    1.0000 </r>
       <r>    6.4511    1.0000 </r>
       <r>    7.6569    0.0000 </r>
       <r>    7.6569    0.0000 </r>
       <r>    7.6569    0.0000 </r>
       <r>    8.3629    0.0000 </r>
       <r>    9.1180    0.0000 </r>
      </set>
      <set comment="kpoint 2">
       <r>  -32.9703    1.0000 </r>
       <r>  -15.4390    1.0000 </r>
       <r>  -15.4390    1.0000 </r>
       <r>  -15.4114    1.0000 </r>
       <r>  -15.4112    1.0000 </r>
       <r>  -15.4112    1.0000 </r>
       <r>  -10.8441    1.0000 </r>
       <r>  -10.8333    1.0000 </r>
       <r>  -10.8333    1.0000 </r>
       <r>   -4.3291    1.0000 </r>
       <r>    3.3166    1.0000 </r>
       <r>    3.3766    1.0000 </r>
       <r>    3.3766    1.0000 </r>
       <r>    3.8179    1.0000 </r>
       <r>    3.8179    1.0000 </r>
       <r>    5.0668    1.0000 </r>
       <r>    6.3729    1.0000 </r>
       <r>    6.3729    1.0000 </r>
       <r>    6.5062    1.0000 </r>
       <r>    7.7372    0.0000 </r>
       <r>    7.7431    0.0000 </r>
       <r>    7.7431    0.0000 </r>
       <r>    8.5414    0.0000 </r>
       <r>    9.1264    0.0000 </r>
      </set>
      <set comment="kpoint 3">
       <r>  -32.9699    1.0000 </r>
       <r>  -15.4401    1.0000 </r>
       <r>  -15.4401    1.0000 </r>
       <r>  -15.4116    1.0000 </r>
       <r>  -15.4109    1.0000 </r>
       <r>  -15.4109    1.0000 </r>
       <r>  -10.8705    1.0000 </r>
       <r>  -10.8303    1.0000 </r>
       <r>  -10.8303    1.0000 </r>
       <r>   -4.2039    1.0000 </r>
       <r>    2.9763    1.0000 </r>
       <r>    3.2473    1.0000 </r>
       <r>    3.2473    1.0000 </r>
       <r>    3.9253    1.0000 </r>
       <r>    3.9253    1.0000 </r>
       <r>    4.7749    1.0000 </r>
       <r>    6.2075    1.0000 </r>
       <r>    6.2075    1.0000 </r>
       <r>    6.5926    1.0000 </r>
       <r>    7.9457    0.0000 </r>
       <r>    7.9457    0.0000 </r>
       <r>    8.0806    0.0000 </r>
       <r>    8.8494    0.0000 </r>
       <r>    9.1509    0.0000 </r>
      </set>
      <set comment="kpoint 4">
       <r>  -32.9692    1.0000 </r>
       <r>  -15.4418    1.0000 </r>
       <r>  -15.4418    1.0000 </r>
       <r>  -15.4119    1.0000 </r>
       <r>  -15.4105    1.0000 </r>
       <r>  -15.4105    1.0000 </r>
       <r>  -10.9064    1.0000 </r>
       <r>  -10.8260    1.0000 </r>
       <r>  -10.8260    1.0000 </r>
       <r>   -4.0258    1.0000 </r>
       <r>    2.5789    1.0000 </r>
       <r>    3.1440    1.0000 </r>
       <r>    3.1440    1.0000 </r>
       <r>    3.9740    1.0000 </r>
       <r>    3.9740    1.0000 </r>
       <r>    4.4492    1.0000 </r>
       <r>    6.0554    1.0000 </r>
       <r>    6.0554    1.0000 </r>
       <r>    6.6819    1.0000 </r>
       <r>    8.1874    0.0000 </r>
       <r>    8.1874    0.0000 </r>
       <r>    8.5831    0.0000 </r>
       <r>    9.0759    0.0000 </r>
       <r>    9.1517    0.0000 </r>
      </set>
      <set comment="kpoint 5">
       <r>  -32.9685    1.0000 </r>
       <r>  -15.4437    1.0000 </r>
       <r>  -15.4437    1.0000 </r>
       <r>  -15.4124    1.0000 </r>
       <r>  -15.4101    1.0000 </r>
       <r>  -15.4101    1.0000 </r>
       <r>  -10.9426    1.0000 </r>
       <r>  -10.8216    1.0000 </r>
       <r>  -10.8216    1.0000 </r>
       <r>   -3.8344    1.0000 </r>
       <r>    2.2197    1.0000 </r>
       <r>    3.0823    1.0000 </r>
       <r>    3.0823    1.0000 </r>
       <r>    3.9474    1.0000 </r>
       <r>    3.9474    1.0000 </r>
       <r>    4.1813    1.0000 </r>
       <r>    5.9629    1.0000 </r>
       <r>    5.9629    1.0000 </r>
       <r>    6.8030    1.0000 </r>
       <r>    8.4161    0.0000 </r>
       <r>    8.4161    0.0000 </r>
       <r>    8.9962    0.0000 </r>
       <r>    9.1179    0.0000 </r>
       <r>    9.1182    0.0000 </r>
      </set>
      <set comment="kpoint 6">
       <r>  -32.9680    1.0000 </r>
       <r>  -15.4452    1.0000 </r>
       <r>  -15.4452    1.0000 </r>
       <r>  -15.4127    1.0000 </r>
       <r>  -15.4097    1.0000 </r>
       <r>  -15.4097    1.0000 </r>
       <r>  -10.9714    1.0000 </r>
       <r>  -10.8179    1.0000 </r>
       <r>  -10.8179    1.0000 </r>
       <r>   -3.6737    1.0000 </r>
       <r>    1.9540    1.0000 </r>
       <r>    3.0593    1.0000 </r>
       <r>    3.0593    1.0000 </r>
       <r>    3.8767    1.0000 </r>
       <r>    3.8767    1.0000 </r>
       <r>    4.0053    1.0000 </r>
       <r>    5.9250    1.0000 </r>
       <r>    5.9250    1.0000 </r>
       <r>    6.9558    1.0000 </r>
       <r>    8.5878    0.0000 </r>
       <r>    8.5878    0.0000 </r>
       <r>    9.0825    0.0000 </r>
       <r>    9.0825    0.0000 </r>
       <r>    9.1325    0.0000 </r>
      </set>
      <set comment="kpoint 7">
       <r>  -32.9676    1.0000 </r>
       <r>  -15.4460    1.0000 </r>
       <r>  -15.4460    1.0000 </r>
       <r>  -15.4130    1.0000 </r>
       <r>  -15.4095    1.0000 </r>
       <r>  -15.4095    1.0000 </r>
       <r>  -10.9872    1.0000 </r>
       <r>  -10.8158    1.0000 </r>
       <r>  -10.8158    1.0000 </r>
       <r>   -3.5822    1.0000 </r>
       <r>    1.8136    1.0000 </r>
       <r>    3.0578    1.0000 </r>
       <r>    3.0578    1.0000 </r>
       <r>    3.8188    1.0000 </r>
       <r>    3.8188    1.0000 </r>
       <r>    3.9215    1.0000 </r>
       <r>    5.9154    1.0000 </r>
       <r>    5.9154    1.0000 </r>
       <r>    7.0850    1.0000 </r>
       <r>    8.6773    0.0000 </r>
       <r>    8.6773    0.0000 </r>
       <r>    9.0598    0.0000 </r>
       <r>    9.0599    0.0000 </r>
       <r>    9.0700    0.0000 </r>
      </set>
      <set comment="kpoint 8">
       <r>  -32.9703    1.0000 </r>
       <r>  -15.4397    1.0000 </r>
       <r>  -15.4384    1.0000 </r>
       <r>  -15.4115    1.0000 </r>
       <r>  -15.4111    1.0000 </r>
       <r>  -15.4111    1.0000 </r>
       <r>  -10.8416    1.0000 </r>
       <r>  -10.8358    1.0000 </r>
       <r>  -10.8358    1.0000 </r>
       <r>   -4.3153    1.0000 </r>
       <r>    3.1203    1.0000 </r>
       <r>    3.4729    1.0000 </r>
       <r>    3.4729    1.0000 </r>
       <r>    3.7561    1.0000 </r>
       <r>    3.8412    1.0000 </r>
       <r>    5.0615    1.0000 </r>
       <r>    6.2649    1.0000 </r>
       <r>    6.2649    1.0000 </r>
       <r>    6.7113    1.0000 </r>
       <r>    7.4920    0.0000 </r>
       <r>    7.8863    0.0000 </r>
       <r>    7.8863    0.0000 </r>
       <r>    8.5732    0.0000 </r>
       <r>    9.1259    0.0000 </r>
      </set>
      <set comment="kpoint 9">
       <r>  -32.9699    1.0000 </r>
       <r>  -15.4411    1.0000 </r>
       <r>  -15.4387    1.0000 </r>
       <r>  -15.4117    1.0000 </r>
       <r>  -15.4109    1.0000 </r>
       <r>  -15.4109    1.0000 </r>
       <r>  -10.8613    1.0000 </r>
       <r>  -10.8360    1.0000 </r>
       <r>  -10.8322    1.0000 </r>
       <r>   -4.2205    1.0000 </r>
       <r>    2.8473    1.0000 </r>
       <r>    3.3714    1.0000 </r>
       <r>    3.4152    1.0000 </r>
       <r>    3.8286    1.0000 </r>
       <r>    3.9187    1.0000 </r>
       <r>    4.8799    1.0000 </r>
       <r>    6.0828    1.0000 </r>
       <r>    6.1045    1.0000 </r>
       <r>    6.9026    1.0000 </r>
       <r>    7.5092    0.0000 </r>
       <r>    8.0948    0.0000 </r>
       <r>    8.1440    0.0000 </r>
       <r>    8.8030    0.0000 </r>
       <r>    9.1090    0.0000 </r>
      </set>
      <set comment="kpoint 10">
       <r>  -32.9693    1.0000 </r>
       <r>  -15.4427    1.0000 </r>
       <r>  -15.4398    1.0000 </r>
       <r>  -15.4120    1.0000 </r>
       <r>  -15.4106    1.0000 </r>
       <r>  -15.4105    1.0000 </r>
       <r>  -10.8937    1.0000 </r>
       <r>  -10.8338    1.0000 </r>
       <r>  -10.8272    1.0000 </r>
       <r>   -4.0658    1.0000 </r>
       <r>    2.5529    1.0000 </r>
       <r>    3.1902    1.0000 </r>
       <r>    3.3185    1.0000 </r>
       <r>    3.8963    1.0000 </r>
       <r>    3.9972    1.0000 </r>
       <r>    4.5900    1.0000 </r>
       <r>    5.9077    1.0000 </r>
       <r>    5.9724    1.0000 </r>
       <r>    6.9722    1.0000 </r>
       <r>    7.8082    0.0000 </r>
       <r>    8.3059    0.0000 </r>
       <r>    8.5061    0.0000 </r>
       <r>    9.0301    0.0000 </r>
       <r>    9.1064    0.0000 </r>
      </set>
      <set comment="kpoint 11">
       <r>  -32.9687    1.0000 </r>
       <r>  -15.4442    1.0000 </r>
       <r>  -15.4415    1.0000 </r>
       <r>  -15.4123    1.0000 </r>
       <r>  -15.4103    1.0000 </r>
       <r>  -15.4100    1.0000 </r>
       <r>  -10.9293    1.0000 </r>
       <r>  -10.8298    1.0000 </r>
       <r>  -10.8231    1.0000 </r>
       <r>   -3.8864    1.0000 </r>
       <r>    2.2667    1.0000 </r>
       <r>    3.0600    1.0000 </r>
       <r>    3.2389    1.0000 </r>
       <r>    3.8941    1.0000 </r>
       <r>    4.0112    1.0000 </r>
       <r>    4.3021    1.0000 </r>
       <r>    5.8064    1.0000 </r>
       <r>    5.9023    1.0000 </r>
       <r>    6.9889    1.0000 </r>
       <r>    8.1881    0.0000 </r>
       <r>    8.4917    0.0000 </r>
       <r>    8.8755    0.0000 </r>
       <r>    9.0970    0.0000 </r>
       <r>    9.1306    0.0000 </r>
      </set>
      <set comment="kpoint 12">
       <r>  -32.9680    1.0000 </r>
       <r>  -15.4453    1.0000 </r>
       <r>  -15.4434    1.0000 </r>
       <r>  -15.4126    1.0000 </r>
       <r>  -15.4099    1.0000 </r>
       <r>  -15.4096    1.0000 </r>
       <r>  -10.9599    1.0000 </r>
       <r>  -10.8249    1.0000 </r>
       <r>  -10.8208    1.0000 </r>
       <r>   -3.7233    1.0000 </r>
       <r>    2.0333    1.0000 </r>
       <r>    3.0060    1.0000 </r>
       <r>    3.1770    1.0000 </r>
       <r>    3.8482    1.0000 </r>
       <r>    3.9612    1.0000 </r>
       <r>    4.0854    1.0000 </r>
       <r>    5.7686    1.0000 </r>
       <r>    5.8816    1.0000 </r>
       <r>    7.0552    1.0000 </r>
       <r>    8.4710    0.0000 </r>
       <r>    8.6298    0.0000 </r>
       <r>    9.0344    0.0000 </r>
       <r>    9.0769    0.0000 </r>
       <r>    9.1580    0.0000 </r>
      </set>
      <set comment="kpoint 13">
       <r>  -32.9676    1.0000 </r>
       <r>  -15.4457    1.0000 </r>
       <r>  -15.4450    1.0000 </r>
       <r>  -15.4128    1.0000 </r>
       <r>  -15.4097    1.0000 </r>
       <r>  -15.4094    1.0000 </r>
       <r>  -10.9795    1.0000 </r>
       <r>  -10.8208    1.0000 </r>
       <r>  -10.8202    1.0000 </r>
       <r>   -3.6143    1.0000 </r>
       <r>    1.8879    1.0000 </r>
       <r>    3.0177    1.0000 </r>
       <r>    3.1158    1.0000 </r>
       <r>    3.8203    1.0000 </r>
       <r>    3.8878    1.0000 </r>
       <r>    3.9572    1.0000 </r>
       <r>    5.7624    1.0000 </r>
       <r>    5.8808    1.0000 </r>
       <r>    7.1592    1.0000 </r>
       <r>    8.6075    0.0000 </r>
       <r>    8.7044    0.0000 </r>
       <r>    9.0264    0.0000 </r>
       <r>    9.0533    0.0000 </r>
       <r>    9.1429    0.0000 </r>
      </set>
      <set comment="kpoint 14">
       <r>  -32.9675    1.0000 </r>
       <r>  -15.4459    1.0000 </r>
       <r>  -15.4453    1.0000 </r>
       <r>  -15.4128    1.0000 </r>
       <r>  -15.4096    1.0000 </r>
       <r>  -15.4094    1.0000 </r>
       <r>  -10.9845    1.0000 </r>
       <r>  -10.8230    1.0000 </r>
       <r>  -10.8167    1.0000 </r>
       <r>   -3.5844    1.0000 </r>
       <r>    1.8495    1.0000 </r>
       <r>    3.0477    1.0000 </r>
       <r>    3.0721    1.0000 </r>
       <r>    3.8274    1.0000 </r>
       <r>    3.8507    1.0000 </r>
       <r>    3.9263    1.0000 </r>
       <r>    5.7562    1.0000 </r>
       <r>    5.8845    1.0000 </r>
       <r>    7.2075    1.0000 </r>
       <r>    8.6381    0.0000 </r>
       <r>    8.7022    0.0000 </r>
       <r>    9.0314    0.0000 </r>
       <r>    9.0428    0.0000 </r>
       <r>    9.1147    0.0000 </r>
      </set>
      <set comment="kpoint 15">
       <r>  -32.9678    1.0000 </r>
       <r>  -15.4460    1.0000 </r>
       <r>  -15.4442    1.0000 </r>
       <r>  -15.4127    1.0000 </r>
       <r>  -15.4096    1.0000 </r>
       <r>  -15.4096    1.0000 </r>
       <r>  -10.9743    1.0000 </r>
       <r>  -10.8270    1.0000 </r>
       <r>  -10.8152    1.0000 </r>
       <r>   -3.6407    1.0000 </r>
       <r>    1.9245    1.0000 </r>
       <r>    2.9901    1.0000 </r>
       <r>    3.1442    1.0000 </r>
       <r>    3.8128    1.0000 </r>
       <r>    3.9292    1.0000 </r>
       <r>    3.9896    1.0000 </r>
       <r>    5.7325    1.0000 </r>
       <r>    5.8982    1.0000 </r>
       <r>    7.1433    1.0000 </r>
       <r>    8.6078    0.0000 </r>
       <r>    8.6459    0.0000 </r>
       <r>    9.0421    0.0000 </r>
       <r>    9.0535    0.0000 </r>
       <r>    9.1588    0.0000 </r>
      </set>
      <set comment="kpoint 16">
       <r>  -32.9682    1.0000 </r>
       <r>  -15.4453    1.0000 </r>
       <r>  -15.4426    1.0000 </r>
       <r>  -15.4124    1.0000 </r>
       <r>  -15.4100    1.0000 </r>
       <r>  -15.4099    1.0000 </r>
       <r>  -10.9505    1.0000 </r>
       <r>  -10.8316    1.0000 </r>
       <r>  -10.8162    1.0000 </r>
       <r>   -3.7704    1.0000 </r>
       <r>    2.1085    1.0000 </r>
       <r>    2.9686    1.0000 </r>
       <r>    3.2230    1.0000 </r>
       <r>    3.8448    1.0000 </r>
       <r>    4.0132    1.0000 </r>
       <r>    4.1438    1.0000 </r>
       <r>    5.6967    1.0000 </r>
       <r>    5.9444    1.0000 </r>
       <r>    7.0505    1.0000 </r>
       <r>    8.4218    0.0000 </r>
       <r>    8.5569    0.0000 </r>
       <r>    9.0225    0.0000 </r>
       <r>    9.0763    0.0000 </r>
       <r>    9.1600    0.0000 </r>
      </set>
      <set comment="kpoint 17">
       <r>  -32.9689    1.0000 </r>
       <r>  -15.4438    1.0000 </r>
       <r>  -15.4410    1.0000 </r>
       <r>  -15.4121    1.0000 </r>
       <r>  -15.4104    1.0000 </r>
       <r>  -15.4103    1.0000 </r>
       <r>  -10.9177    1.0000 </r>
       <r>  -10.8357    1.0000 </r>
       <r>  -10.8194    1.0000 </r>
       <r>   -3.9434    1.0000 </r>
       <r>    2.3844    1.0000 </r>
       <r>    2.9991    1.0000 </r>
       <r>    3.3160    1.0000 </r>
       <r>    3.8735    1.0000 </r>
       <r>    4.0547    1.0000 </r>
       <r>    4.3866    1.0000 </r>
       <r>    5.6886    1.0000 </r>
       <r>    6.0466    1.0000 </r>
       <r>    6.9926    1.0000 </r>
       <r>    8.1751    0.0000 </r>
       <r>    8.3204    0.0000 </r>
       <r>    8.7840    0.0000 </r>
       <r>    9.1052    0.0000 </r>
       <r>    9.1521    0.0000 </r>
      </set>
      <set comment="kpoint 18">
       <r>  -32.9695    1.0000 </r>
       <r>  -15.4420    1.0000 </r>
       <r>  -15.4397    1.0000 </r>
       <r>  -15.4118    1.0000 </r>
       <r>  -15.4108    1.0000 </r>
       <r>  -15.4106    1.0000 </r>
       <r>  -10.8832    1.0000 </r>
       <r>  -10.8382    1.0000 </r>
       <r>  -10.8240    1.0000 </r>
       <r>   -4.1196    1.0000 </r>
       <r>    2.7183    1.0000 </r>
       <r>    3.0856    1.0000 </r>
       <r>    3.4245    1.0000 </r>
       <r>    3.8454    1.0000 </r>
       <r>    4.0266    1.0000 </r>
       <r>    4.6789    1.0000 </r>
       <r>    5.7817    1.0000 </r>
       <r>    6.2004    1.0000 </r>
       <r>    6.9371    1.0000 </r>
       <r>    7.9275    0.0000 </r>
       <r>    7.9472    0.0000 </r>
       <r>    8.4616    0.0000 </r>
       <r>    8.9663    0.0000 </r>
       <r>    9.1300    0.0000 </r>
      </set>
      <set comment="kpoint 19">
       <r>  -32.9701    1.0000 </r>
       <r>  -15.4403    1.0000 </r>
       <r>  -15.4389    1.0000 </r>
       <r>  -15.4115    1.0000 </r>
       <r>  -15.4111    1.0000 </r>
       <r>  -15.4110    1.0000 </r>
       <r>  -10.8561    1.0000 </r>
       <r>  -10.8374    1.0000 </r>
       <r>  -10.8290    1.0000 </r>
       <r>   -4.2587    1.0000 </r>
       <r>    3.0559    1.0000 </r>
       <r>    3.2202    1.0000 </r>
       <r>    3.4849    1.0000 </r>
       <r>    3.7923    1.0000 </r>
       <r>    3.9358    1.0000 </r>
       <r>    4.9274    1.0000 </r>
       <r>    6.0428    1.0000 </r>
       <r>    6.3434    1.0000 </r>
       <r>    6.7503    1.0000 </r>
       <r>    7.7075    0.0000 </r>
       <r>    7.7561    0.0000 </r>
       <r>    8.1218    0.0000 </r>
       <r>    8.7282    0.0000 </r>
       <r>    9.1256    0.0000 </r>
      </set>
      <set comment="kpoint 20">
       <r>  -32.9697    1.0000 </r>
       <r>  -15.4423    1.0000 </r>
       <r>  -15.4379    1.0000 </r>
       <r>  -15.4120    1.0000 </r>
       <r>  -15.4106    1.0000 </r>
       <r>  -15.4106    1.0000 </r>
       <r>  -10.8615    1.0000 </r>
       <r>  -10.8398    1.0000 </r>
       <r>  -10.8398    1.0000 </r>
       <r>   -4.1658    1.0000 </r>
       <r>    2.5888    1.0000 </r>
       <r>    3.5041    1.0000 </r>
       <r>    3.5041    1.0000 </r>
       <r>    3.8000    1.0000 </r>
       <r>    3.8496    1.0000 </r>
       <r>    4.8810    1.0000 </r>
       <r>    5.9636    1.0000 </r>
       <r>    5.9636    1.0000 </r>
       <r>    7.0359    1.0000 </r>
       <r>    7.3939    0.1302 </r>
       <r>    8.2848    0.0000 </r>
       <r>    8.2848    0.0000 </r>
       <r>    8.8860    0.0000 </r>
       <r>    9.0894    0.0000 </r>
      </set>
      <set comment="kpoint 21">
       <r>  -32.9692    1.0000 </r>
       <r>  -15.4434    1.0000 </r>
       <r>  -15.4381    1.0000 </r>
       <r>  -15.4123    1.0000 </r>
       <r>  -15.4103    1.0000 </r>
       <r>  -15.4102    1.0000 </r>
       <r>  -10.8844    1.0000 </r>
       <r>  -10.8409    1.0000 </r>
       <r>  -10.8374    1.0000 </r>
       <r>   -4.0540    1.0000 </r>
       <r>    2.3634    1.0000 </r>
       <r>    3.3945    1.0000 </r>
       <r>    3.4690    1.0000 </r>
       <r>    3.8502    1.0000 </r>
       <r>    3.8960    1.0000 </r>
       <r>    4.7306    1.0000 </r>
       <r>    5.7669    1.0000 </r>
       <r>    5.8542    1.0000 </r>
       <r>    7.2216    1.0000 </r>
       <r>    7.4808    0.0000 </r>
       <r>    8.4562    0.0000 </r>
       <r>    8.5171    0.0000 </r>
       <r>    9.0369    0.0000 </r>
       <r>    9.0742    0.0000 </r>
      </set>
      <set comment="kpoint 22">
       <r>  -32.9686    1.0000 </r>
       <r>  -15.4442    1.0000 </r>
       <r>  -15.4393    1.0000 </r>
       <r>  -15.4126    1.0000 </r>
       <r>  -15.4101    1.0000 </r>
       <r>  -15.4098    1.0000 </r>
       <r>  -10.9155    1.0000 </r>
       <r>  -10.8391    1.0000 </r>
       <r>  -10.8339    1.0000 </r>
       <r>   -3.9125    1.0000 </r>
       <r>    2.1965    1.0000 </r>
       <r>    3.2050    1.0000 </r>
       <r>    3.3965    1.0000 </r>
       <r>    3.8709    1.0000 </r>
       <r>    3.9656    1.0000 </r>
       <r>    4.4904    1.0000 </r>
       <r>    5.5758    1.0000 </r>
       <r>    5.8059    1.0000 </r>
       <r>    7.2625    1.0000 </r>
       <r>    7.8895    0.0000 </r>
       <r>    8.5944    0.0000 </r>
       <r>    8.7819    0.0000 </r>
       <r>    9.0622    0.0000 </r>
       <r>    9.1372    0.0000 </r>
      </set>
      <set comment="kpoint 23">
       <r>  -32.9680    1.0000 </r>
       <r>  -15.4446    1.0000 </r>
       <r>  -15.4410    1.0000 </r>
       <r>  -15.4127    1.0000 </r>
       <r>  -15.4099    1.0000 </r>
       <r>  -15.4094    1.0000 </r>
       <r>  -10.9442    1.0000 </r>
       <r>  -10.8346    1.0000 </r>
       <r>  -10.8331    1.0000 </r>
       <r>   -3.7745    1.0000 </r>
       <r>    2.0899    1.0000 </r>
       <r>    3.0655    1.0000 </r>
       <r>    3.3120    1.0000 </r>
       <r>    3.8550    1.0000 </r>
       <r>    3.9786    1.0000 </r>
       <r>    4.2478    1.0000 </r>
       <r>    5.4798    1.0000 </r>
       <r>    5.8013    1.0000 </r>
       <r>    7.2490    1.0000 </r>
       <r>    8.3308    0.0000 </r>
       <r>    8.6972    0.0000 </r>
       <r>    8.9653    0.0000 </r>
       <r>    9.0509    0.0000 </r>
       <r>    9.1648    0.0000 </r>
      </set>
      <set comment="kpoint 24">
       <r>  -32.9676    1.0000 </r>
       <r>  -15.4443    1.0000 </r>
       <r>  -15.4430    1.0000 </r>
       <r>  -15.4126    1.0000 </r>
       <r>  -15.4099    1.0000 </r>
       <r>  -15.4091    1.0000 </r>
       <r>  -10.9643    1.0000 </r>
       <r>  -10.8357    1.0000 </r>
       <r>  -10.8287    1.0000 </r>
       <r>   -3.6704    1.0000 </r>
       <r>    2.0299    1.0000 </r>
       <r>    3.0139    1.0000 </r>
       <r>    3.2063    1.0000 </r>
       <r>    3.8571    1.0000 </r>
       <r>    3.9371    1.0000 </r>
       <r>    4.0743    1.0000 </r>
       <r>    5.4479    1.0000 </r>
       <r>    5.8062    1.0000 </r>
       <r>    7.3000    1.0000 </r>
       <r>    8.5276    0.0000 </r>
       <r>    8.7602    0.0000 </r>
       <r>    8.9974    0.0000 </r>
       <r>    9.0354    0.0000 </r>
       <r>    9.1817    0.0000 </r>
      </set>
      <set comment="kpoint 25">
       <r>  -32.9674    1.0000 </r>
       <r>  -15.4447    1.0000 </r>
       <r>  -15.4436    1.0000 </r>
       <r>  -15.4125    1.0000 </r>
       <r>  -15.4099    1.0000 </r>
       <r>  -15.4091    1.0000 </r>
       <r>  -10.9723    1.0000 </r>
       <r>  -10.8406    1.0000 </r>
       <r>  -10.8225    1.0000 </r>
       <r>   -3.6211    1.0000 </r>
       <r>    2.0019    1.0000 </r>
       <r>    3.0500    1.0000 </r>
       <r>    3.0865    1.0000 </r>
       <r>    3.8729    1.0000 </r>
       <r>    3.9078    1.0000 </r>
       <r>    4.0027    1.0000 </r>
       <r>    5.4292    1.0000 </r>
       <r>    5.8064    1.0000 </r>
       <r>    7.3829    0.6638 </r>
       <r>    8.5216    0.0000 </r>
       <r>    8.7685    0.0000 </r>
       <r>    9.0202    0.0000 </r>
       <r>    9.0323    0.0000 </r>
       <r>    9.1558    0.0000 </r>
      </set>
      <set comment="kpoint 26">
       <r>  -32.9675    1.0000 </r>
       <r>  -15.4458    1.0000 </r>
       <r>  -15.4426    1.0000 </r>
       <r>  -15.4124    1.0000 </r>
       <r>  -15.4099    1.0000 </r>
       <r>  -15.4093    1.0000 </r>
       <r>  -10.9671    1.0000 </r>
       <r>  -10.8464    1.0000 </r>
       <r>  -10.8176    1.0000 </r>
       <r>   -3.6364    1.0000 </r>
       <r>    2.0080    1.0000 </r>
       <r>    2.9811    1.0000 </r>
       <r>    3.1507    1.0000 </r>
       <r>    3.8203    1.0000 </r>
       <r>    3.9927    1.0000 </r>
       <r>    4.0414    1.0000 </r>
       <r>    5.3851    1.0000 </r>
       <r>    5.8138    1.0000 </r>
       <r>    7.4107    0.0002 </r>
       <r>    8.5511    0.0000 </r>
       <r>    8.6913    0.0000 </r>
       <r>    9.0221    0.0000 </r>
       <r>    9.0453    0.0000 </r>
       <r>    9.1656    0.0000 </r>
      </set>
      <set comment="kpoint 27">
       <r>  -32.9678    1.0000 </r>
       <r>  -15.4460    1.0000 </r>
       <r>  -15.4414    1.0000 </r>
       <r>  -15.4122    1.0000 </r>
       <r>  -15.4100    1.0000 </r>
       <r>  -15.4097    1.0000 </r>
       <r>  -10.9503    1.0000 </r>
       <r>  -10.8511    1.0000 </r>
       <r>  -10.8150    1.0000 </r>
       <r>   -3.7147    1.0000 </r>
       <r>    2.0685    1.0000 </r>
       <r>    2.9168    1.0000 </r>
       <r>    3.2863    1.0000 </r>
       <r>    3.7985    1.0000 </r>
       <r>    4.0754    1.0000 </r>
       <r>    4.1794    1.0000 </r>
       <r>    5.3109    1.0000 </r>
       <r>    5.8546    1.0000 </r>
       <r>    7.3947    0.1075 </r>
       <r>    8.5205    0.0000 </r>
       <r>    8.5648    0.0000 </r>
       <r>    9.0287    0.0000 </r>
       <r>    9.0398    0.0000 </r>
       <r>    9.1913    0.0000 </r>
      </set>
      <set comment="kpoint 28">
       <r>  -32.9684    1.0000 </r>
       <r>  -15.4453    1.0000 </r>
       <r>  -15.4404    1.0000 </r>
       <r>  -15.4120    1.0000 </r>
       <r>  -15.4102    1.0000 </r>
       <r>  -15.4101    1.0000 </r>
       <r>  -10.9263    1.0000 </r>
       <r>  -10.8524    1.0000 </r>
       <r>  -10.8153    1.0000 </r>
       <r>   -3.8412    1.0000 </r>
       <r>    2.2070    1.0000 </r>
       <r>    2.9103    1.0000 </r>
       <r>    3.4236    1.0000 </r>
       <r>    3.7942    1.0000 </r>
       <r>    4.1172    1.0000 </r>
       <r>    4.3871    1.0000 </r>
       <r>    5.2632    1.0000 </r>
       <r>    5.9503    1.0000 </r>
       <r>    7.3830    0.6573 </r>
       <r>    8.2894    0.0000 </r>
       <r>    8.3899    0.0000 </r>
       <r>    8.9372    0.0000 </r>
       <r>    9.0632    0.0000 </r>
       <r>    9.1928    0.0000 </r>
      </set>
      <set comment="kpoint 29">
       <r>  -32.9690    1.0000 </r>
       <r>  -15.4439    1.0000 </r>
       <r>  -15.4397    1.0000 </r>
       <r>  -15.4119    1.0000 </r>
       <r>  -15.4105    1.0000 </r>
       <r>  -15.4104    1.0000 </r>
       <r>  -10.9017    1.0000 </r>
       <r>  -10.8481    1.0000 </r>
       <r>  -10.8186    1.0000 </r>
       <r>   -3.9880    1.0000 </r>
       <r>    2.4312    1.0000 </r>
       <r>    2.9679    1.0000 </r>
       <r>    3.5074    1.0000 </r>
       <r>    3.7886    1.0000 </r>
       <r>    4.0985    1.0000 </r>
       <r>    4.5751    1.0000 </r>
       <r>    5.3910    1.0000 </r>
       <r>    6.0875    1.0000 </r>
       <r>    7.2923    1.0000 </r>
       <r>    8.0641    0.0000 </r>
       <r>    8.0707    0.0000 </r>
       <r>    8.7496    0.0000 </r>
       <r>    9.0875    0.0000 </r>
       <r>    9.0950    0.0000 </r>
      </set>
      <set comment="kpoint 30">
       <r>  -32.9688    1.0000 </r>
       <r>  -15.4437    1.0000 </r>
       <r>  -15.4373    1.0000 </r>
       <r>  -15.4128    1.0000 </r>
       <r>  -15.4098    1.0000 </r>
       <r>  -15.4098    1.0000 </r>
       <r>  -10.8889    1.0000 </r>
       <r>  -10.8457    1.0000 </r>
       <r>  -10.8457    1.0000 </r>
       <r>   -3.9960    1.0000 </r>
       <r>    2.2042    1.0000 </r>
       <r>    3.5252    1.0000 </r>
       <r>    3.5252    1.0000 </r>
       <r>    3.7500    1.0000 </r>
       <r>    3.8642    1.0000 </r>
       <r>    4.7259    1.0000 </r>
       <r>    5.7640    1.0000 </r>
       <r>    5.7640    1.0000 </r>
       <r>    7.0182    1.0000 </r>
       <r>    7.6726    0.0000 </r>
       <r>    8.5849    0.0000 </r>
       <r>    8.5849    0.0000 </r>
       <r>    9.0412    0.0000 </r>
       <r>    9.0959    0.0000 </r>
      </set>
      <set comment="kpoint 31">
       <r>  -32.9683    1.0000 </r>
       <r>  -15.4436    1.0000 </r>
       <r>  -15.4375    1.0000 </r>
       <r>  -15.4131    1.0000 </r>
       <r>  -15.4095    1.0000 </r>
       <r>  -15.4094    1.0000 </r>
       <r>  -10.9094    1.0000 </r>
       <r>  -10.8471    1.0000 </r>
       <r>  -10.8463    1.0000 </r>
       <r>   -3.9092    1.0000 </r>
       <r>    2.1270    1.0000 </r>
       <r>    3.3848    1.0000 </r>
       <r>    3.4955    1.0000 </r>
       <r>    3.8029    1.0000 </r>
       <r>    3.8933    1.0000 </r>
       <r>    4.5974    1.0000 </r>
       <r>    5.5931    1.0000 </r>
       <r>    5.7326    1.0000 </r>
       <r>    7.1656    1.0000 </r>
       <r>    7.8475    0.0000 </r>
       <r>    8.6824    0.0000 </r>
       <r>    8.7313    0.0000 </r>
       <r>    9.0166    0.0000 </r>
       <r>    9.1181    0.0000 </r>
      </set>
      <set comment="kpoint 32">
       <r>  -32.9678    1.0000 </r>
       <r>  -15.4431    1.0000 </r>
       <r>  -15.4387    1.0000 </r>
       <r>  -15.4132    1.0000 </r>
       <r>  -15.4094    1.0000 </r>
       <r>  -15.4090    1.0000 </r>
       <r>  -10.9321    1.0000 </r>
       <r>  -10.8479    1.0000 </r>
       <r>  -10.8448    1.0000 </r>
       <r>   -3.8157    1.0000 </r>
       <r>    2.1350    1.0000 </r>
       <r>    3.1956    1.0000 </r>
       <r>    3.4198    1.0000 </r>
       <r>    3.8908    1.0000 </r>
       <r>    3.9009    1.0000 </r>
       <r>    4.4071    1.0000 </r>
       <r>    5.3639    1.0000 </r>
       <r>    5.7397    1.0000 </r>
       <r>    7.2952    1.0000 </r>
       <r>    8.2128    0.0000 </r>
       <r>    8.7564    0.0000 </r>
       <r>    8.8931    0.0000 </r>
       <r>    9.0129    0.0000 </r>
       <r>    9.1336    0.0000 </r>
      </set>
      <set comment="kpoint 33">
       <r>  -32.9674    1.0000 </r>
       <r>  -15.4423    1.0000 </r>
       <r>  -15.4405    1.0000 </r>
       <r>  -15.4130    1.0000 </r>
       <r>  -15.4095    1.0000 </r>
       <r>  -15.4087    1.0000 </r>
       <r>  -10.9484    1.0000 </r>
       <r>  -10.8537    1.0000 </r>
       <r>  -10.8393    1.0000 </r>
       <r>   -3.7351    1.0000 </r>
       <r>    2.1940    1.0000 </r>
       <r>    3.0702    1.0000 </r>
       <r>    3.3036    1.0000 </r>
       <r>    3.9202    1.0000 </r>
       <r>    3.9219    1.0000 </r>
       <r>    4.2257    1.0000 </r>
       <r>    5.2049    1.0000 </r>
       <r>    5.7440    1.0000 </r>
       <r>    7.3565    1.0000 </r>
       <r>    8.4855    0.0000 </r>
       <r>    8.8111    0.0000 </r>
       <r>    8.9628    0.0000 </r>
       <r>    9.0160    0.0000 </r>
       <r>    9.1912    0.0000 </r>
      </set>
      <set comment="kpoint 34">
       <r>  -32.9672    1.0000 </r>
       <r>  -15.4426    1.0000 </r>
       <r>  -15.4414    1.0000 </r>
       <r>  -15.4126    1.0000 </r>
       <r>  -15.4098    1.0000 </r>
       <r>  -15.4087    1.0000 </r>
       <r>  -10.9548    1.0000 </r>
       <r>  -10.8627    1.0000 </r>
       <r>  -10.8319    1.0000 </r>
       <r>   -3.6811    1.0000 </r>
       <r>    2.2359    1.0000 </r>
       <r>    3.0362    1.0000 </r>
       <r>    3.1629    1.0000 </r>
       <r>    3.8825    1.0000 </r>
       <r>    3.9741    1.0000 </r>
       <r>    4.1400    1.0000 </r>
       <r>    5.1119    1.0000 </r>
       <r>    5.7314    1.0000 </r>
       <r>    7.4602    0.0000 </r>
       <r>    8.4681    0.0000 </r>
       <r>    8.8383    0.0000 </r>
       <r>    9.0047    0.0000 </r>
       <r>    9.0073    0.0000 </r>
       <r>    9.1702    0.0000 </r>
      </set>
      <set comment="kpoint 35">
       <r>  -32.9672    1.0000 </r>
       <r>  -15.4445    1.0000 </r>
       <r>  -15.4407    1.0000 </r>
       <r>  -15.4121    1.0000 </r>
       <r>  -15.4102    1.0000 </r>
       <r>  -15.4089    1.0000 </r>
       <r>  -10.9516    1.0000 </r>
       <r>  -10.8716    1.0000 </r>
       <r>  -10.8243    1.0000 </r>
       <r>   -3.6621    1.0000 </r>
       <r>    2.2093    1.0000 </r>
       <r>    3.0292    1.0000 </r>
       <r>    3.0948    1.0000 </r>
       <r>    3.8337    1.0000 </r>
       <r>    4.0495    1.0000 </r>
       <r>    4.1637    1.0000 </r>
       <r>    5.0440    1.0000 </r>
       <r>    5.7217    1.0000 </r>
       <r>    7.5799    0.0000 </r>
       <r>    8.4257    0.0000 </r>
       <r>    8.8017    0.0000 </r>
       <r>    8.9990    0.0000 </r>
       <r>    9.0359    0.0000 </r>
       <r>    9.1595    0.0000 </r>
      </set>
      <set comment="kpoint 36">
       <r>  -32.9674    1.0000 </r>
       <r>  -15.4457    1.0000 </r>
       <r>  -15.4402    1.0000 </r>
       <r>  -15.4117    1.0000 </r>
       <r>  -15.4105    1.0000 </r>
       <r>  -15.4093    1.0000 </r>
       <r>  -10.9424    1.0000 </r>
       <r>  -10.8753    1.0000 </r>
       <r>  -10.8181    1.0000 </r>
       <r>   -3.6840    1.0000 </r>
       <r>    2.1472    1.0000 </r>
       <r>    2.9311    1.0000 </r>
       <r>    3.2162    1.0000 </r>
       <r>    3.8078    1.0000 </r>
       <r>    4.1153    1.0000 </r>
       <r>    4.2722    1.0000 </r>
       <r>    4.9825    1.0000 </r>
       <r>    5.7479    1.0000 </r>
       <r>    7.6342    0.0000 </r>
       <r>    8.4611    0.0000 </r>
       <r>    8.6713    0.0000 </r>
       <r>    9.0113    0.0000 </r>
       <r>    9.0532    0.0000 </r>
       <r>    9.1708    0.0000 </r>
      </set>
      <set comment="kpoint 37">
       <r>  -32.9679    1.0000 </r>
       <r>  -15.4460    1.0000 </r>
       <r>  -15.4401    1.0000 </r>
       <r>  -15.4118    1.0000 </r>
       <r>  -15.4103    1.0000 </r>
       <r>  -15.4097    1.0000 </r>
       <r>  -10.9334    1.0000 </r>
       <r>  -10.8684    1.0000 </r>
       <r>  -10.8149    1.0000 </r>
       <r>   -3.7472    1.0000 </r>
       <r>    2.1285    1.0000 </r>
       <r>    2.8880    1.0000 </r>
       <r>    3.3547    1.0000 </r>
       <r>    3.7911    1.0000 </r>
       <r>    4.1413    1.0000 </r>
       <r>    4.3797    1.0000 </r>
       <r>    5.0085    1.0000 </r>
       <r>    5.8303    1.0000 </r>
       <r>    7.5925    0.0000 </r>
       <r>    8.4493    0.0000 </r>
       <r>    8.4794    0.0000 </r>
       <r>    9.0273    0.0000 </r>
       <r>    9.0342    0.0000 </r>
       <r>    9.2024    0.0000 </r>
      </set>
      <set comment="kpoint 38">
       <r>  -32.9680    1.0000 </r>
       <r>  -15.4425    1.0000 </r>
       <r>  -15.4367    1.0000 </r>
       <r>  -15.4136    1.0000 </r>
       <r>  -15.4090    1.0000 </r>
       <r>  -15.4090    1.0000 </r>
       <r>  -10.9174    1.0000 </r>
       <r>  -10.8522    1.0000 </r>
       <r>  -10.8522    1.0000 </r>
       <r>   -3.8820    1.0000 </r>
       <r>    2.1313    1.0000 </r>
       <r>    3.5143    1.0000 </r>
       <r>    3.5143    1.0000 </r>
       <r>    3.6040    1.0000 </r>
       <r>    3.9353    1.0000 </r>
       <r>    4.5384    1.0000 </r>
       <r>    5.7167    1.0000 </r>
       <r>    5.7167    1.0000 </r>
       <r>    7.0196    1.0000 </r>
       <r>    7.9672    0.0000 </r>
       <r>    8.7483    0.0000 </r>
       <r>    8.7483    0.0000 </r>
       <r>    8.9656    0.0000 </r>
       <r>    9.0892    0.0000 </r>
      </set>
      <set comment="kpoint 39">
       <r>  -32.9675    1.0000 </r>
       <r>  -15.4412    1.0000 </r>
       <r>  -15.4369    1.0000 </r>
       <r>  -15.4139    1.0000 </r>
       <r>  -15.4087    1.0000 </r>
       <r>  -15.4086    1.0000 </r>
       <r>  -10.9319    1.0000 </r>
       <r>  -10.8557    1.0000 </r>
       <r>  -10.8531    1.0000 </r>
       <r>   -3.8407    1.0000 </r>
       <r>    2.2221    1.0000 </r>
       <r>    3.3351    1.0000 </r>
       <r>    3.4748    1.0000 </r>
       <r>    3.7015    1.0000 </r>
       <r>    3.9596    1.0000 </r>
       <r>    4.3963    1.0000 </r>
       <r>    5.5717    1.0000 </r>
       <r>    5.7373    1.0000 </r>
       <r>    7.1602    1.0000 </r>
       <r>    8.1805    0.0000 </r>
       <r>    8.7992    0.0000 </r>
       <r>    8.8323    0.0000 </r>
       <r>    8.9493    0.0000 </r>
       <r>    9.0599    0.0000 </r>
      </set>
      <set comment="kpoint 40">
       <r>  -32.9672    1.0000 </r>
       <r>  -15.4400    1.0000 </r>
       <r>  -15.4382    1.0000 </r>
       <r>  -15.4138    1.0000 </r>
       <r>  -15.4087    1.0000 </r>
       <r>  -15.4083    1.0000 </r>
       <r>  -10.9418    1.0000 </r>
       <r>  -10.8640    1.0000 </r>
       <r>  -10.8497    1.0000 </r>
       <r>   -3.7938    1.0000 </r>
       <r>    2.3684    1.0000 </r>
       <r>    3.1640    1.0000 </r>
       <r>    3.3853    1.0000 </r>
       <r>    3.8145    1.0000 </r>
       <r>    3.9828    1.0000 </r>
       <r>    4.2408    1.0000 </r>
       <r>    5.2816    1.0000 </r>
       <r>    5.7415    1.0000 </r>
       <r>    7.2963    1.0000 </r>
       <r>    8.4926    0.0000 </r>
       <r>    8.8419    0.0000 </r>
       <r>    8.9188    0.0000 </r>
       <r>    8.9782    0.0000 </r>
       <r>    9.1436    0.0000 </r>
      </set>
      <set comment="kpoint 41">
       <r>  -32.9670    1.0000 </r>
       <r>  -15.4402    1.0000 </r>
       <r>  -15.4392    1.0000 </r>
       <r>  -15.4133    1.0000 </r>
       <r>  -15.4092    1.0000 </r>
       <r>  -15.4083    1.0000 </r>
       <r>  -10.9424    1.0000 </r>
       <r>  -10.8778    1.0000 </r>
       <r>  -10.8428    1.0000 </r>
       <r>   -3.7477    1.0000 </r>
       <r>    2.4896    1.0000 </r>
       <r>    3.0617    1.0000 </r>
       <r>    3.2582    1.0000 </r>
       <r>    3.8493    1.0000 </r>
       <r>    4.0260    1.0000 </r>
       <r>    4.1759    1.0000 </r>
       <r>    5.0144    1.0000 </r>
       <r>    5.7108    1.0000 </r>
       <r>    7.4073    0.0013 </r>
       <r>    8.5242    0.0000 </r>
       <r>    8.8753    0.0000 </r>
       <r>    8.9537    0.0000 </r>
       <r>    9.0031    0.0000 </r>
       <r>    9.1643    0.0000 </r>
      </set>
      <set comment="kpoint 42">
       <r>  -32.9669    1.0000 </r>
       <r>  -15.4424    1.0000 </r>
       <r>  -15.4389    1.0000 </r>
       <r>  -15.4125    1.0000 </r>
       <r>  -15.4098    1.0000 </r>
       <r>  -15.4085    1.0000 </r>
       <r>  -10.9347    1.0000 </r>
       <r>  -10.8933    1.0000 </r>
       <r>  -10.8339    1.0000 </r>
       <r>   -3.7083    1.0000 </r>
       <r>    2.4727    1.0000 </r>
       <r>    3.0461    1.0000 </r>
       <r>    3.1213    1.0000 </r>
       <r>    3.8224    1.0000 </r>
       <r>    4.0796    1.0000 </r>
       <r>    4.2421    1.0000 </r>
       <r>    4.8377    1.0000 </r>
       <r>    5.6758    1.0000 </r>
       <r>    7.5583    0.0000 </r>
       <r>    8.4334    0.0000 </r>
       <r>    8.8825    0.0000 </r>
       <r>    8.9761    0.0000 </r>
       <r>    8.9953    0.0000 </r>
       <r>    9.1883    0.0000 </r>
      </set>
      <set comment="kpoint 43">
       <r>  -32.9671    1.0000 </r>
       <r>  -15.4444    1.0000 </r>
       <r>  -15.4393    1.0000 </r>
       <r>  -15.4117    1.0000 </r>
       <r>  -15.4105    1.0000 </r>
       <r>  -15.4088    1.0000 </r>
       <r>  -10.9321    1.0000 </r>
       <r>  -10.8951    1.0000 </r>
       <r>  -10.8249    1.0000 </r>
       <r>   -3.6838    1.0000 </r>
       <r>    2.3152    1.0000 </r>
       <r>    3.0045    1.0000 </r>
       <r>    3.1127    1.0000 </r>
       <r>    3.8145    1.0000 </r>
       <r>    4.1167    1.0000 </r>
       <r>    4.3159    1.0000 </r>
       <r>    4.8030    1.0000 </r>
       <r>    5.6810    1.0000 </r>
       <r>    7.6824    0.0000 </r>
       <r>    8.3971    0.0000 </r>
       <r>    8.8128    0.0000 </r>
       <r>    8.9921    0.0000 </r>
       <r>    9.0151    0.0000 </r>
       <r>    9.1578    0.0000 </r>
      </set>
      <set comment="kpoint 44">
       <r>  -32.9673    1.0000 </r>
       <r>  -15.4394    1.0000 </r>
       <r>  -15.4361    1.0000 </r>
       <r>  -15.4143    1.0000 </r>
       <r>  -15.4082    1.0000 </r>
       <r>  -15.4082    1.0000 </r>
       <r>  -10.9409    1.0000 </r>
       <r>  -10.8577    1.0000 </r>
       <r>  -10.8577    1.0000 </r>
       <r>   -3.8473    1.0000 </r>
       <r>    2.3711    1.0000 </r>
       <r>    3.4744    1.0000 </r>
       <r>    3.4805    1.0000 </r>
       <r>    3.4805    1.0000 </r>
       <r>    3.9969    1.0000 </r>
       <r>    4.2595    1.0000 </r>
       <r>    5.7796    1.0000 </r>
       <r>    5.7796    1.0000 </r>
       <r>    7.0879    1.0000 </r>
       <r>    8.2139    0.0000 </r>
       <r>    8.8315    0.0000 </r>
       <r>    8.8315    0.0000 </r>
       <r>    8.8865    0.0000 </r>
       <r>    8.9783    0.0000 </r>
      </set>
      <set comment="kpoint 45">
       <r>  -32.9670    1.0000 </r>
       <r>  -15.4380    1.0000 </r>
       <r>  -15.4365    1.0000 </r>
       <r>  -15.4144    1.0000 </r>
       <r>  -15.4081    1.0000 </r>
       <r>  -15.4079    1.0000 </r>
       <r>  -10.9476    1.0000 </r>
       <r>  -10.8628    1.0000 </r>
       <r>  -10.8575    1.0000 </r>
       <r>   -3.8351    1.0000 </r>
       <r>    2.5556    1.0000 </r>
       <r>    3.2806    1.0000 </r>
       <r>    3.4384    1.0000 </r>
       <r>    3.6310    1.0000 </r>
       <r>    4.0191    1.0000 </r>
       <r>    4.0944    1.0000 </r>
       <r>    5.6325    1.0000 </r>
       <r>    5.8001    1.0000 </r>
       <r>    7.1944    1.0000 </r>
       <r>    8.4557    0.0000 </r>
       <r>    8.8579    0.0000 </r>
       <r>    8.8750    0.0000 </r>
       <r>    8.9001    0.0000 </r>
       <r>    8.9080    0.0000 </r>
      </set>
      <set comment="kpoint 46">
       <r>  -32.9668    1.0000 </r>
       <r>  -15.4379    1.0000 </r>
       <r>  -15.4374    1.0000 </r>
       <r>  -15.4141    1.0000 </r>
       <r>  -15.4084    1.0000 </r>
       <r>  -15.4079    1.0000 </r>
       <r>  -10.9456    1.0000 </r>
       <r>  -10.8750    1.0000 </r>
       <r>  -10.8526    1.0000 </r>
       <r>   -3.8050    1.0000 </r>
       <r>    2.6972    1.0000 </r>
       <r>    3.1362    1.0000 </r>
       <r>    3.3514    1.0000 </r>
       <r>    3.7631    1.0000 </r>
       <r>    4.0073    1.0000 </r>
       <r>    4.0464    1.0000 </r>
       <r>    5.2814    1.0000 </r>
       <r>    5.7607    1.0000 </r>
       <r>    7.3003    1.0000 </r>
       <r>    8.6305    0.0000 </r>
       <r>    8.8807    0.0000 </r>
       <r>    8.9114    0.0000 </r>
       <r>    8.9703    0.0000 </r>
       <r>    9.0937    0.0000 </r>
      </set>
      <set comment="kpoint 47">
       <r>  -32.9668    1.0000 </r>
       <r>  -15.4400    1.0000 </r>
       <r>  -15.4377    1.0000 </r>
       <r>  -15.4134    1.0000 </r>
       <r>  -15.4090    1.0000 </r>
       <r>  -15.4081    1.0000 </r>
       <r>  -10.9357    1.0000 </r>
       <r>  -10.8913    1.0000 </r>
       <r>  -10.8441    1.0000 </r>
       <r>   -3.7602    1.0000 </r>
       <r>    2.6796    1.0000 </r>
       <r>    3.0508    1.0000 </r>
       <r>    3.2371    1.0000 </r>
       <r>    3.7980    1.0000 </r>
       <r>    4.0741    1.0000 </r>
       <r>    4.1271    1.0000 </r>
       <r>    4.9529    1.0000 </r>
       <r>    5.6984    1.0000 </r>
       <r>    7.4238    0.0000 </r>
       <r>    8.5376    0.0000 </r>
       <r>    8.8964    0.0000 </r>
       <r>    8.9327    0.0000 </r>
       <r>    9.0054    0.0000 </r>
       <r>    9.1484    0.0000 </r>
      </set>
      <set comment="kpoint 48">
       <r>  -32.9669    1.0000 </r>
       <r>  -15.4367    1.0000 </r>
       <r>  -15.4358    1.0000 </r>
       <r>  -15.4147    1.0000 </r>
       <r>  -15.4077    1.0000 </r>
       <r>  -15.4077    1.0000 </r>
       <r>  -10.9541    1.0000 </r>
       <r>  -10.8609    1.0000 </r>
       <r>  -10.8609    1.0000 </r>
       <r>   -3.8521    1.0000 </r>
       <r>    2.7248    1.0000 </r>
       <r>    3.4079    1.0000 </r>
       <r>    3.4530    1.0000 </r>
       <r>    3.4530    1.0000 </r>
       <r>    3.9364    1.0000 </r>
       <r>    4.0328    1.0000 </r>
       <r>    5.8541    1.0000 </r>
       <r>    5.8541    1.0000 </r>
       <r>    7.1643    1.0000 </r>
       <r>    8.3752    0.0000 </r>
       <r>    8.7987    0.0000 </r>
       <r>    8.8367    0.0000 </r>
       <r>    8.8705    0.0000 </r>
       <r>    8.8705    0.0000 </r>
      </set>
      <set comment="kpoint 49">
       <r>  -32.9668    1.0000 </r>
       <r>  -15.4365    1.0000 </r>
       <r>  -15.4364    1.0000 </r>
       <r>  -15.4146    1.0000 </r>
       <r>  -15.4078    1.0000 </r>
       <r>  -15.4077    1.0000 </r>
       <r>  -10.9533    1.0000 </r>
       <r>  -10.8654    1.0000 </r>
       <r>  -10.8591    1.0000 </r>
       <r>   -3.8417    1.0000 </r>
       <r>    2.7911    1.0000 </r>
       <r>    3.2596    1.0000 </r>
       <r>    3.4220    1.0000 </r>
       <r>    3.6134    1.0000 </r>
       <r>    3.8799    1.0000 </r>
       <r>    4.0424    1.0000 </r>
       <r>    5.6700    1.0000 </r>
       <r>    5.8346    1.0000 </r>
       <r>    7.2154    1.0000 </r>
       <r>    8.6392    0.0000 </r>
       <r>    8.7300    0.0000 </r>
       <r>    8.8686    0.0000 </r>
       <r>    8.8893    0.0000 </r>
       <r>    8.8923    0.0000 </r>
      </set>
      <set comment="kpoint 50">
       <r>  -32.9695    1.0000 </r>
       <r>  -15.4426    1.0000 </r>
       <r>  -15.4388    1.0000 </r>
       <r>  -15.4120    1.0000 </r>
       <r>  -15.4106    1.0000 </r>
       <r>  -15.4106    1.0000 </r>
       <r>  -10.8782    1.0000 </r>
       <r>  -10.8420    1.0000 </r>
       <r>  -10.8281    1.0000 </r>
       <r>   -4.1150    1.0000 </r>
       <r>    2.5779    1.0000 </r>
       <r>    3.2273    1.0000 </r>
       <r>    3.5091    1.0000 </r>
       <r>    3.8042    1.0000 </r>
       <r>    3.9881    1.0000 </r>
       <r>    4.7531    1.0000 </r>
       <r>    5.7177    1.0000 </r>
       <r>    6.0864    1.0000 </r>
       <r>    7.1950    1.0000 </r>
       <r>    7.4969    0.0000 </r>
       <r>    8.1974    0.0000 </r>
       <r>    8.4774    0.0000 </r>
       <r>    8.9648    0.0000 </r>
       <r>    9.0963    0.0000 </r>
      </set>
      <set comment="kpoint 51">
       <r>  -32.9689    1.0000 </r>
       <r>  -15.4440    1.0000 </r>
       <r>  -15.4396    1.0000 </r>
       <r>  -15.4122    1.0000 </r>
       <r>  -15.4103    1.0000 </r>
       <r>  -15.4102    1.0000 </r>
       <r>  -10.9062    1.0000 </r>
       <r>  -10.8443    1.0000 </r>
       <r>  -10.8232    1.0000 </r>
       <r>   -3.9675    1.0000 </r>
       <r>    2.3355    1.0000 </r>
       <r>    3.0814    1.0000 </r>
       <r>    3.4523    1.0000 </r>
       <r>    3.8275    1.0000 </r>
       <r>    4.0458    1.0000 </r>
       <r>    4.5388    1.0000 </r>
       <r>    5.4986    1.0000 </r>
       <r>    5.9846    1.0000 </r>
       <r>    7.2717    1.0000 </r>
       <r>    7.8475    0.0000 </r>
       <r>    8.3936    0.0000 </r>
       <r>    8.7421    0.0000 </r>
       <r>    9.0817    0.0000 </r>
       <r>    9.1157    0.0000 </r>
      </set>
      <set comment="kpoint 52">
       <r>  -32.9683    1.0000 </r>
       <r>  -15.4451    1.0000 </r>
       <r>  -15.4409    1.0000 </r>
       <r>  -15.4123    1.0000 </r>
       <r>  -15.4101    1.0000 </r>
       <r>  -15.4098    1.0000 </r>
       <r>  -10.9365    1.0000 </r>
       <r>  -10.8426    1.0000 </r>
       <r>  -10.8202    1.0000 </r>
       <r>   -3.8129    1.0000 </r>
       <r>    2.1451    1.0000 </r>
       <r>    2.9917    1.0000 </r>
       <r>    3.3456    1.0000 </r>
       <r>    3.8283    1.0000 </r>
       <r>    4.0448    1.0000 </r>
       <r>    4.2897    1.0000 </r>
       <r>    5.4556    1.0000 </r>
       <r>    5.8940    1.0000 </r>
       <r>    7.2535    1.0000 </r>
       <r>    8.2593    0.0000 </r>
[...]
       <r>    7.7805    0.0000 </r>
       <r>    8.2494    0.0000 </r>
       <r>    8.8653    0.0000 </r>
       <r>    8.9256    0.0000 </r>
       <r>    9.0172    0.0000 </r>
       <r>    9.1609    0.0000 </r>
      </set>
      <set comment="kpoint 81">
       <r>  -32.9670    1.0000 </r>
       <r>  -15.4432    1.0000 </r>
       <r>  -15.4382    1.0000 </r>
       <r>  -15.4120    1.0000 </r>
       <r>  -15.4107    1.0000 </r>
       <r>  -15.4082    1.0000 </r>
       <r>  -10.9308    1.0000 </r>
       <r>  -10.8902    1.0000 </r>
       <r>  -10.8384    1.0000 </r>
       <r>   -3.7130    1.0000 </r>
       <r>    2.4418    1.0000 </r>
       <r>    2.9370    1.0000 </r>
       <r>    3.3093    1.0000 </r>
       <r>    3.8753    1.0000 </r>
       <r>    4.0417    1.0000 </r>
       <r>    4.2689    1.0000 </r>
       <r>    4.6413    1.0000 </r>
       <r>    5.8128    1.0000 </r>
       <r>    7.7855    0.0000 </r>
       <r>    8.2467    0.0000 </r>
       <r>    8.8457    0.0000 </r>
       <r>    8.9309    0.0000 </r>
       <r>    9.0271    0.0000 </r>
       <r>    9.1435    0.0000 </r>
      </set>
      <set comment="kpoint 82">
       <r>  -32.9668    1.0000 </r>
       <r>  -15.4403    1.0000 </r>
       <r>  -15.4365    1.0000 </r>
       <r>  -15.4134    1.0000 </r>
       <r>  -15.4093    1.0000 </r>
       <r>  -15.4077    1.0000 </r>
       <r>  -10.9373    1.0000 </r>
       <r>  -10.8783    1.0000 </r>
       <r>  -10.8570    1.0000 </r>
       <r>   -3.7766    1.0000 </r>
       <r>    2.7096    1.0000 </r>
       <r>    2.9990    1.0000 </r>
       <r>    3.4288    1.0000 </r>
       <r>    3.8435    1.0000 </r>
       <r>    4.0055    1.0000 </r>
       <r>    4.0735    1.0000 </r>
       <r>    4.7940    1.0000 </r>
       <r>    5.9108    1.0000 </r>
       <r>    7.5331    0.0000 </r>
       <r>    8.4896    0.0000 </r>
       <r>    8.7938    0.0000 </r>
       <r>    8.8655    0.0000 </r>
       <r>    8.9649    0.0000 </r>
       <r>    9.1660    0.0000 </r>
      </set>
      <set comment="kpoint 83">
       <r>  -32.9668    1.0000 </r>
       <r>  -15.4415    1.0000 </r>
       <r>  -15.4365    1.0000 </r>
       <r>  -15.4127    1.0000 </r>
       <r>  -15.4101    1.0000 </r>
       <r>  -15.4077    1.0000 </r>
       <r>  -10.9284    1.0000 </r>
       <r>  -10.8900    1.0000 </r>
       <r>  -10.8541    1.0000 </r>
       <r>   -3.7522    1.0000 </r>
       <r>    2.7385    1.0000 </r>
       <r>    2.9338    1.0000 </r>
       <r>    3.3938    1.0000 </r>
       <r>    3.8659    1.0000 </r>
       <r>    4.0456    1.0000 </r>
       <r>    4.1365    1.0000 </r>
       <r>    4.5320    1.0000 </r>
       <r>    5.9049    1.0000 </r>
       <r>    7.6897    0.0000 </r>
       <r>    8.3736    0.0000 </r>
       <r>    8.8433    0.0000 </r>
       <r>    8.8633    0.0000 </r>
       <r>    8.9946    0.0000 </r>
       <r>    9.1531    0.0000 </r>
      </set>
      <set comment="kpoint 84">
       <r>  -32.9668    1.0000 </r>
       <r>  -15.4421    1.0000 </r>
       <r>  -15.4365    1.0000 </r>
       <r>  -15.4121    1.0000 </r>
       <r>  -15.4108    1.0000 </r>
       <r>  -15.4077    1.0000 </r>
       <r>  -10.9237    1.0000 </r>
       <r>  -10.8931    1.0000 </r>
       <r>  -10.8546    1.0000 </r>
       <r>   -3.7405    1.0000 </r>
       <r>    2.7171    1.0000 </r>
       <r>    2.9038    1.0000 </r>
       <r>    3.4060    1.0000 </r>
       <r>    3.9072    1.0000 </r>
       <r>    4.0695    1.0000 </r>
       <r>    4.1738    1.0000 </r>
       <r>    4.3635    1.0000 </r>
       <r>    5.9246    1.0000 </r>
       <r>    7.8739    0.0000 </r>
       <r>    8.2145    0.0000 </r>
       <r>    8.8250    0.0000 </r>
       <r>    8.8636    0.0000 </r>
       <r>    9.0188    0.0000 </r>
       <r>    9.1453    0.0000 </r>
      </set>
     </set>
    </set>
   </array>
  </eigenvalues>
  <separator name="orbital magnetization" >
   <v name="MAGDIPOLOUT">      0.00000000      0.00000000      0.00000000</v>
  </separator>
  <dos>
   <i name="efermi">      7.38590302 </i>
   <total>
    <array>
     <dimension dim="1">gridpoints</dimension>
     <dimension dim="2">spin</dimension>
     <field>energy</field>
     <field>total</field>
     <field>integrated</field>
     <set>
      <set comment="spin 1">
       <r>   -35.0792     0.0000     0.0000 </r>
       <r>   -34.9245     0.0000     0.0000 </r>
       <r>   -34.7699     0.0000     0.0000 </r>
       <r>   -34.6152     0.0000     0.0000 </r>
       <r>   -34.4606     0.0000     0.0000 </r>
       <r>   -34.3060     0.0000     0.0000 </r>
       <r>   -34.1513     0.0000     0.0000 </r>
       <r>   -33.9967     0.0000     0.0000 </r>
       <r>   -33.8421     0.0000     0.0000 </r>
       <r>   -33.6874     0.0000     0.0000 </r>
       <r>   -33.5328     0.0000     0.0000 </r>
       <r>   -33.3782     0.0000     0.0000 </r>
       <r>   -33.2235     0.0000     0.0000 </r>
       <r>   -33.0689     0.0000     0.0000 </r>
       <r>   -32.9143    12.9337     2.0000 </r>
       <r>   -32.7596     0.0000     2.0000 </r>
       <r>   -32.6050     0.0000     2.0000 </r>
       <r>   -32.4504     0.0000     2.0000 </r>
       <r>   -32.2957     0.0000     2.0000 </r>
       <r>   -32.1411     0.0000     2.0000 </r>
       <r>   -31.9865     0.0000     2.0000 </r>
       <r>   -31.8318     0.0000     2.0000 </r>
       <r>   -31.6772     0.0000     2.0000 </r>
       <r>   -31.5226     0.0000     2.0000 </r>
       <r>   -31.3679     0.0000     2.0000 </r>
       <r>   -31.2133     0.0000     2.0000 </r>
       <r>   -31.0587     0.0000     2.0000 </r>
       <r>   -30.9040     0.0000     2.0000 </r>
       <r>   -30.7494     0.0000     2.0000 </r>
       <r>   -30.5948     0.0000     2.0000 </r>
       <r>   -30.4401     0.0000     2.0000 </r>
       <r>   -30.2855     0.0000     2.0000 </r>
       <r>   -30.1309     0.0000     2.0000 </r>
       <r>   -29.9762     0.0000     2.0000 </r>
       <r>   -29.8216     0.0000     2.0000 </r>
       <r>   -29.6669     0.0000     2.0000 </r>
       <r>   -29.5123     0.0000     2.0000 </r>
       <r>   -29.3577     0.0000     2.0000 </r>
       <r>   -29.2030     0.0000     2.0000 </r>
       <r>   -29.0484     0.0000     2.0000 </r>
       <r>   -28.8938     0.0000     2.0000 </r>
       <r>   -28.7391     0.0000     2.0000 </r>
       <r>   -28.5845     0.0000     2.0000 </r>
       <r>   -28.4299     0.0000     2.0000 </r>
       <r>   -28.2752     0.0000     2.0000 </r>
       <r>   -28.1206     0.0000     2.0000 </r>
       <r>   -27.9660     0.0000     2.0000 </r>
       <r>   -27.8113     0.0000     2.0000 </r>
       <r>   -27.6567     0.0000     2.0000 </r>
       <r>   -27.5021     0.0000     2.0000 </r>
       <r>   -27.3474     0.0000     2.0000 </r>
       <r>   -27.1928     0.0000     2.0000 </r>
       <r>   -27.0382     0.0000     2.0000 </r>
       <r>   -26.8835     0.0000     2.0000 </r>
       <r>   -26.7289     0.0000     2.0000 </r>
       <r>   -26.5743     0.0000     2.0000 </r>
       <r>   -26.4196     0.0000     2.0000 </r>
       <r>   -26.2650     0.0000     2.0000 </r>
       <r>   -26.1104     0.0000     2.0000 </r>
       <r>   -25.9557     0.0000     2.0000 </r>
       <r>   -25.8011     0.0000     2.0000 </r>
       <r>   -25.6465     0.0000     2.0000 </r>
       <r>   -25.4918     0.0000     2.0000 </r>
       <r>   -25.3372     0.0000     2.0000 </r>
       <r>   -25.1826     0.0000     2.0000 </r>
       <r>   -25.0279     0.0000     2.0000 </r>
       <r>   -24.8733     0.0000     2.0000 </r>
       <r>   -24.7186     0.0000     2.0000 </r>
       <r>   -24.5640     0.0000     2.0000 </r>
       <r>   -24.4094     0.0000     2.0000 </r>
       <r>   -24.2547     0.0000     2.0000 </r>
       <r>   -24.1001     0.0000     2.0000 </r>
       <r>   -23.9455     0.0000     2.0000 </r>
       <r>   -23.7908     0.0000     2.0000 </r>
       <r>   -23.6362     0.0000     2.0000 </r>
       <r>   -23.4816     0.0000     2.0000 </r>
       <r>   -23.3269     0.0000     2.0000 </r>
       <r>   -23.1723     0.0000     2.0000 </r>
       <r>   -23.0177     0.0000     2.0000 </r>
       <r>   -22.8630     0.0000     2.0000 </r>
       <r>   -22.7084     0.0000     2.0000 </r>
       <r>   -22.5538     0.0000     2.0000 </r>
       <r>   -22.3991     0.0000     2.0000 </r>
       <r>   -22.2445     0.0000     2.0000 </r>
       <r>   -22.0899     0.0000     2.0000 </r>
       <r>   -21.9352     0.0000     2.0000 </r>
       <r>   -21.7806     0.0000     2.0000 </r>
       <r>   -21.6260     0.0000     2.0000 </r>
       <r>   -21.4713     0.0000     2.0000 </r>
       <r>   -21.3167     0.0000     2.0000 </r>
       <r>   -21.1621     0.0000     2.0000 </r>
       <r>   -21.0074     0.0000     2.0000 </r>
       <r>   -20.8528     0.0000     2.0000 </r>
       <r>   -20.6982     0.0000     2.0000 </r>
       <r>   -20.5435     0.0000     2.0000 </r>
       <r>   -20.3889     0.0000     2.0000 </r>
       <r>   -20.2343     0.0000     2.0000 </r>
       <r>   -20.0796     0.0000     2.0000 </r>
       <r>   -19.9250     0.0000     2.0000 </r>
       <r>   -19.7703     0.0000     2.0000 </r>
       <r>   -19.6157     0.0000     2.0000 </r>
       <r>   -19.4611     0.0000     2.0000 </r>
       <r>   -19.3064     0.0000     2.0000 </r>
       <r>   -19.1518     0.0000     2.0000 </r>
       <r>   -18.9972     0.0000     2.0000 </r>
       <r>   -18.8425     0.0000     2.0000 </r>
       <r>   -18.6879     0.0000     2.0000 </r>
       <r>   -18.5333     0.0000     2.0000 </r>
       <r>   -18.3786     0.0000     2.0000 </r>
       <r>   -18.2240     0.0000     2.0000 </r>
       <r>   -18.0694     0.0000     2.0000 </r>
       <r>   -17.9147     0.0000     2.0000 </r>
       <r>   -17.7601     0.0000     2.0000 </r>
       <r>   -17.6055     0.0000     2.0000 </r>
       <r>   -17.4508     0.0000     2.0000 </r>
       <r>   -17.2962     0.0000     2.0000 </r>
       <r>   -17.1416     0.0000     2.0000 </r>
       <r>   -16.9869     0.0000     2.0000 </r>
       <r>   -16.8323     0.0000     2.0000 </r>
       <r>   -16.6777     0.0000     2.0000 </r>
       <r>   -16.5230     0.0000     2.0000 </r>
       <r>   -16.3684     0.0000     2.0000 </r>
       <r>   -16.2138     0.0000     2.0000 </r>
       <r>   -16.0591     0.0000     2.0000 </r>
       <r>   -15.9045     0.0000     2.0000 </r>
       <r>   -15.7499     0.0000     2.0000 </r>
       <r>   -15.5952     0.0000     2.0000 </r>
       <r>   -15.4406    14.0426     4.1715 </r>
       <r>   -15.2859     0.0000    12.0000 </r>
       <r>   -15.1313     0.0000    12.0000 </r>
       <r>   -14.9767     0.0000    12.0000 </r>
       <r>   -14.8220     0.0000    12.0000 </r>
       <r>   -14.6674     0.0000    12.0000 </r>
       <r>   -14.5128     0.0000    12.0000 </r>
       <r>   -14.3581     0.0000    12.0000 </r>
       <r>   -14.2035     0.0000    12.0000 </r>
       <r>   -14.0489     0.0000    12.0000 </r>
       <r>   -13.8942     0.0000    12.0000 </r>
       <r>   -13.7396     0.0000    12.0000 </r>
       <r>   -13.5850     0.0000    12.0000 </r>
       <r>   -13.4303     0.0000    12.0000 </r>
       <r>   -13.2757     0.0000    12.0000 </r>
       <r>   -13.1211     0.0000    12.0000 </r>
       <r>   -12.9664     0.0000    12.0000 </r>
       <r>   -12.8118     0.0000    12.0000 </r>
       <r>   -12.6572     0.0000    12.0000 </r>
       <r>   -12.5025     0.0000    12.0000 </r>
       <r>   -12.3479     0.0000    12.0000 </r>
       <r>   -12.1933     0.0000    12.0000 </r>
       <r>   -12.0386     0.0000    12.0000 </r>
       <r>   -11.8840     0.0000    12.0000 </r>
       <r>   -11.7294     0.0000    12.0000 </r>
       <r>   -11.5747     0.0000    12.0000 </r>
       <r>   -11.4201     0.0000    12.0000 </r>
       <r>   -11.2655     0.0000    12.0000 </r>
       <r>   -11.1108     0.0000    12.0000 </r>
       <r>   -10.9562     2.3342    12.3609 </r>
       <r>   -10.8016    24.3769    17.9944 </r>
       <r>   -10.6469     0.0000    18.0000 </r>
       <r>   -10.4923     0.0000    18.0000 </r>
       <r>   -10.3376     0.0000    18.0000 </r>
       <r>   -10.1830     0.0000    18.0000 </r>
       <r>   -10.0284     0.0000    18.0000 </r>
       <r>    -9.8737     0.0000    18.0000 </r>
       <r>    -9.7191     0.0000    18.0000 </r>
       <r>    -9.5645     0.0000    18.0000 </r>
       <r>    -9.4098     0.0000    18.0000 </r>
       <r>    -9.2552     0.0000    18.0000 </r>
       <r>    -9.1006     0.0000    18.0000 </r>
       <r>    -8.9459     0.0000    18.0000 </r>
       <r>    -8.7913     0.0000    18.0000 </r>
       <r>    -8.6367     0.0000    18.0000 </r>
       <r>    -8.4820     0.0000    18.0000 </r>
       <r>    -8.3274     0.0000    18.0000 </r>
       <r>    -8.1728     0.0000    18.0000 </r>
       <r>    -8.0181     0.0000    18.0000 </r>
       <r>    -7.8635     0.0000    18.0000 </r>
       <r>    -7.7089     0.0000    18.0000 </r>
       <r>    -7.5542     0.0000    18.0000 </r>
       <r>    -7.3996     0.0000    18.0000 </r>
       <r>    -7.2450     0.0000    18.0000 </r>
       <r>    -7.0903     0.0000    18.0000 </r>
       <r>    -6.9357     0.0000    18.0000 </r>
       <r>    -6.7811     0.0000    18.0000 </r>
       <r>    -6.6264     0.0000    18.0000 </r>
       <r>    -6.4718     0.0000    18.0000 </r>
       <r>    -6.3172     0.0000    18.0000 </r>
       <r>    -6.1625     0.0000    18.0000 </r>
       <r>    -6.0079     0.0000    18.0000 </r>
       <r>    -5.8533     0.0000    18.0000 </r>
       <r>    -5.6986     0.0000    18.0000 </r>
       <r>    -5.5440     0.0000    18.0000 </r>
       <r>    -5.3893     0.0000    18.0000 </r>
       <r>    -5.2347     0.0000    18.0000 </r>
       <r>    -5.0801     0.0000    18.0000 </r>
       <r>    -4.9254     0.0000    18.0000 </r>
       <r>    -4.7708     0.0000    18.0000 </r>
       <r>    -4.6162     0.0000    18.0000 </r>
       <r>    -4.4615     0.0000    18.0000 </r>
       <r>    -4.3069     0.0842    18.0130 </r>
       <r>    -4.1523     0.2227    18.0590 </r>
       <r>    -3.9976     0.3501    18.1570 </r>
       <r>    -3.8430     1.0089    18.4136 </r>
       <r>    -3.6884     4.4199    19.5437 </r>
       <r>    -3.5337     0.1884    20.0000 </r>
       <r>    -3.3791     0.0000    20.0000 </r>
       <r>    -3.2245     0.0000    20.0000 </r>
       <r>    -3.0698     0.0000    20.0000 </r>
       <r>    -2.9152     0.0000    20.0000 </r>
       <r>    -2.7606     0.0000    20.0000 </r>
       <r>    -2.6059     0.0000    20.0000 </r>
       <r>    -2.4513     0.0000    20.0000 </r>
       <r>    -2.2967     0.0000    20.0000 </r>
       <r>    -2.1420     0.0000    20.0000 </r>
       <r>    -1.9874     0.0000    20.0000 </r>
       <r>    -1.8328     0.0000    20.0000 </r>
       <r>    -1.6781     0.0000    20.0000 </r>
       <r>    -1.5235     0.0000    20.0000 </r>
       <r>    -1.3689     0.0000    20.0000 </r>
       <r>    -1.2142     0.0000    20.0000 </r>
       <r>    -1.0596     0.0000    20.0000 </r>
       <r>    -0.9049     0.0000    20.0000 </r>
       <r>    -0.7503     0.0000    20.0000 </r>
       <r>    -0.5957     0.0000    20.0000 </r>
       <r>    -0.4410     0.0000    20.0000 </r>
       <r>    -0.2864     0.0000    20.0000 </r>
       <r>    -0.1318     0.0000    20.0000 </r>
       <r>     0.0229     0.0000    20.0000 </r>
       <r>     0.1775     0.0000    20.0000 </r>
       <r>     0.3321     0.0000    20.0000 </r>
       <r>     0.4868     0.0000    20.0000 </r>
       <r>     0.6414     0.0000    20.0000 </r>
       <r>     0.7960     0.0000    20.0000 </r>
       <r>     0.9507     0.0000    20.0000 </r>
       <r>     1.1053     0.0000    20.0000 </r>
       <r>     1.2599     0.0000    20.0000 </r>
       <r>     1.4146     0.0000    20.0000 </r>
       <r>     1.5692     0.0000    20.0000 </r>
       <r>     1.7238     0.0000    20.0000 </r>
       <r>     1.8785     0.2013    20.0311 </r>
       <r>     2.0331     1.0522    20.2355 </r>
       <r>     2.1877     3.1208    20.7812 </r>
       <r>     2.3424     0.8812    21.1850 </r>
       <r>     2.4970     0.4734    21.4879 </r>
       <r>     2.6516     0.7616    21.7618 </r>
       <r>     2.8063     0.3521    21.9461 </r>
       <r>     2.9609     2.4067    22.3403 </r>
       <r>     3.1155     3.0629    23.6179 </r>
       <r>     3.2702     3.5149    24.5708 </r>
       <r>     3.4248     3.4496    25.5330 </r>
       <r>     3.5794     0.5652    26.0109 </r>
       <r>     3.7341     0.4225    26.1145 </r>
       <r>     3.8887     8.8254    27.8035 </r>
       <r>     4.0434     6.4694    29.7205 </r>
       <r>     4.1980     2.9984    30.8770 </r>
       <r>     4.3526     1.4745    31.5061 </r>
       <r>     4.5073     0.7509    31.7656 </r>
       <r>     4.6619     0.6856    31.9977 </r>
       <r>     4.8165     0.5075    32.1722 </r>
       <r>     4.9712     0.5773    32.4907 </r>
       <r>     5.1258     1.0119    32.7873 </r>
       <r>     5.2804     0.6884    33.0787 </r>
       <r>     5.4351     0.7886    33.2908 </r>
       <r>     5.5897     0.6053    33.6011 </r>
       <r>     5.7443     2.4585    34.0188 </r>
       <r>     5.8990     3.5771    35.5026 </r>
       <r>     6.0536     0.5052    35.8360 </r>
       <r>     6.2082     0.1736    35.9522 </r>
       <r>     6.3629     0.0778    35.9847 </r>
       <r>     6.5175     0.0622    36.0078 </r>
       <r>     6.6721     0.0510    36.0161 </r>
       <r>     6.8268     0.1177    36.0464 </r>
       <r>     6.9814     0.4857    36.1215 </r>
       <r>     7.1360     0.1042    36.2391 </r>
       <r>     7.2907     1.8637    36.6824 </r>
       <r>     7.4453     2.1167    37.1803 </r>
       <r>     7.5999     1.8960    37.7142 </r>
       <r>     7.7546     0.8716    38.0556 </r>
       <r>     7.9092     0.7773    38.2704 </r>
       <r>     8.0638     0.5002    38.4114 </r>
       <r>     8.2185     1.1038    38.6541 </r>
       <r>     8.3731     2.6341    39.2275 </r>
       <r>     8.5277     3.8027    40.1829 </r>
       <r>     8.6824     2.0035    40.8132 </r>
       <r>     8.8370     3.7812    41.8783 </r>
       <r>     8.9917     7.1122    43.9846 </r>
       <r>     9.1463     4.4649    46.6285 </r>
       <r>     9.3009     0.0000    48.0000 </r>
       <r>     9.4556     0.0000    48.0000 </r>
       <r>     9.6102     0.0000    48.0000 </r>
       <r>     9.7648     0.0000    48.0000 </r>
       <r>     9.9195     0.0000    48.0000 </r>
       <r>    10.0741     0.0000    48.0000 </r>
       <r>    10.2287     0.0000    48.0000 </r>
       <r>    10.3834     0.0000    48.0000 </r>
       <r>    10.5380     0.0000    48.0000 </r>
       <r>    10.6926     0.0000    48.0000 </r>
       <r>    10.8473     0.0000    48.0000 </r>
       <r>    11.0019     0.0000    48.0000 </r>
       <r>    11.1565     0.0000    48.0000 </r>
       <r>    11.3112     0.0000    48.0000 </r>
      </set>
     </set>
    </array>
   </total>
  </dos>
 </calculation>
 <structure name="finalpos" >
  <crystal>
   <varray name="basis" >
    <v>       0.00000000       3.53541384       3.53541384 </v>
    <v>       3.53541384       0.00000000       3.53541384 </v>
    <v>       3.53541384       3.53541384       0.00000000 </v>
   </varray>
   <i name="volume">     88.37934330 </i>
   <varray name="rec_basis" >
    <v>      -0.14142616       0.14142616       0.14142616 </v>
    <v>       0.14142616      -0.14142616       0.14142616 </v>
    <v>       0.14142616       0.14142616      -0.14142616 </v>
   </varray>
  </crystal>
  <varray name="positions" >
   <v>       0.25000000       0.25000000       0.25000000 </v>
   <v>       0.75000000       0.75000000       0.75000000 </v>
   <v>       0.00000000       0.00000000       0.00000000 </v>
  </varray>
 </structure>
</modeling>
