unknown system                          
            1
    -1.414127    1.414127    1.414127
     1.414127   -1.414127    1.414127
     1.414127    1.414127   -1.414127
   Fe
     1
Direct configuration=     1
   0.00000000  0.00000000  0.00000000
