   3   3   0   0
  0.2385739E+02  0.4660363E-09  0.4660363E-09  0.4660363E-09  0.5000000E-15
  1.000000000000000E-004
  CAR
 unknown system
     13.30662521    -35.97042141  301     10.37257872      1.00000000
    -35.970  0.0000E+00  0.0000E+00
    -35.806  0.0000E+00  0.0000E+00
    -35.642  0.0000E+00  0.0000E+00
    -35.478  0.0000E+00  0.0000E+00
    -35.313  0.0000E+00  0.0000E+00
    -35.149  0.0000E+00  0.0000E+00
    -34.985  0.0000E+00  0.0000E+00
    -34.821  0.0000E+00  0.0000E+00
    -34.656  0.0000E+00  0.0000E+00
    -34.492  0.0000E+00  0.0000E+00
    -34.328  0.0000E+00  0.0000E+00
    -34.164  0.0000E+00  0.0000E+00
    -33.999  0.0000E+00  0.0000E+00
    -33.835  0.0000E+00  0.0000E+00
    -33.671  0.1218E+02  0.2000E+01
    -33.507  0.0000E+00  0.2000E+01
    -33.342  0.0000E+00  0.2000E+01
    -33.178  0.0000E+00  0.2000E+01
    -33.014  0.0000E+00  0.2000E+01
    -32.850  0.0000E+00  0.2000E+01
    -32.685  0.0000E+00  0.2000E+01
    -32.521  0.0000E+00  0.2000E+01
    -32.357  0.0000E+00  0.2000E+01
    -32.193  0.0000E+00  0.2000E+01
    -32.028  0.0000E+00  0.2000E+01
    -31.864  0.0000E+00  0.2000E+01
    -31.700  0.0000E+00  0.2000E+01
    -31.535  0.0000E+00  0.2000E+01
    -31.371  0.0000E+00  0.2000E+01
    -31.207  0.0000E+00  0.2000E+01
    -31.043  0.0000E+00  0.2000E+01
    -30.878  0.0000E+00  0.2000E+01
    -30.714  0.0000E+00  0.2000E+01
    -30.550  0.0000E+00  0.2000E+01
    -30.386  0.0000E+00  0.2000E+01
    -30.221  0.0000E+00  0.2000E+01
    -30.057  0.0000E+00  0.2000E+01
    -29.893  0.0000E+00  0.2000E+01
    -29.729  0.0000E+00  0.2000E+01
    -29.564  0.0000E+00  0.2000E+01
    -29.400  0.0000E+00  0.2000E+01
    -29.236  0.0000E+00  0.2000E+01
    -29.072  0.0000E+00  0.2000E+01
    -28.907  0.0000E+00  0.2000E+01
    -28.743  0.0000E+00  0.2000E+01
    -28.579  0.0000E+00  0.2000E+01
    -28.415  0.0000E+00  0.2000E+01
    -28.250  0.0000E+00  0.2000E+01
    -28.086  0.0000E+00  0.2000E+01
    -27.922  0.0000E+00  0.2000E+01
    -27.758  0.0000E+00  0.2000E+01
    -27.593  0.0000E+00  0.2000E+01
    -27.429  0.0000E+00  0.2000E+01
    -27.265  0.0000E+00  0.2000E+01
    -27.101  0.0000E+00  0.2000E+01
    -26.936  0.0000E+00  0.2000E+01
    -26.772  0.0000E+00  0.2000E+01
    -26.608  0.0000E+00  0.2000E+01
    -26.444  0.0000E+00  0.2000E+01
    -26.279  0.0000E+00  0.2000E+01
    -26.115  0.0000E+00  0.2000E+01
    -25.951  0.0000E+00  0.2000E+01
    -25.786  0.0000E+00  0.2000E+01
    -25.622  0.0000E+00  0.2000E+01
    -25.458  0.0000E+00  0.2000E+01
    -25.294  0.0000E+00  0.2000E+01
    -25.129  0.0000E+00  0.2000E+01
    -24.965  0.0000E+00  0.2000E+01
    -24.801  0.0000E+00  0.2000E+01
    -24.637  0.0000E+00  0.2000E+01
    -24.472  0.0000E+00  0.2000E+01
    -24.308  0.0000E+00  0.2000E+01
    -24.144  0.0000E+00  0.2000E+01
    -23.980  0.0000E+00  0.2000E+01
    -23.815  0.0000E+00  0.2000E+01
    -23.651  0.0000E+00  0.2000E+01
    -23.487  0.0000E+00  0.2000E+01
    -23.323  0.0000E+00  0.2000E+01
    -23.158  0.0000E+00  0.2000E+01
    -22.994  0.0000E+00  0.2000E+01
    -22.830  0.0000E+00  0.2000E+01
    -22.666  0.0000E+00  0.2000E+01
    -22.501  0.0000E+00  0.2000E+01
    -22.337  0.0000E+00  0.2000E+01
    -22.173  0.0000E+00  0.2000E+01
    -22.009  0.0000E+00  0.2000E+01
    -21.844  0.0000E+00  0.2000E+01
    -21.680  0.0000E+00  0.2000E+01
    -21.516  0.0000E+00  0.2000E+01
    -21.352  0.0000E+00  0.2000E+01
    -21.187  0.0000E+00  0.2000E+01
    -21.023  0.0000E+00  0.2000E+01
    -20.859  0.0000E+00  0.2000E+01
    -20.695  0.0000E+00  0.2000E+01
    -20.530  0.0000E+00  0.2000E+01
    -20.366  0.0000E+00  0.2000E+01
    -20.202  0.0000E+00  0.2000E+01
    -20.038  0.0000E+00  0.2000E+01
    -19.873  0.0000E+00  0.2000E+01
    -19.709  0.0000E+00  0.2000E+01
    -19.545  0.0000E+00  0.2000E+01
    -19.380  0.0000E+00  0.2000E+01
    -19.216  0.0000E+00  0.2000E+01
    -19.052  0.0000E+00  0.2000E+01
    -18.888  0.0000E+00  0.2000E+01
    -18.723  0.0000E+00  0.2000E+01
    -18.559  0.0000E+00  0.2000E+01
    -18.395  0.0000E+00  0.2000E+01
    -18.231  0.0000E+00  0.2000E+01
    -18.066  0.0000E+00  0.2000E+01
    -17.902  0.0000E+00  0.2000E+01
    -17.738  0.0000E+00  0.2000E+01
    -17.574  0.0000E+00  0.2000E+01
    -17.409  0.0000E+00  0.2000E+01
    -17.245  0.0000E+00  0.2000E+01
    -17.081  0.0000E+00  0.2000E+01
    -16.917  0.0000E+00  0.2000E+01
    -16.752  0.0000E+00  0.2000E+01
    -16.588  0.0000E+00  0.2000E+01
    -16.424  0.0000E+00  0.2000E+01
    -16.260  0.0000E+00  0.2000E+01
    -16.095  0.0000E+00  0.2000E+01
    -15.931  0.0000E+00  0.2000E+01
    -15.767  0.0000E+00  0.2000E+01
    -15.603  0.0000E+00  0.2000E+01
    -15.438  0.0000E+00  0.2000E+01
    -15.274  0.0000E+00  0.2000E+01
    -15.110  0.0000E+00  0.2000E+01
    -14.946  0.0000E+00  0.2000E+01
    -14.781  0.0000E+00  0.2000E+01
    -14.617  0.0000E+00  0.2000E+01
    -14.453  0.0000E+00  0.2000E+01
    -14.289  0.0000E+00  0.2000E+01
    -14.124  0.0000E+00  0.2000E+01
    -13.960  0.0000E+00  0.2000E+01
    -13.796  0.0000E+00  0.2000E+01
    -13.631  0.0000E+00  0.2000E+01
    -13.467  0.0000E+00  0.2000E+01
    -13.303  0.0000E+00  0.2000E+01
    -13.139  0.0000E+00  0.2000E+01
    -12.974  0.0000E+00  0.2000E+01
    -12.810  0.0000E+00  0.2000E+01
    -12.646  0.1034E-04  0.2000E+01
    -12.482  0.3475E+02  0.1200E+02
    -12.317  0.0000E+00  0.1200E+02
    -12.153  0.0000E+00  0.1200E+02
    -11.989  0.0000E+00  0.1200E+02
    -11.825  0.0000E+00  0.1200E+02
    -11.660  0.0000E+00  0.1200E+02
    -11.496  0.0000E+00  0.1200E+02
    -11.332  0.0000E+00  0.1200E+02
    -11.168  0.0000E+00  0.1200E+02
    -11.003  0.0000E+00  0.1200E+02
    -10.839  0.0000E+00  0.1200E+02
    -10.675  0.0000E+00  0.1200E+02
    -10.511  0.0000E+00  0.1200E+02
    -10.346  0.0000E+00  0.1200E+02
    -10.182  0.0000E+00  0.1200E+02
    -10.018  0.0000E+00  0.1200E+02
     -9.854  0.0000E+00  0.1200E+02
     -9.689  0.0000E+00  0.1200E+02
     -9.525  0.0000E+00  0.1200E+02
     -9.361  0.0000E+00  0.1200E+02
     -9.197  0.7174E+01  0.1321E+02
     -9.032  0.1267E+02  0.1617E+02
     -8.868  0.0000E+00  0.1800E+02
     -8.704  0.0000E+00  0.1800E+02
     -8.540  0.0000E+00  0.1800E+02
     -8.375  0.0000E+00  0.1800E+02
     -8.211  0.0000E+00  0.1800E+02
     -8.047  0.0000E+00  0.1800E+02
     -7.883  0.0000E+00  0.1800E+02
     -7.718  0.0000E+00  0.1800E+02
     -7.554  0.0000E+00  0.1800E+02
     -7.390  0.0000E+00  0.1800E+02
     -7.225  0.0000E+00  0.1800E+02
     -7.061  0.0000E+00  0.1800E+02
     -6.897  0.0000E+00  0.1800E+02
     -6.733  0.0000E+00  0.1800E+02
     -6.568  0.0000E+00  0.1800E+02
     -6.404  0.0000E+00  0.1800E+02
     -6.240  0.0000E+00  0.1800E+02
     -6.076  0.0000E+00  0.1800E+02
     -5.911  0.0000E+00  0.1800E+02
     -5.747  0.0000E+00  0.1800E+02
     -5.583  0.0000E+00  0.1800E+02
     -5.419  0.0000E+00  0.1800E+02
     -5.254  0.0000E+00  0.1800E+02
     -5.090  0.0000E+00  0.1800E+02
     -4.926  0.0000E+00  0.1800E+02
     -4.762  0.0000E+00  0.1800E+02
     -4.597  0.0000E+00  0.1800E+02
     -4.433  0.0000E+00  0.1800E+02
     -4.269  0.0000E+00  0.1800E+02
     -4.105  0.0000E+00  0.1800E+02
     -3.940  0.0000E+00  0.1800E+02
     -3.776  0.0000E+00  0.1800E+02
     -3.612  0.0000E+00  0.1800E+02
     -3.448  0.0000E+00  0.1800E+02
     -3.283  0.0000E+00  0.1800E+02
     -3.119  0.0000E+00  0.1800E+02
     -2.955  0.0000E+00  0.1800E+02
     -2.791  0.0000E+00  0.1800E+02
     -2.626  0.0000E+00  0.1800E+02
     -2.462  0.0000E+00  0.1800E+02
     -2.298  0.1323E-03  0.1800E+02
     -2.134  0.7759E-01  0.1801E+02
     -1.969  0.1774E+00  0.1805E+02
     -1.805  0.2662E+00  0.1810E+02
     -1.641  0.1445E+00  0.1817E+02
     -1.476  0.4459E+00  0.1833E+02
     -1.312  0.1950E+01  0.1892E+02
     -1.148  0.2527E+01  0.1978E+02
     -0.984  0.5733E+00  0.2000E+02
     -0.819  0.0000E+00  0.2000E+02
     -0.655  0.0000E+00  0.2000E+02
     -0.491  0.0000E+00  0.2000E+02
     -0.327  0.0000E+00  0.2000E+02
     -0.162  0.0000E+00  0.2000E+02
      0.002  0.0000E+00  0.2000E+02
      0.166  0.0000E+00  0.2000E+02
      0.330  0.0000E+00  0.2000E+02
      0.495  0.0000E+00  0.2000E+02
      0.659  0.0000E+00  0.2000E+02
      0.823  0.0000E+00  0.2000E+02
      0.987  0.0000E+00  0.2000E+02
      1.152  0.0000E+00  0.2000E+02
      1.316  0.0000E+00  0.2000E+02
      1.480  0.0000E+00  0.2000E+02
      1.644  0.0000E+00  0.2000E+02
      1.809  0.0000E+00  0.2000E+02
      1.973  0.0000E+00  0.2000E+02
      2.137  0.0000E+00  0.2000E+02
      2.301  0.0000E+00  0.2000E+02
      2.466  0.0000E+00  0.2000E+02
      2.630  0.0000E+00  0.2000E+02
      2.794  0.0000E+00  0.2000E+02
      2.958  0.0000E+00  0.2000E+02
      3.123  0.0000E+00  0.2000E+02
      3.287  0.0000E+00  0.2000E+02
      3.451  0.0000E+00  0.2000E+02
      3.615  0.0000E+00  0.2000E+02
      3.780  0.0000E+00  0.2000E+02
      3.944  0.1461E-06  0.2000E+02
      4.108  0.2631E+00  0.2007E+02
      4.272  0.2363E+01  0.2058E+02
      4.437  0.1636E+01  0.2103E+02
      4.601  0.5150E+00  0.2122E+02
      4.765  0.3894E+00  0.2150E+02
      4.930  0.1972E+01  0.2185E+02
      5.094  0.3937E+01  0.2306E+02
      5.258  0.2907E+01  0.2392E+02
      5.422  0.2281E+01  0.2488E+02
      5.587  0.2575E+01  0.2572E+02
      5.751  0.5709E+00  0.2602E+02
      5.915  0.2660E+00  0.2611E+02
      6.079  0.7314E+01  0.2805E+02
      6.244  0.4467E+01  0.2920E+02
      6.408  0.1916E+01  0.3022E+02
      6.572  0.1569E+01  0.3053E+02
      6.736  0.1362E+01  0.3103E+02
      6.901  0.1022E+01  0.3140E+02
      7.065  0.7311E+00  0.3165E+02
      7.229  0.6533E+00  0.3184E+02
      7.393  0.4651E+00  0.3202E+02
      7.558  0.9798E+00  0.3226E+02
      7.722  0.4897E+00  0.3249E+02
      7.886  0.6907E+00  0.3271E+02
      8.050  0.5999E+00  0.3305E+02
      8.215  0.4620E+00  0.3322E+02
      8.379  0.8355E+00  0.3357E+02
      8.543  0.6318E+00  0.3372E+02
      8.707  0.5276E+01  0.3502E+02
      8.872  0.1801E+01  0.3591E+02
      9.036  0.2882E+00  0.3597E+02
      9.200  0.1663E-01  0.3600E+02
      9.364  0.0000E+00  0.3600E+02
      9.529  0.1133E+00  0.3602E+02
      9.693  0.8235E+00  0.3617E+02
      9.857  0.2024E+01  0.3667E+02
     10.021  0.1845E+01  0.3730E+02
     10.186  0.1791E+01  0.3794E+02
     10.350  0.2596E+01  0.3843E+02
     10.514  0.5892E+01  0.4145E+02
     10.679  0.1020E+02  0.4390E+02
     10.843  0.7892E+01  0.4689E+02
     11.007  0.9003E+00  0.4798E+02
     11.171  0.0000E+00  0.4800E+02
     11.336  0.0000E+00  0.4800E+02
     11.500  0.0000E+00  0.4800E+02
     11.664  0.0000E+00  0.4800E+02
     11.828  0.0000E+00  0.4800E+02
     11.993  0.0000E+00  0.4800E+02
     12.157  0.0000E+00  0.4800E+02
     12.321  0.0000E+00  0.4800E+02
     12.485  0.0000E+00  0.4800E+02
     12.650  0.0000E+00  0.4800E+02
     12.814  0.0000E+00  0.4800E+02
     12.978  0.0000E+00  0.4800E+02
     13.142  0.0000E+00  0.4800E+02
     13.307  0.0000E+00  0.4800E+02
