    3    3    1    1
  0.2385739E+02  0.4660363E-09  0.4660363E-09  0.4660363E-09  0.5000000E-15
  1.000000000000000E-004
  CAR
 unknown system
     39     84     24

  0.0000000E+00  0.0000000E+00  0.0000000E+00  0.4551661E-03
    1      -33.730556   1.000000
    2      -12.584344   1.000000
    3      -12.584344   1.000000
    4      -12.554405   1.000000
    5      -12.554405   1.000000
    6      -12.554405   1.000000
    7       -9.042288   1.000000
    8       -9.042288   1.000000
    9       -9.042288   1.000000
   10       -2.283775   1.000000
   11        5.653890   1.000000
   12        5.653890   1.000000
   13        5.653890   1.000000
   14        5.884813   1.000000
   15        5.884813   1.000000
   16        8.827400   1.000000
   17        9.156252   1.000000
   18        9.156252   1.000000
   19        9.156252   1.000000
   20       10.308878   1.000000
   21       10.308878   1.000000
   22       10.308878   1.000000
   23       10.543150   0.000000
   24       10.627417   0.000000

  0.7692308E-01  0.8159669E-17 -0.1888057E-17  0.3641329E-02
    1      -33.730251   1.000000
    2      -12.586176   1.000000
    3      -12.586176   1.000000
    4      -12.554733   1.000000
    5      -12.554178   1.000000
    6      -12.554178   1.000000
    7       -9.058696   1.000000
    8       -9.038274   1.000000
    9       -9.038274   1.000000
   10       -2.211235   1.000000
   11        5.520151   1.000000
   12        5.520151   1.000000
   13        5.527888   1.000000
   14        6.010348   1.000000
   15        6.010348   1.000000
   16        8.350513   1.000000
   17        9.095440   1.000000
   18        9.095440   1.000000
   19        9.453251   1.000000
   20       10.305673   1.000000
   21       10.305673   1.000000
   22       10.307333   1.000000
   23       10.675545   0.000000
   24       10.697821   0.000000

  0.1538462E+00 -0.2991699E-17  0.4101796E-17  0.3641329E-02
    1      -33.729407   1.000000
    2      -12.591270   1.000000
    3      -12.591270   1.000000
    4      -12.555750   1.000000
    5      -12.553527   1.000000
    6      -12.553527   1.000000
    7       -9.102391   1.000000
    8       -9.027197   1.000000
    9       -9.027197   1.000000
   10       -2.009046   1.000000
   11        5.204921   1.000000
   12        5.341465   1.000000
   13        5.341465   1.000000
   14        6.153597   1.000000
   15        6.153597   1.000000
   16        7.721449   1.000000
   17        8.965774   1.000000
   18        8.965774   1.000000
   19        9.527198   1.000000
   20       10.309988   1.000000
   21       10.309988   1.000000
   22       10.535072   0.000000
   23       10.632106   0.000000
   24       10.838932   0.000000

  0.2307692E+00  0.3945639E-17 -0.2280494E-17  0.3641329E-02
    1      -33.728216   1.000000
    2      -12.598444   1.000000
    3      -12.598444   1.000000
    4      -12.557441   1.000000
    5      -12.552557   1.000000
    6      -12.552557   1.000000
    7       -9.159859   1.000000
    8       -9.011670   1.000000
    9       -9.011670   1.000000
   10       -1.720445   1.000000
   11        4.799442   1.000000
   12        5.207331   1.000000
   13        5.207331   1.000000
   14        6.205288   1.000000
   15        6.205288   1.000000
   16        7.150463   1.000000
   17        8.856360   1.000000
   18        8.856360   1.000000
   19        9.515581   1.000000
   20       10.329914   1.000000
   21       10.329914   1.000000
   22       10.686644   0.000000
   23       10.918037   0.000000
   24       10.922105   0.000000

  0.3076923E+00 -0.5983398E-17  0.8203592E-17  0.3641329E-02
    1      -33.726953   1.000000
    2      -12.606023   1.000000
    3      -12.606023   1.000000
    4      -12.559565   1.000000
    5      -12.551475   1.000000
    6      -12.551475   1.000000
    7       -9.216002   1.000000
    8       -8.995306   1.000000
    9       -8.995306   1.000000
   10       -1.408665   1.000000
   11        4.416219   1.000000
   12        5.133506   1.000000
   13        5.133506   1.000000
   14        6.152646   1.000000
   15        6.152646   1.000000
   16        6.700665   1.000000
   17        8.810377   1.000000
   18        8.810377   1.000000
   19        9.550881   1.000000
   20       10.365231   0.850618
   21       10.365231   0.850617
   22       10.642030   0.000000
   23       10.761979   0.000000
   24       10.895520   0.000000

  0.3846154E+00 -0.5589863E-17  0.8365106E-17  0.3641329E-02
    1      -33.725908   1.000000
    2      -12.612267   1.000000
    3      -12.612267   1.000000
    4      -12.561596   1.000000
    5      -12.550561   1.000000
    6      -12.550561   1.000000
    7       -9.259039   1.000000
    8       -8.981831   1.000000
    9       -8.981831   1.000000
   10       -1.145430   1.000000
   11        4.128025   1.000000
   12        5.114245   1.000000
   13        5.114246   1.000000
   14        6.042317   1.000000
   15        6.042317   1.000000
   16        6.397328   1.000000
   17        8.812682   1.000000
   18        8.812682   1.000000
   19        9.626894   1.000000
   20       10.412783   0.000000
   21       10.412784   0.000000
   22       10.646256   0.000000
   23       10.813483   0.000000
   24       10.813483   0.000000

  0.4615385E+00 -0.6530436E-17  0.9860727E-17  0.3641329E-02
    1      -33.725315   1.000000
    2      -12.615772   1.000000
    3      -12.615772   1.000000
    4      -12.562857   1.000000
    5      -12.550042   1.000000
    6      -12.550042   1.000000
    7       -9.282017   1.000000
    8       -8.974256   1.000000
    9       -8.974256   1.000000
   10       -0.994795   1.000000
   11        3.975852   1.000000
   12        5.122367   1.000000
   13        5.122367   1.000000
   14        5.953498   1.000000
   15        5.953498   1.000000
   16        6.245954   1.000000
   17        8.826044   1.000000
   18        8.826044   1.000000
   19        9.693828   1.000000
   20       10.456550   0.000000
   21       10.456550   0.000000
   22       10.742045   0.000000
   23       10.742852   0.000000
   24       10.816779   0.000000

  0.7692308E-01  0.7692308E-01  0.1357446E-17  0.2730997E-02
    1      -33.730150   1.000000
    2      -12.589342   1.000000
    3      -12.583890   1.000000
    4      -12.554946   1.000000
    5      -12.554053   1.000000
    6      -12.554053   1.000000
    7       -9.050793   1.000000
    8       -9.043809   1.000000
    9       -9.043809   1.000000
   10       -2.188685   1.000000
   11        5.251571   1.000000
   12        5.667307   1.000000
   13        5.667307   1.000000
   14        5.899001   1.000000
   15        6.061216   1.000000
   16        8.332531   1.000000
   17        8.996600   1.000000
   18        8.996600   1.000000
   19        9.612256   1.000000
   20       10.221367   1.000000
   21       10.331018   1.000000
   22       10.331018   1.000000
   23       10.638837   0.000000
   24       10.706050   0.000000

  0.1538462E+00  0.7692308E-01  0.4655289E-17  0.1092399E-01
    1      -33.729490   1.000000
    2      -12.594962   1.000000
    3      -12.585370   1.000000
    4      -12.555743   1.000000
    5      -12.553600   1.000000
    6      -12.553469   1.000000
    7       -9.084172   1.000000
    8       -9.041189   1.000000
    9       -9.031204   1.000000
   10       -2.034751   1.000000
   11        4.964601   1.000000
   12        5.546165   1.000000
   13        5.565936   1.000000
   14        6.006920   1.000000
   15        6.169712   1.000000
   16        7.906985   1.000000
   17        8.855976   1.000000
   18        8.856015   1.000000
   19        9.704187   1.000000
   20       10.274927   1.000000
   21       10.338230   0.999999
   22       10.450476   0.000000
   23       10.644942   0.000000
   24       10.813412   0.000000

  0.2307692E+00  0.7692308E-01  0.7656554E-17  0.1092399E-01
    1      -33.728420   1.000000
    2      -12.601740   1.000000
    3      -12.590309   1.000000
    4      -12.557049   1.000000
    5      -12.552935   1.000000
    6      -12.552485   1.000000
    7       -9.137487   1.000000
    8       -9.031073   1.000000
    9       -9.014049   1.000000
   10       -1.783811   1.000000
   11        4.682609   1.000000
   12        5.310339   1.000000
   13        5.431287   1.000000
   14        6.089081   1.000000
   15        6.262224   1.000000
   16        7.375755   1.000000
   17        8.714944   1.000000
   18        8.755944   1.000000
   19        9.678301   1.000000
   20       10.308895   1.000000
   21       10.345303   0.999943
   22       10.638701   0.000000
   23       10.648116   0.000000
   24       10.892628   0.000000

  0.3076923E+00  0.7692308E-01  0.4262852E-17  0.1092399E-01
    1      -33.727185   1.000000
    2      -12.608143   1.000000
    3      -12.597505   1.000000
    4      -12.558814   1.000000
    5      -12.552109   1.000000
    6      -12.551350   1.000000
    7       -9.193979   1.000000
    8       -9.015853   1.000000
    9       -8.998291   1.000000
   10       -1.492462   1.000000
   11        4.414674   1.000000
   12        5.125309   1.000000
   13        5.332496   1.000000
   14        6.069668   1.000000
   15        6.265811   1.000000
   16        6.893385   1.000000
   17        8.638445   1.000000
   18        8.729718   1.000000
   19        9.664235   1.000000
   20       10.354046   0.995615
   21       10.364886   0.861684
   22       10.650817   0.000000
   23       10.720608   0.000000
   24       10.889113   0.000000

  0.3846154E+00  0.7692308E-01  0.1420301E-16  0.1092399E-01
    1      -33.726073   1.000000
    2      -12.612731   1.000000
    3      -12.605219   1.000000
    4      -12.560696   1.000000
    5      -12.551274   1.000000
    6      -12.550390   1.000000
    7       -9.240906   1.000000
    8       -8.999052   1.000000
    9       -8.987430   1.000000
   10       -1.227716   1.000000
   11        4.193737   1.000000
   12        5.046524   1.000000
   13        5.263298   1.000000
   14        5.993657   1.000000
   15        6.184468   1.000000
   16        6.528255   1.000000
   17        8.626803   1.000000
   18        8.752009   1.000000
   19        9.694809   1.000000
   20       10.401087   0.000028
   21       10.406712   0.000001
   22       10.651519   0.000000
   23       10.754969   0.000000
   24       10.846343   0.000000

  0.4615385E+00  0.7692308E-01  0.5919987E-17  0.1092399E-01
    1      -33.725334   1.000000
    2      -12.614505   1.000000
    3      -12.611677   1.000000
    4      -12.562100   1.000000
    5      -12.550627   1.000000
    6      -12.549848   1.000000
    7       -9.270001   1.000000
    8       -8.984462   1.000000
    9       -8.983778   1.000000
   10       -1.051074   1.000000
   11        4.057557   1.000000
   12        5.062726   1.000000
   13        5.191953   1.000000
   14        5.950296   1.000000
   15        6.067387   1.000000
   16        6.310525   1.000000
   17        8.642185   1.000000
   18        8.778915   1.000000
   19        9.748303   1.000000
   20       10.449216   0.000000
   21       10.451774   0.000000
   22       10.646602   0.000000
   23       10.733779   0.000000
   24       10.802253   0.000000

 -0.4615385E+00  0.7692308E-01  0.1395411E-16  0.1092399E-01
    1      -33.725136   1.000000
    2      -12.615448   1.000000
    3      -12.613079   1.000000
    4      -12.562465   1.000000
    5      -12.550347   1.000000
    6      -12.549841   1.000000
    7       -9.277312   1.000000
    8       -8.988018   1.000000
    9       -8.975343   1.000000
   10       -1.002718   1.000000
   11        4.022316   1.000000
   12        5.100810   1.000000
   13        5.137720   1.000000
   14        5.974239   1.000000
   15        5.997400   1.000000
   16        6.257051   1.000000
   17        8.642822   1.000000
   18        8.787665   1.000000
   19        9.770952   1.000000
   20       10.455771   0.000000
   21       10.481537   0.000000
   22       10.637177   0.000000
   23       10.740195   0.000000
   24       10.771139   0.000000

 -0.3846154E+00  0.7692308E-01  0.5671084E-17  0.1092399E-01
    1      -33.725527   1.000000
    2      -12.615731   1.000000
    3      -12.608752   1.000000
    4      -12.561633   1.000000
    5      -12.550525   1.000000
    6      -12.550351   1.000000
    7       -9.262090   1.000000
    8       -8.999066   1.000000
    9       -8.973749   1.000000
   10       -1.093673   1.000000
   11        4.094116   1.000000
   12        5.018590   1.000000
   13        5.230033   1.000000
   14        5.954484   1.000000
   15        6.115344   1.000000
   16        6.368810   1.000000
   17        8.605935   1.000000
   18        8.784955   1.000000
   19        9.737951   1.000000
   20       10.418740   0.000000
   21       10.455364   0.000000
   22       10.642736   0.000000
   23       10.769379   0.000000
   24       10.787318   0.000000

 -0.3076923E+00  0.7692308E-01 -0.1214433E-16  0.1092399E-01
    1      -33.726416   1.000000
    2      -12.612482   1.000000
    3      -12.602441   1.000000
    4      -12.559941   1.000000
    5      -12.551240   1.000000
    6      -12.551129   1.000000
    7       -9.226349   1.000000
    8       -9.014321   1.000000
    9       -8.980069   1.000000
   10       -1.304109   1.000000
   11        4.277933   1.000000
   12        4.984188   1.000000
   13        5.323284   1.000000
   14        6.005963   1.000000
   15        6.243006   1.000000
   16        6.635756   1.000000
   17        8.541319   1.000000
   18        8.798836   1.000000
   19        9.687528   1.000000
   20       10.378218   0.212567
   21       10.399710   0.000062
   22       10.647680   0.000000
   23       10.766100   0.000000
   24       10.835251   0.000000

 -0.2307692E+00  0.7692308E-01  0.1221754E-16  0.1092399E-01
    1      -33.727602   1.000000
    2      -12.606423   1.000000
    3      -12.595536   1.000000
    4      -12.558017   1.000000
    5      -12.552282   1.000000
    6      -12.552025   1.000000
    7       -9.175697   1.000000
    8       -9.030142   1.000000
    9       -8.992945   1.000000
   10       -1.585447   1.000000
   11        4.561992   1.000000
   12        5.019874   1.000000
   13        5.437508   1.000000
   14        6.057249   1.000000
   15        6.315485   1.000000
   16        7.041713   1.000000
   17        8.498226   1.000000
   18        8.861246   1.000000
   19        9.664719   1.000000
   20       10.346360   0.999895
   21       10.350102   0.999260
   22       10.645898   0.000000
   23       10.708674   0.000000
   24       10.893342   0.000000

 -0.1538462E+00  0.7692308E-01  0.3390591E-17  0.1092399E-01
    1      -33.728811   1.000000
    2      -12.598899   1.000000
    3      -12.589655   1.000000
    4      -12.556379   1.000000
    5      -12.553225   1.000000
    6      -12.552972   1.000000
    7       -9.120531   1.000000
    8       -9.042339   1.000000
    9       -9.009473   1.000000
   10       -1.871735   1.000000
   11        4.903788   1.000000
   12        5.130843   1.000000
   13        5.584157   1.000000
   14        6.032580   1.000000
   15        6.291950   1.000000
   16        7.541917   1.000000
   17        8.556603   1.000000
   18        8.974211   1.000000
   19        9.675861   1.000000
   20       10.305347   1.000000
   21       10.333163   1.000000
   22       10.609033   0.000000
   23       10.641410   0.000000
   24       10.891085   0.000000

 -0.7692308E-01  0.7692308E-01  0.4886212E-17  0.5461994E-02
    1      -33.729768   1.000000
    2      -12.591599   1.000000
    3      -12.586262   1.000000
    4      -12.555279   1.000000
    5      -12.553896   1.000000
    6      -12.553741   1.000000
    7       -9.076822   1.000000
    8       -9.045674   1.000000
    9       -9.025859   1.000000
   10       -2.097188   1.000000
   11        5.242392   1.000000
   12        5.307251   1.000000
   13        5.679127   1.000000
   14        5.964739   1.000000
   15        6.176525   1.000000
   16        8.023331   1.000000
   17        8.793573   1.000000
   18        9.081033   1.000000
   19        9.640712   1.000000
   20       10.287926   1.000000
   21       10.310664   1.000000
   22       10.425015   0.000000
   23       10.635205   0.000000
   24       10.784938   0.000000

  0.1538462E+00  0.1538462E+00  0.2714892E-17  0.2730997E-02
    1      -33.729041   1.000000
    2      -12.599753   1.000000
    3      -12.582643   1.000000
    4      -12.556576   1.000000
    5      -12.553010   1.000000
    6      -12.553010   1.000000
    7       -9.075671   1.000000
    8       -9.048194   1.000000
    9       -9.048194   1.000000
   10       -1.943909   1.000000
   11        4.659349   1.000000
   12        5.691839   1.000000
   13        5.691839   1.000000
   14        5.938853   1.000000
   15        6.111358   1.000000
   16        7.872416   1.000000
   17        8.717633   1.000000
   18        8.717633   1.000000
   19        9.739889   1.000000
   20       10.356469   0.988645
   21       10.356469   0.988645
   22       10.392510   0.002411
   23       10.673174   0.000000
   24       10.867702   0.000000

  0.2307692E+00  0.1538462E+00  0.3999129E-17  0.1092399E-01
    1      -33.728165   1.000000
    2      -12.604519   1.000000
    3      -12.583909   1.000000
    4      -12.557708   1.000000
    5      -12.552358   1.000000
    6      -12.552098   1.000000
    7       -9.115233   1.000000
    8       -9.046631   1.000000
    9       -9.035855   1.000000
   10       -1.760844   1.000000
   11        4.415338   1.000000
   12        5.557752   1.000000
   13        5.626313   1.000000
   14        6.002046   1.000000
   15        6.164915   1.000000
   16        7.584052   1.000000
   17        8.544743   1.000000
   18        8.627757   1.000000
   19        9.765669   1.000000
   20       10.325993   1.000000
   21       10.365388   0.845392
   22       10.563962   0.000000
   23       10.686742   0.000000
   24       10.914449   0.000000

  0.3076923E+00  0.1538462E+00  0.3877328E-17  0.1092399E-01
    1      -33.727063   1.000000
    2      -12.608167   1.000000
    3      -12.588842   1.000000
    4      -12.558918   1.000000
    5      -12.551883   1.000000
    6      -12.550928   1.000000
    7       -9.167727   1.000000
    8       -9.036945   1.000000
    9       -9.020675   1.000000
   10       -1.532028   1.000000
   11        4.260824   1.000000
   12        5.320345   1.000000
   13        5.527428   1.000000
   14        6.017620   1.000000
   15        6.237462   1.000000
   16        7.182337   1.000000
   17        8.375645   1.000000
   18        8.616428   1.000000
   19        9.801538   1.000000
   20       10.345149   0.999948
   21       10.378987   0.182379
   22       10.652031   0.000000
   23       10.688066   0.000000
   24       10.912513   0.000000

  0.3846154E+00  0.1538462E+00  0.4829023E-17  0.1092399E-01
    1      -33.725986   1.000000
    2      -12.609923   1.000000
    3      -12.596150   1.000000
    4      -12.560089   1.000000
    5      -12.551591   1.000000
    6      -12.549896   1.000000
    7       -9.214239   1.000000
    8       -9.021403   1.000000
    9       -9.012331   1.000000
   10       -1.312874   1.000000
   11        4.200756   1.000000
   12        5.136247   1.000000
   13        5.423028   1.000000
   14        5.986626   1.000000
   15        6.239799   1.000000
   16        6.786420   1.000000
   17        8.293803   1.000000
   18        8.652525   1.000000
   19        9.818962   1.000000
   20       10.395320   0.000650
   21       10.406750   0.000001
   22       10.682429   0.000000
   23       10.686041   0.000000
   24       10.881277   0.000000

  0.4615385E+00  0.1538462E+00  0.1042379E-16  0.1092399E-01
    1      -33.725183   1.000000
    2      -12.609448   1.000000
    3      -12.604057   1.000000
    4      -12.560961   1.000000
    5      -12.551426   1.000000
    6      -12.549304   1.000000
    7       -9.245529   1.000000
    8       -9.012778   1.000000
    9       -9.003566   1.000000
   10       -1.150762   1.000000
   11        4.204602   1.000000
   12        5.059362   1.000000
   13        5.288596   1.000000
   14        5.990779   1.000000
   15        6.172309   1.000000
   16        6.493664   1.000000
   17        8.270877   1.000000
   18        8.685182   1.000000
   19        9.850328   1.000000
   20       10.437882   0.000000
   21       10.451528   0.000000
   22       10.667234   0.000000
   23       10.703280   0.000000
   24       10.857145   0.000000

 -0.4615385E+00  0.1538462E+00 -0.1418699E-16  0.1092399E-01
    1      -33.724835   1.000000
    2      -12.610789   1.000000
    3      -12.606935   1.000000
    4      -12.561160   1.000000
    5      -12.551372   1.000000
    6      -12.549272   1.000000
    7       -9.257175   1.000000
    8       -9.021413   1.000000
    9       -8.987447   1.000000
   10       -1.074333   1.000000
   11        4.214113   1.000000
   12        5.098609   1.000000
   13        5.131851   1.000000
   14        6.067835   1.000000
   15        6.070383   1.000000
   16        6.374731   1.000000
   17        8.252879   1.000000
   18        8.691968   1.000000
   19        9.882120   1.000000
   20       10.440736   0.000000
   21       10.504188   0.000000
   22       10.635699   0.000000
   23       10.733824   0.000000
   24       10.827201   0.000000

 -0.3846154E+00  0.1538462E+00  0.1506421E-16  0.1092399E-01
    1      -33.725023   1.000000
    2      -12.614888   1.000000
    3      -12.602936   1.000000
    4      -12.560528   1.000000
    5      -12.551456   1.000000
    6      -12.549771   1.000000
    7       -9.248515   1.000000
    8       -9.035500   1.000000
    9       -8.976671   1.000000
   10       -1.096112   1.000000
   11        4.206529   1.000000
   12        4.993691   1.000000
   13        5.224403   1.000000
   14        5.989209   1.000000
   15        6.193503   1.000000
   16        6.450673   1.000000
   17        8.195844   1.000000
   18        8.686776   1.000000
   19        9.882065   1.000000
   20       10.409931   0.000000
   21       10.518191   0.000000
   22       10.619397   0.000000
   23       10.767548   0.000000
   24       10.777203   0.000000

 -0.3076923E+00  0.1538462E+00 -0.7640533E-17  0.1092399E-01
    1      -33.725702   1.000000
    2      -12.615492   1.000000
    3      -12.598222   1.000000
    4      -12.559347   1.000000
    5      -12.551680   1.000000
    6      -12.550643   1.000000
    7       -9.221999   1.000000
    8       -9.050607   1.000000
    9       -8.973692   1.000000
   10       -1.216925   1.000000
   11        4.231436   1.000000
   12        4.910128   1.000000
   13        5.391455   1.000000
   14        5.955663   1.000000
   15        6.318853   1.000000
   16        6.693509   1.000000
   17        8.094250   1.000000
   18        8.703708   1.000000
   19        9.853716   1.000000
   20       10.378825   0.188535
   21       10.464200   0.000000
   22       10.645393   0.000000
   23       10.756544   0.000000
   24       10.796466   0.000000

 -0.2307692E+00  0.1538462E+00 -0.1103423E-16  0.1092399E-01
    1      -33.726719   1.000000
    2      -12.612495   1.000000
    3      -12.593755   1.000000
    4      -12.558127   1.000000
    5      -12.552006   1.000000
    6      -12.551659   1.000000
    7       -9.183942   1.000000
    8       -9.060905   1.000000
    9       -8.979249   1.000000
   10       -1.418507   1.000000
   11        4.352878   1.000000
   12        4.902264   1.000000
   13        5.563418   1.000000
   14        5.947666   1.000000
   15        6.391900   1.000000
   16        7.043699   1.000000
   17        8.009732   1.000000
   18        8.772415   1.000000
   19        9.820932   1.000000
   20       10.360171   0.960346
   21       10.399243   0.000081
   22       10.656834   0.000000
   23       10.722354   0.000000
   24       10.845915   0.000000

 -0.1538462E+00  0.1538462E+00 -0.5983398E-17  0.5461994E-02
    1      -33.727841   1.000000
    2      -12.606525   1.000000
    3      -12.590589   1.000000
    4      -12.557154   1.000000
    5      -12.552580   1.000000
    6      -12.552433   1.000000
    7       -9.146209   1.000000
    8       -9.059022   1.000000
    9       -8.992156   1.000000
   10       -1.656650   1.000000
   11        4.588730   1.000000
   12        4.977644   1.000000
   13        5.685713   1.000000
   14        5.937451   1.000000
   15        6.381298   1.000000
   16        7.364509   1.000000
   17        8.122372   1.000000
   18        8.884197   1.000000
   19        9.781246   1.000000
   20       10.340989   0.999996
   21       10.348569   0.999657
   22       10.653050   0.000000
   23       10.674695   0.000000
   24       10.889811   0.000000

  0.2307692E+00  0.2307692E+00  0.4072338E-17  0.2730997E-02
    1      -33.727513   1.000000
    2      -12.606046   1.000000
    3      -12.580893   1.000000
    4      -12.558971   1.000000
    5      -12.551340   1.000000
    6      -12.551340   1.000000
    7       -9.114454   1.000000
    8       -9.054782   1.000000
    9       -9.054782   1.000000
   10       -1.663923   1.000000
   11        4.225107   1.000000
   12        5.691372   1.000000
   13        5.691372   1.000000
   14        5.996465   1.000000
   15        6.005343   1.000000
   16        7.550500   1.000000
   17        8.547151   1.000000
   18        8.547151   1.000000
   19        9.716515   1.000000
   20       10.378994   0.182147
   21       10.378994   0.182146
   22       10.525112   0.000000
   23       10.730033   0.000000
   24       10.984197   0.000000

  0.3076923E+00  0.2307692E+00  0.5653152E-17  0.1092399E-01
    1      -33.726612   1.000000
    2      -12.605960   1.000000
    3      -12.582105   1.000000
    4      -12.560156   1.000000
    5      -12.550606   1.000000
    6      -12.550252   1.000000
    7       -9.150833   1.000000
    8       -9.053698   1.000000
    9       -9.049221   1.000000
   10       -1.525309   1.000000
   11        4.159217   1.000000
   12        5.524164   1.000000
   13        5.639401   1.000000
   14        6.022951   1.000000
   15        6.049713   1.000000
   16        7.339927   1.000000
   17        8.393426   1.000000
   18        8.545708   1.000000
   19        9.808717   1.000000
   20       10.364444   0.875009
   21       10.392724   0.002193
   22       10.574435   0.000000
   23       10.749691   0.000000
   24       10.974788   0.000000

  0.3846154E+00  0.2307692E+00  0.2542764E-17  0.1092399E-01
    1      -33.725668   1.000000
    2      -12.604294   1.000000
    3      -12.587137   1.000000
    4      -12.560919   1.000000
    5      -12.550479   1.000000
    6      -12.549169   1.000000
    7       -9.191246   1.000000
    8       -9.044373   1.000000
    9       -9.043708   1.000000
   10       -1.382864   1.000000
   11        4.223851   1.000000
   12        5.293585   1.000000
   13        5.536615   1.000000
   14        6.027857   1.000000
   15        6.138751   1.000000
   16        7.042378   1.000000
   17        8.161562   1.000000
   18        8.589238   1.000000
   19        9.907942   1.000000
   20       10.377048   0.263670
   21       10.415762   0.000000
   22       10.614877   0.000000
   23       10.745835   0.000000
   24       10.929075   0.000000

  0.4615385E+00  0.2307692E+00  0.1593723E-17  0.1092399E-01
    1      -33.724900   1.000000
    2      -12.601551   1.000000
    3      -12.594645   1.000000
    4      -12.561029   1.000000
    5      -12.550978   1.000000
    6      -12.548515   1.000000
    7       -9.219100   1.000000
    8       -9.049367   1.000000
    9       -9.027136   1.000000
   10       -1.265190   1.000000
   11        4.376807   1.000000
   12        5.136060   1.000000
   13        5.385199   1.000000
   14        6.058461   1.000000
   15        6.164656   1.000000
   16        6.744079   1.000000
   17        7.988107   1.000000
   18        8.618641   1.000000
   19        9.950514   1.000000
   20       10.411321   0.000000
   21       10.453518   0.000000
   22       10.656170   0.000000
   23       10.723666   0.000000
   24       10.880948   0.000000

 -0.4615385E+00  0.2307692E+00 -0.1812773E-16  0.1092399E-01
    1      -33.724479   1.000000
    2      -12.602850   1.000000
    3      -12.598504   1.000000
    4      -12.560316   1.000000
    5      -12.551900   1.000000
    6      -12.548444   1.000000
    7       -9.229104   1.000000
    8       -9.063530   1.000000
    9       -9.007732   1.000000
   10       -1.186271   1.000000
   11        4.507514   1.000000
   12        5.081267   1.000000
   13        5.205550   1.000000
   14        6.107842   1.000000
   15        6.139873   1.000000
   16        6.580229   1.000000
   17        7.872125   1.000000
   18        8.610428   1.000000
   19        9.980067   1.000000
   20       10.413215   0.000000
   21       10.503932   0.000000
   22       10.680312   0.000000
   23       10.717414   0.000000
   24       10.844143   0.000000

 -0.3846154E+00  0.2307692E+00  0.2090211E-16  0.1092399E-01
    1      -33.724504   1.000000
    2      -12.609963   1.000000
    3      -12.595912   1.000000
    4      -12.558940   1.000000
    5      -12.552874   1.000000
    6      -12.548925   1.000000
    7       -9.222031   1.000000
    8       -9.081728   1.000000
    9       -8.989868   1.000000
   10       -1.153722   1.000000
   11        4.485199   1.000000
   12        5.038048   1.000000
   13        5.144411   1.000000
   14        6.031339   1.000000
   15        6.252402   1.000000
   16        6.625909   1.000000
   17        7.772494   1.000000
   18        8.587701   1.000000
   19        9.995092   1.000000
   20       10.383505   0.061156
   21       10.555263   0.000000
   22       10.621704   0.000000