       N       E                     dE             d eps       ncg     rms          rms(c)
DAV:   1     0.431053916138E+03    0.43105E+03   -0.22415E+04  4032   0.233E+03
DAV:   2     0.290361320274E+02   -0.40202E+03   -0.39421E+03  4472   0.503E+02
DAV:   3    -0.208358435035E+02   -0.49872E+02   -0.48710E+02  5024   0.179E+02
DAV:   4    -0.259384801427E+02   -0.51026E+01   -0.50799E+01  7440   0.459E+01
DAV:   5    -0.261120687641E+02   -0.17359E+00   -0.17328E+00  5600   0.711E+00    0.150E+01
DAV:   6    -0.329638673431E+02   -0.68518E+01   -0.18914E+02  6088   0.891E+01    0.221E+01
DAV:   7    -0.245544249777E+02    0.84094E+01   -0.26444E+01  5840   0.283E+01    0.951E+00
DAV:   8    -0.244887758894E+02    0.65649E-01   -0.28059E+01  5912   0.228E+01    0.760E+00
DAV:   9    -0.237540782034E+02    0.73470E+00   -0.84681E+00  6200   0.174E+01    0.139E+00
DAV:  10    -0.237818254655E+02   -0.27747E-01   -0.34470E-01  6680   0.300E+00    0.121E+00
DAV:  11    -0.237560084906E+02    0.25817E-01   -0.20100E-01  5968   0.245E+00    0.289E-01
DAV:  12    -0.237565013646E+02   -0.49287E-03   -0.61582E-03  6680   0.466E-01    0.899E-02
DAV:  13    -0.237564164847E+02    0.84880E-04   -0.82660E-04  6192   0.208E-01    0.208E-02
DAV:  14    -0.237564285581E+02   -0.12073E-04   -0.14903E-04  7104   0.760E-02    0.280E-02
DAV:  15    -0.237564179785E+02    0.10580E-04   -0.63729E-05  6328   0.470E-02    0.934E-03
DAV:  16    -0.237564175279E+02    0.45060E-06   -0.20948E-05  7280   0.217E-02    0.566E-03
DAV:  17    -0.237564174650E+02    0.62920E-07   -0.67486E-07  4640   0.429E-03
   1 F= -.23756417E+02 E0= -.23755621E+02  d E =-.159362E-02
