 vasp.6.0.8 29Jun18 (build Jun 13 2019 12:54:44) complex

 executed on      IFC18_CrayMPICH date 2021.12.05  14:21:50
 running   64 mpi-ranks, with    1 threads/rank
 distrk:  each k-point on   16 cores,    4 groups
 distr:  one band on NCORES_PER_BAND=   4 cores,    4 groups


--------------------------------------------------------------------------------------------------------


 INCAR:
 POTCAR:    PAW_PBE U 06Sep2000
 POTCAR:    PAW_PBE Bi_d 06Sep2000
 POTCAR:    PAW_PBE Pt 04Feb2005
 POTCAR:    PAW_PBE U 06Sep2000
   VRHFIN =U:  [Xe,5d,4f]
   LEXCH  = PE
   EATOM  =  1405.3058 eV,  103.2871 Ry

   TITEL  = PAW_PBE U 06Sep2000
   LULTRA =        F    use ultrasoft PP ?
   IUNSCR =        1    unscreen: 0-lin 1-nonlin 2-no
   RPACOR =    2.200    partial core radius
   POMASS =  238.029; ZVAL   =   14.000    mass and valenz
   RCORE  =    2.800    outmost cutoff radius
   RWIGS  =    3.000; RWIGS  =    1.588    wigner-seitz radius (au A)
   ENMAX  =  252.502; ENMIN  =  189.376 eV
   RCLOC  =    1.811    cutoff for local pot
   LCOR   =        T    correct aug charges
   LPAW   =        T    paw PP
   EAUG   =  526.410
   DEXC   =    0.000
   RMAX   =    2.863    core radius for proj-oper
   RAUG   =    1.300    factor for augmentation sphere
   RDEP   =    2.950    radius for radial grids
   RDEPT  =    2.270    core radius for aug-charge

   Atomic configuration
   18 entries
     n  l   j            E        occ.
     1  0  0.50   -116038.1941   2.0000
     2  0  0.50    -21694.8835   2.0000
     2  1  1.50    -18009.1553   6.0000
     3  0  0.50     -5481.2929   2.0000
     3  1  1.50     -4458.9283   6.0000
     3  2  2.50     -3575.9978  10.0000
     4  0  0.50     -1400.5351   2.0000
     4  1  1.50     -1066.7807   6.0000
     4  2  2.50      -732.1336  10.0000
     4  3  3.50      -377.4393  14.0000
     5  0  0.50      -314.7366   2.0000
     5  1  1.50      -211.6057   6.0000
     5  2  2.50      -103.2045  10.0000
     6  0  0.50       -50.6026   2.0000
     7  0  0.50        -4.5896   2.0000
     6  1  1.50       -25.2884   6.0000
     6  2  1.50        -3.1039   2.0000
     5  3  2.50        -6.3670   2.0000
   Description
     l       E           TYP  RCUT    TYP  RCUT
     0    -50.6026097     23  2.600
     0     -4.5896371     23  2.600
     1    -25.2883770     23  2.500
     1     27.2116520     23  2.500
     2     -3.1038686     23  2.500
     2      0.8290654     23  2.500
     3     -6.3670133     23  2.800
     3     -7.7275959     23  2.800
  local pseudopotential read in
  partial core-charges read in
  partial kinetic energy density read in
  atomic valenz-charges read in
  non local Contribution for L=           0  read in
    real space projection operators read in
  non local Contribution for L=           0  read in
    real space projection operators read in
  non local Contribution for L=           1  read in
    real space projection operators read in
  non local Contribution for L=           1  read in
    real space projection operators read in
  non local Contribution for L=           2  read in
    real space projection operators read in
  non local Contribution for L=           2  read in
    real space projection operators read in
  non local Contribution for L=           3  read in
    real space projection operators read in
  non local Contribution for L=           3  read in
    real space projection operators read in
    PAW grid and wavefunctions read in

   number of l-projection  operators is LMAX  =           8
   number of lm-projection operators is LMMAX =          32

 POTCAR:    PAW_PBE Bi_d 06Sep2000
   VRHFIN =Bi:
   LEXCH  = PE
   EATOM  =  1959.2045 eV,  143.9975 Ry

   TITEL  = PAW_PBE Bi_d 06Sep2000
   LULTRA =        F    use ultrasoft PP ?
   IUNSCR =        1    unscreen: 0-lin 1-nonlin 2-no
   RPACOR =    2.200    partial core radius
   POMASS =  208.980; ZVAL   =   15.000    mass and valenz
   RCORE  =    2.500    outmost cutoff radius
   RWIGS  =    3.090; RWIGS  =    1.635    wigner-seitz radius (au A)
   ENMAX  =  242.839; ENMIN  =  182.129 eV
   ICORE  =        3    local potential
   LCOR   =        T    correct aug charges
   LPAW   =        T    paw PP
   EAUG   =  442.899
   DEXC   =    0.000
   RMAX   =    2.551    core radius for proj-oper
   RAUG   =    1.300    factor for augmentation sphere
   RDEP   =    2.650    radius for radial grids
   RDEPT  =    2.039    core radius for aug-charge

   Atomic configuration
   16 entries
     n  l   j            E        occ.
     1  0  0.50    -90639.6581   2.0000
     2  0  0.50    -16282.4666   2.0000
     2  1  1.50    -13922.8286   6.0000
     3  0  0.50     -3930.4763   2.0000
     3  1  1.50     -3256.7013   6.0000
     3  2  2.50     -2581.6168  10.0000
     4  0  0.50      -902.2614   2.0000
     4  1  1.50      -681.5915   6.0000
     4  2  2.50      -429.8249  10.0000
     4  3  3.50      -152.6004  14.0000
     5  0  0.50      -157.7156   2.0000
     5  1  1.50       -95.8054   6.0000
     5  2  2.50       -27.0806  10.0000
     6  0  0.50       -14.4732   2.0000
     6  1  1.50        -4.5702   3.0000
     5  3  2.50        -2.7212   0.0000
   Description
     l       E           TYP  RCUT    TYP  RCUT
     2    -27.0805982     23  2.500
     2     -1.3605826     23  2.500
     0    -14.4732271     23  2.500
     0      6.8029130     23  2.500
     1     -4.5701651     23  2.500
     1     13.6058260     23  2.500
     3     -1.3605826      7  2.500
  local pseudopotential read in
  partial core-charges read in
  partial kinetic energy density read in
  atomic valenz-charges read in
  non local Contribution for L=           2  read in
    real space projection operators read in
  non local Contribution for L=           2  read in
    real space projection operators read in
  non local Contribution for L=           0  read in
    real space projection operators read in
  non local Contribution for L=           0  read in
    real space projection operators read in
  non local Contribution for L=           1  read in
    real space projection operators read in
  non local Contribution for L=           1  read in
    real space projection operators read in
    PAW grid and wavefunctions read in

   number of l-projection  operators is LMAX  =           6
   number of lm-projection operators is LMMAX =          18

 POTCAR:    PAW_PBE Pt 04Feb2005
   VRHFIN =Pt: s1d9
   LEXCH  = PE
   EATOM  =   729.1176 eV,   53.5886 Ry

   TITEL  = PAW_PBE Pt 04Feb2005
   LULTRA =        F    use ultrasoft PP ?
   IUNSCR =        1    unscreen: 0-lin 1-nonlin 2-no
   RPACOR =    2.330    partial core radius
   POMASS =  195.080; ZVAL   =   10.000    mass and valenz
   RCORE  =    2.600    outmost cutoff radius
   RWIGS  =    2.750; RWIGS  =    1.455    wigner-seitz radius (au A)
   ENMAX  =  230.283; ENMIN  =  172.712 eV
   ICORE  =        3    local potential
   LCOR   =        T    correct aug charges
   LPAW   =        T    paw PP
   EAUG   =  358.966
   DEXC   =    0.000
   RMAX   =    2.658    core radius for proj-oper
   RAUG   =    1.300    factor for augmentation sphere
   RDEP   =    2.761    radius for radial grids
   RDEPT  =    2.203    core radius for aug-charge

   Atomic configuration
   16 entries
     n  l   j            E        occ.
     1  0  0.50    -78401.1885   2.0000
     2  0  0.50    -13770.7750   2.0000
     2  1  1.50    -11931.0468   6.0000
     3  0  0.50     -3234.7234   2.0000
     3  1  1.50     -2699.2216   6.0000
     3  2  2.50     -2119.5714  10.0000
     4  0  0.50      -695.1528   2.0000
     4  1  1.50      -519.6034   6.0000
     4  2  2.50      -306.6786  10.0000
     4  3  3.50       -70.1041  14.0000
     5  0  0.50      -101.7747   2.0000
     5  1  1.50       -55.9873   6.0000
     5  2  2.50        -6.1423   9.0000
     6  0  0.50        -5.6573   1.0000
     6  1  1.50        -6.8029   0.0000
     5  3  2.50        -1.3606   0.0000
   Description
     l       E           TYP  RCUT    TYP  RCUT
     2     -6.1423404     23  2.500
     2     -7.5029230     23  2.500
     0     -5.6573207     23  2.500
     0      0.7416693     23  2.500
     1     -2.7211652     23  2.600
     1     20.4087390     23  2.600
     3     -1.3605826     23  2.500
  local pseudopotential read in
  partial core-charges read in
  partial kinetic energy density read in
  atomic valenz-charges read in
  non local Contribution for L=           2  read in
    real space projection operators read in
  non local Contribution for L=           2  read in
    real space projection operators read in
  non local Contribution for L=           0  read in
    real space projection operators read in
  non local Contribution for L=           0  read in
    real space projection operators read in
  non local Contribution for L=           1  read in
    real space projection operators read in
  non local Contribution for L=           1  read in
    real space projection operators read in
    PAW grid and wavefunctions read in

   number of l-projection  operators is LMAX  =           6
   number of lm-projection operators is LMMAX =          18

 WARNING: PSMAXN for non-local potential too small
          PSMAXN should be >   13.5545592237991       NTYP=           1

 -----------------------------------------------------------------------------
|                                                                             |
|  ADVICE TO THIS USER RUNNING 'VASP/VAMP'   (HEAR YOUR MASTER'S VOICE ...):  |
|                                                                             |
|      You enforced a specific xc-type in the INCAR file,                     |
|      a different type was found on the POTCAR file                          |
|          I HOPE YOU KNOW, WHAT YOU ARE  DOING                               |
|                                                                             |
 -----------------------------------------------------------------------------

  PAW_PBE U 06Sep2000                   :
 energy of atom  1       EATOM=-1405.3058
 kinetic energy error for atom=    0.0006 (will be added to EATOM!!)
  PAW_PBE Bi_d 06Sep2000                :
 energy of atom  2       EATOM=-1959.2045
 kinetic energy error for atom=    0.0012 (will be added to EATOM!!)
  PAW_PBE Pt 04Feb2005                  :
 energy of atom  3       EATOM= -729.1176
 kinetic energy error for atom=    0.0010 (will be added to EATOM!!)


 POSCAR: U1 Bi1 Pt1
  positions in direct lattice
  No initial velocities read in
 exchange correlation table for  LEXCH =       14
   RHO(1)=    0.500       N(1)  =     2000
   RHO(2)=  100.500       N(2)  =     4000



--------------------------------------------------------------------------------------------------------


 ion  position               nearest neighbor table
   1  0.250  0.250  0.250-   3 2.85   3 2.85   3 2.85   3 2.85   2 3.30   2 3.30   2 3.30   2 3.30
                             2 3.30   2 3.30
   2  0.750  0.750  0.750-   3 2.85   3 2.85   3 2.85   3 2.85   1 3.30   1 3.30   1 3.30   1 3.30
                             1 3.30   1 3.30
   3  0.000  0.000  0.000-   2 2.85   2 2.85   2 2.85   1 2.85   2 2.85   1 2.85   1 2.85   1 2.85


  LATTYP: Found a face centered cubic cell.
 ALAT       =     6.5907485642

  Lattice vectors:

 A1 = (   0.0000000000,   3.2953742821,   3.2953742821)
 A2 = (   3.2953742821,   0.0000000000,   3.2953742821)
 A3 = (   3.2953742821,   3.2953742821,   0.0000000000)


Analysis of symmetry for initial positions (statically):
=====================================================================
 Subroutine PRICEL returns:
 Original cell was already a primitive cell.


 Routine SETGRP: Setting up the symmetry group for a
 face centered cubic supercell.


 Subroutine GETGRP returns: Found 24 space group operations
 (whereof 24 operations were pure point group operations)
 out of a pool of 48 trial point group operations.


The static configuration has the point symmetry T_d .


Analysis of symmetry for dynamics (positions and initial velocities):
=====================================================================
 Subroutine PRICEL returns:
 Original cell was already a primitive cell.


 Routine SETGRP: Setting up the symmetry group for a
 face centered cubic supercell.


 Subroutine GETGRP returns: Found 24 space group operations
 (whereof 24 operations were pure point group operations)
 out of a pool of 48 trial point group operations.


The dynamic configuration has the point symmetry T_d .


 Subroutine INISYM returns: Found 24 space group operations
 (whereof 24 operations are pure point group operations),
 and found     1 'primitive' translations


----------------------------------------------------------------------------------------

                                     Primitive cell

  volume of cell :      71.5722

  direct lattice vectors                    reciprocal lattice vectors
     0.000000000  3.295374282  3.295374282    -0.151727833  0.151727833  0.151727833
     3.295374282  0.000000000  3.295374282     0.151727833 -0.151727833  0.151727833
     3.295374282  3.295374282  0.000000000     0.151727833  0.151727833 -0.151727833

  length of vectors
     4.660363003  4.660363003  4.660363003     0.262800316  0.262800316  0.262800316

  position of ions in fractional coordinates (direct lattice)
     0.250000000  0.250000000  0.250000000
     0.750000000  0.750000000  0.750000000
     0.000000000  0.000000000  0.000000000

  ion indices of the primitive-cell ions
   primitive index   ion index
                 1           1
                 2           2
                 3           3

----------------------------------------------------------------------------------------



 KPOINTS: KPOINTS

Automatic generation of k-mesh.
Space group operators:
 irot       det(A)        alpha          n_x          n_y          n_z        tau_x        tau_y        tau_z
    1     1.000000     0.000000     1.000000     0.000000     0.000000     0.000000     0.000000     0.000000
    2     1.000000   120.000000    -0.577350    -0.577350    -0.577350     0.000000     0.000000     0.000000
    3     1.000000   120.000000     0.577350     0.577350     0.577350     0.000000     0.000000     0.000000
    4    -1.000000    90.000000    -0.000000    -0.000000    -1.000000     0.000000     0.000000     0.000000
    5    -1.000000   180.000000     0.000000     0.707107     0.707107     0.000000     0.000000     0.000000
    6    -1.000000    90.000000    -0.000000     1.000000    -0.000000     0.000000     0.000000     0.000000
    7     1.000000   180.000000     0.000000     0.000000    -1.000000     0.000000     0.000000     0.000000
    8     1.000000   120.000000    -0.577350     0.577350     0.577350     0.000000     0.000000     0.000000
    9     1.000000   120.000000    -0.577350     0.577350    -0.577350     0.000000     0.000000     0.000000
   10    -1.000000    90.000000     0.000000     0.000000     1.000000     0.000000     0.000000     0.000000
   11    -1.000000    90.000000    -1.000000     0.000000    -0.000000     0.000000     0.000000     0.000000
   12    -1.000000   180.000000     0.707107     0.000000     0.707107     0.000000     0.000000     0.000000
   13     1.000000   120.000000     0.577350    -0.577350     0.577350     0.000000     0.000000     0.000000
   14     1.000000   120.000000    -0.577350    -0.577350     0.577350     0.000000     0.000000     0.000000
   15     1.000000   180.000000     1.000000     0.000000     0.000000     0.000000     0.000000     0.000000
   16    -1.000000    90.000000     0.000000    -1.000000     0.000000     0.000000     0.000000     0.000000
   17    -1.000000   180.000000     0.707107     0.707107    -0.000000     0.000000     0.000000     0.000000
   18    -1.000000    90.000000     1.000000     0.000000     0.000000     0.000000     0.000000     0.000000
   19     1.000000   120.000000     0.577350    -0.577350    -0.577350     0.000000     0.000000     0.000000
   20     1.000000   180.000000     0.000000     1.000000    -0.000000     0.000000     0.000000     0.000000
   21     1.000000   120.000000     0.577350     0.577350    -0.577350     0.000000     0.000000     0.000000
   22    -1.000000   180.000000    -0.000000    -0.707107     0.707107     0.000000     0.000000     0.000000
   23    -1.000000   180.000000     0.707107    -0.707107     0.000000     0.000000     0.000000     0.000000
   24    -1.000000   180.000000    -0.707107     0.000000     0.707107     0.000000     0.000000     0.000000

 Subroutine IBZKPT returns following result:
 ===========================================

 Found     84 irreducible k-points:

 Following reciprocal coordinates:
            Coordinates               Weight
  0.000000  0.000000  0.000000      1.000000
  0.076923  0.000000 -0.000000      8.000000
  0.153846 -0.000000  0.000000      8.000000
  0.230769  0.000000 -0.000000      8.000000
  0.307692 -0.000000  0.000000      8.000000
  0.384615 -0.000000  0.000000      8.000000
  0.461538 -0.000000  0.000000      8.000000
  0.076923  0.076923  0.000000      6.000000
  0.153846  0.076923  0.000000     24.000000
  0.230769  0.076923  0.000000     24.000000
  0.307692  0.076923  0.000000     24.000000
  0.384615  0.076923  0.000000     24.000000
  0.461538  0.076923  0.000000     24.000000
 -0.461538  0.076923  0.000000     24.000000
 -0.384615  0.076923  0.000000     24.000000
 -0.307692  0.076923 -0.000000     24.000000
 -0.230769  0.076923  0.000000     24.000000
 -0.153846  0.076923  0.000000     24.000000
 -0.076923  0.076923  0.000000     12.000000
  0.153846  0.153846  0.000000      6.000000
  0.230769  0.153846  0.000000     24.000000
  0.307692  0.153846  0.000000     24.000000
  0.384615  0.153846  0.000000     24.000000
  0.461538  0.153846  0.000000     24.000000
 -0.461538  0.153846 -0.000000     24.000000
 -0.384615  0.153846  0.000000     24.000000
 -0.307692  0.153846 -0.000000     24.000000
 -0.230769  0.153846 -0.000000     24.000000
 -0.153846  0.153846 -0.000000     12.000000
  0.230769  0.230769  0.000000      6.000000
  0.307692  0.230769  0.000000     24.000000
  0.384615  0.230769  0.000000     24.000000
  0.461538  0.230769  0.000000     24.000000
 -0.461538  0.230769 -0.000000     24.000000
 -0.384615  0.230769  0.000000     24.000000
 -0.307692  0.230769  0.000000     24.000000
 -0.230769  0.230769  0.000000     12.000000
  0.307692  0.307692  0.000000      6.000000
  0.384615  0.307692  0.000000     24.000000
  0.461538  0.307692  0.000000     24.000000
 -0.461538  0.307692  0.000000     24.000000
 -0.384615  0.307692 -0.000000     24.000000
 -0.307692  0.307692 -0.000000     12.000000
  0.384615  0.384615  0.000000      6.000000
  0.461538  0.384615  0.000000     24.000000
 -0.461538  0.384615  0.000000     24.000000
 -0.384615  0.384615 -0.000000     12.000000
  0.461538  0.461538  0.000000      6.000000
 -0.461538  0.461538 -0.000000     12.000000
  0.230769  0.153846  0.076923     24.000000
  0.307692  0.153846  0.076923     48.000000
  0.384615  0.153846  0.076923     48.000000
  0.461538  0.153846  0.076923     48.000000
 -0.461538  0.153846  0.076923     48.000000
  0.307692  0.230769  0.076923     24.000000
  0.384615  0.230769  0.076923     48.000000
  0.461538  0.230769  0.076923     48.000000
 -0.461538  0.230769  0.076923     48.000000
 -0.384615  0.230769  0.076923     48.000000
 -0.307692  0.230769  0.076923     48.000000
 -0.230769  0.230769  0.076923     48.000000
 -0.153846  0.230769  0.076923     24.000000
  0.384615  0.307692  0.076923     24.000000
  0.461538  0.307692  0.076923     48.000000
 -0.461538  0.307692  0.076923     48.000000
 -0.384615  0.307692  0.076923     48.000000
 -0.307692  0.307692  0.076923     48.000000
 -0.230769  0.307692  0.076923     24.000000
  0.461538  0.384615  0.076923     24.000000
 -0.461538  0.384615  0.076923     48.000000
 -0.384615  0.384615  0.076923     48.000000
 -0.307692  0.384615  0.076923     24.000000
 -0.461538  0.461538  0.076923     24.000000
 -0.384615  0.461538  0.076923     24.000000
  0.461538  0.307692  0.153846     24.000000
 -0.461538  0.307692  0.153846     48.000000
 -0.384615  0.307692  0.153846     48.000000
 -0.461538  0.384615  0.153846     24.000000
 -0.384615  0.384615  0.153846     48.000000
 -0.307692  0.384615  0.153846     48.000000
 -0.230769  0.384615  0.153846     24.000000
 -0.384615  0.461538  0.153846     24.000000
 -0.307692  0.461538  0.153846     24.000000
 -0.307692  0.461538  0.230769     24.000000

 Following cartesian coordinates:
            Coordinates               Weight
  0.000000  0.000000  0.000000      1.000000
 -0.011593  0.011593  0.011593      8.000000
 -0.023186  0.023186  0.023186      8.000000
 -0.034779  0.034779  0.034779      8.000000
 -0.046372  0.046372  0.046372      8.000000
 -0.057965  0.057965  0.057965      8.000000
 -0.069558  0.069558  0.069558      8.000000
  0.000000 -0.000000  0.023186      6.000000
 -0.011593  0.011593  0.034779     24.000000
 -0.023186  0.023186  0.046372     24.000000
 -0.034779  0.034779  0.057965     24.000000
 -0.046372  0.046372  0.069558     24.000000
 -0.057965  0.057965  0.081151     24.000000
  0.081151 -0.081151 -0.057965     24.000000
  0.069558 -0.069558 -0.046372     24.000000
  0.057965 -0.057965 -0.034779     24.000000
  0.046372 -0.046372 -0.023186     24.000000
  0.034779 -0.034779 -0.011593     24.000000
  0.023186 -0.023186 -0.000000     12.000000
  0.000000 -0.000000  0.046372      6.000000
 -0.011593  0.011593  0.057965     24.000000
 -0.023186  0.023186  0.069558     24.000000
 -0.034779  0.034779  0.081151     24.000000
 -0.046372  0.046372  0.092744     24.000000
  0.092744 -0.092744 -0.046372     24.000000
  0.081151 -0.081151 -0.034779     24.000000
  0.069558 -0.069558 -0.023186     24.000000
  0.057965 -0.057965 -0.011593     24.000000
  0.046372 -0.046372  0.000000     12.000000
 -0.000000  0.000000  0.069558      6.000000
 -0.011593  0.011593  0.081151     24.000000
 -0.023186  0.023186  0.092744     24.000000
 -0.034779  0.034779  0.104337     24.000000
  0.104337 -0.104337 -0.034779     24.000000
  0.092744 -0.092744 -0.023186     24.000000
  0.081151 -0.081151 -0.011593     24.000000
  0.069558 -0.069558 -0.000000     12.000000
  0.000000 -0.000000  0.092744      6.000000
 -0.011593  0.011593  0.104337     24.000000
 -0.023186  0.023186  0.115930     24.000000
  0.115930 -0.115930 -0.023186     24.000000
  0.104337 -0.104337 -0.011593     24.000000
  0.092744 -0.092744  0.000000     12.000000
 -0.000000  0.000000  0.115930      6.000000
 -0.011593  0.011593  0.127523     24.000000
  0.127523 -0.127523 -0.011593     24.000000
  0.115930 -0.115930  0.000000     12.000000
 -0.000000  0.000000  0.139116      6.000000
  0.139116 -0.139116  0.000000     12.000000
 -0.000000  0.023186  0.046372     24.000000
 -0.011593  0.034779  0.057965     48.000000
 -0.023186  0.046372  0.069558     48.000000
 -0.034779  0.057965  0.081151     48.000000
  0.104337 -0.081151 -0.057965     48.000000
  0.000000  0.023186  0.069558     24.000000
 -0.011593  0.034779  0.081151     48.000000
 -0.023186  0.046372  0.092744     48.000000
  0.115930 -0.092744 -0.046372     48.000000
  0.104337 -0.081151 -0.034779     48.000000
  0.092744 -0.069558 -0.023186     48.000000
  0.081151 -0.057965 -0.011593     48.000000
  0.069558 -0.046372 -0.000000     24.000000
  0.000000  0.023186  0.092744     24.000000
 -0.011593  0.034779  0.104337     48.000000
  0.127523 -0.104337 -0.034779     48.000000
  0.115930 -0.092744 -0.023186     48.000000
  0.104337 -0.081151 -0.011593     48.000000
  0.092744 -0.069558 -0.000000     24.000000
  0.000000  0.023186  0.115930     24.000000
  0.139116 -0.115930 -0.023186     48.000000
  0.127523 -0.104337 -0.011593     48.000000
  0.115930 -0.092744  0.000000     24.000000
  0.150709 -0.127523 -0.011593     24.000000
  0.139116 -0.115930 -0.000000     24.000000
 -0.000000  0.046372  0.092744     24.000000
  0.139116 -0.092744 -0.046372     48.000000
  0.127523 -0.081151 -0.034779     48.000000
  0.150709 -0.104337 -0.034779     24.000000
  0.139116 -0.092744 -0.023186     48.000000
  0.127523 -0.081151 -0.011593     48.000000
  0.115930 -0.069558  0.000000     24.000000
  0.150709 -0.104337 -0.011593     24.000000
  0.139116 -0.092744  0.000000     24.000000
  0.150709 -0.081151 -0.011593     24.000000



--------------------------------------------------------------------------------------------------------




 Dimension of arrays:
   k-points           NKPTS =     84   k-points in BZ     NKDIM =     84   number of bands    NBANDS=     24
   number of dos      NEDOS =    301   number of ions     NIONS =      3
   non local maximal  LDIM  =      8   non local SUM 2l+1 LMDIM =     32
   total plane-waves  NPLWV =  64000
   max r-space proj   IRMAX =      1   max aug-charges    IRDMAX= 436461
   dimension x,y,z NGX =    40 NGY =   40 NGZ =   40
   dimension x,y,z NGXF=    80 NGYF=   80 NGZF=   80
   support grid    NGXF=   160 NGYF=  160 NGZF=  160
   ions per type =               1   1   1
   NGX,Y,Z   is equivalent  to a cutoff of  14.27, 14.27, 14.27 a.u.
   NGXF,Y,Z  is equivalent  to a cutoff of  28.54, 28.54, 28.54 a.u.

 SYSTEM =  unknown system
 POSCAR =  U1 Bi1 Pt1

 Startparameter for this run:
   NWRITE =      2    write-flag & timer
   PREC   = acc       normal or accurate (medium, high low for compatibility)
   ISTART =      0    job   : 0-new  1-cont  2-samecut
   ICHARG =      2    charge: 1-file 2-atom 10-const
   ISPIN  =      1    spin polarized calculation?
   LNONCOLLINEAR =      F non collinear calculations
   LSORBIT =      F    spin-orbit coupling
   INIWAV =      1    electr: 0-lowe 1-rand  2-diag
   LASPH  =      F    aspherical Exc in radial PAW
   METAGGA=      F    non-selfconsistent MetaGGA calc.

 Electronic Relaxation 1
   ENCUT  =  700.0 eV  51.45 Ry    7.17 a.u.  10.05 10.05 10.05*2*pi/ulx,y,z
   ENINI  =  700.0     initial cutoff
   ENAUG  =  526.4 eV  augmentation charge cutoff
   NELM   =     60;   NELMIN=  5; NELMDL= -5     # of ELM steps
   EDIFF  = 0.1E-06   stopping-criterion for ELM
   LREAL  =      F    real-space projection
   NLSPLINE    = F    spline interpolate recip. space projectors
   LCOMPAT=      F    compatible to vasp.4.4
   GGA_COMPAT  = T    GGA compatible to vasp.4.4-vasp.4.6
   LMAXPAW     = -100 max onsite density
   LMAXMIX     =    2 max onsite mixed and CHGCAR
   VOSKOWN=      0    Vosko Wilk Nusair interpolation
   ROPT   =    0.00000   0.00000   0.00000
 Ionic relaxation
   EDIFFG = 0.1E-05   stopping-criterion for IOM
   NSW    =      0    number of steps for IOM
   NBLOCK =      1;   KBLOCK =      1    inner block; outer block
   IBRION =     -1    ionic relax: 0-MD 1-quasi-New 2-CG
   NFREE  =      0    steps in history (QN), initial steepest desc. (CG)
   ISIF   =      3    stress and relaxation
   IWAVPR =     10    prediction:  0-non 1-charg 2-wave 3-comb
   ISYM   =      2    0-nonsym 1-usesym 2-fastsym
   LCORR  =      T    Harris-Foulkes like correction to forces

   POTIM  = 0.5000    time-step for ionic-motion
   TEIN   =    0.0    initial temperature
   TEBEG  =    0.0;   TEEND  =   0.0 temperature during run
   SMASS  =  -3.00    Nose mass-parameter (am)
   estimated Nose-frequenzy (Omega)   =  0.10E-29 period in steps = 0.13E+47 mass=  -0.496E-27a.u.
   SCALEE = 1.0000    scale energy and forces
   NPACO  =    256;   APACO  = 16.0  distance and # of slots for P.C.
   PSTRESS=    0.0 pullay stress

  Mass of Ions in am
   POMASS = 238.03208.98195.08
  Ionic Valenz
   ZVAL   =  14.00 15.00 10.00
  Atomic Wigner-Seitz radii
   RWIGS  =  -1.00 -1.00 -1.00
  virtual crystal weights
   VCA    =   1.00  1.00  1.00
   NELECT =      39.0000    total number of electrons
   NUPDOWN=      -1.0000    fix difference up-down

 DOS related values:
   EMIN   =  10.00;   EMAX   =-10.00  energy-range for DOS
   EFERMI =   0.00
   ISMEAR =     0;   SIGMA  =   0.01  broadening in eV -4-tet -1-fermi 0-gaus

 Electronic relaxation 2 (details)
   IALGO  =     38    algorithm
   LDIAG  =      T    sub-space diagonalisation (order eigenvalues)
   LSUBROT=      F    optimize rotation matrix (better conditioning)
   TURBO    =      0    0=normal 1=particle mesh
   IRESTART =      0    0=no restart 2=restart with 2 vectors
   NREBOOT  =      0    no. of reboots
   NMIN     =      0    reboot dimension
   EREF     =   0.00    reference energy to select bands
   IMIX   =      4    mixing-type and parameters
     AMIX     =   0.40;   BMIX     =  1.00
     AMIX_MAG =   1.60;   BMIX_MAG =  1.00
     AMIN     =   0.10
     WC   =   100.;   INIMIX=   1;  MIXPRE=   1;  MAXMIX= -45

 Intra band minimization:
   WEIMIN = 0.0000     energy-eigenvalue tresh-hold
   EBREAK =  0.10E-08  absolut break condition
   DEPER  =   0.30     relativ break condition

   TIME   =   0.40     timestep for ELM

  volume/ion in A,a.u.               =      23.86       161.00
  Fermi-wavevector in a.u.,A,eV,Ry     =   1.337155  2.526856 24.326977  1.787982
  Thomas-Fermi vector in A             =   2.465725

 Write flags
   LWAVE        =      F    write WAVECAR
   LDOWNSAMPLE  =      F    k-point downsampling of WAVECAR
   LCHARG       =      F    write CHGCAR
   LVTOT        =      F    write LOCPOT, total local potential
   LVHAR        =      F    write LOCPOT, Hartree potential only
   LELF         =      F    write electronic localiz. function (ELF)
   LORBIT       =      0    0 simple, 1 ext, 2 COOP (PROOUT), +10 PAW based schemes


 Dipole corrections
   LMONO  =      F    monopole corrections only (constant potential shift)
   LDIPOL =      F    correct potential (dipole corrections)
   IDIPOL =      0    1-x, 2-y, 3-z, 4-all directions
   EPSILON=  1.0000000 bulk dielectric constant

 Exchange correlation treatment:
   GGA     =    PS    GGA type
   LEXCH   =    14    internal setting for exchange type
   VOSKOWN=      0    Vosko Wilk Nusair interpolation
   LHFCALC =     F    Hartree Fock is set to
   LHFONE  =     F    Hartree Fock one center treatment
   AEXX    =    0.0000 exact exchange contribution

 Linear response parameters
   LEPSILON=     F    determine dielectric tensor
   LRPA    =     F    only Hartree local field effects (RPA)
   LNABLA  =     F    use nabla operator in PAW spheres
   LVEL    =     F    velocity operator in full k-point grid
   LINTERFAST=   F  fast interpolation
   KINTER  =     0    interpolate to denser k-point grid
   CSHIFT  =0.1000    complex shift for real part using Kramers Kronig
   OMEGAMAX=  -1.0    maximum frequency
   DEG_THRESHOLD= 0.2000000E-02 threshold for treating states as degnerate
   RTIME   =   -0.100 relaxation time in fs
  (WPLASMAI=    0.000 imaginary part of plasma frequency in eV, 0.658/RTIME)
   DFIELD  = 0.0000000 0.0000000 0.0000000 field for delta impulse in time

 Orbital magnetization related:
   ORBITALMAG=     F  switch on orbital magnetization
   LCHIMAG   =     F  perturbation theory with respect to B field
   DQ        =  0.001000  dq finite difference perturbation B field
   LLRAUG    =     F  two centre corrections for induced B field



--------------------------------------------------------------------------------------------------------


 Static calculation
 charge density and potential will be updated during run
 non-spin polarized calculation
 Variant of blocked Davidson
 Davidson routine will perform the subspace rotation
 perform sub-space diagonalisation
    after iterative eigenvector-optimisation
 modified Broyden-mixing scheme, WC =      100.0
 initial mixing is a Kerker type mixing with AMIX =  0.4000 and BMIX =      1.0000
 Hartree-type preconditioning will be used
 using additional bands            4
 reciprocal scheme for non local part
 use partial core corrections
 calculate Harris-corrections to forces
   (improved forces if not selfconsistent)
 use gradient corrections
 use of overlap-Matrix (Vanderbilt PP)
 Gauss-broadening in eV      SIGMA  =   0.01


--------------------------------------------------------------------------------------------------------


  energy-cutoff  :      700.00
  volume of cell :       71.57
      direct lattice vectors                 reciprocal lattice vectors
     0.000000000  3.295374282  3.295374282    -0.151727833  0.151727833  0.151727833
     3.295374282  0.000000000  3.295374282     0.151727833 -0.151727833  0.151727833
     3.295374282  3.295374282  0.000000000     0.151727833  0.151727833 -0.151727833

  length of vectors
     4.660363003  4.660363003  4.660363003     0.262800316  0.262800316  0.262800316



 k-points in units of 2pi/SCALE and weight: KPOINTS
   0.00000000  0.00000000  0.00000000       0.000
  -0.01159304  0.01159304  0.01159304       0.004
  -0.02318608  0.02318608  0.02318608       0.004
  -0.03477911  0.03477911  0.03477911       0.004
  -0.04637215  0.04637215  0.04637215       0.004
  -0.05796519  0.05796519  0.05796519       0.004
  -0.06955823  0.06955823  0.06955823       0.004
   0.00000000 -0.00000000  0.02318608       0.003
  -0.01159304  0.01159304  0.03477911       0.011
  -0.02318608  0.02318608  0.04637215       0.011
  -0.03477911  0.03477911  0.05796519       0.011
  -0.04637215  0.04637215  0.06955823       0.011
  -0.05796519  0.05796519  0.08115127       0.011
   0.08115127 -0.08115127 -0.05796519       0.011
   0.06955823 -0.06955823 -0.04637215       0.011
   0.05796519 -0.05796519 -0.03477911       0.011
   0.04637215 -0.04637215 -0.02318608       0.011
   0.03477911 -0.03477911 -0.01159304       0.011
   0.02318608 -0.02318608 -0.00000000       0.005
   0.00000000 -0.00000000  0.04637215       0.003
  -0.01159304  0.01159304  0.05796519       0.011
  -0.02318608  0.02318608  0.06955823       0.011
  -0.03477911  0.03477911  0.08115127       0.011
  -0.04637215  0.04637215  0.09274430       0.011
   0.09274430 -0.09274430 -0.04637215       0.011
   0.08115127 -0.08115127 -0.03477911       0.011
   0.06955823 -0.06955823 -0.02318608       0.011
   0.05796519 -0.05796519 -0.01159304       0.011
   0.04637215 -0.04637215  0.00000000       0.005
  -0.00000000  0.00000000  0.06955823       0.003
  -0.01159304  0.01159304  0.08115127       0.011
  -0.02318608  0.02318608  0.09274430       0.011
  -0.03477911  0.03477911  0.10433734       0.011
   0.10433734 -0.10433734 -0.03477911       0.011
   0.09274430 -0.09274430 -0.02318608       0.011
   0.08115127 -0.08115127 -0.01159304       0.011
   0.06955823 -0.06955823 -0.00000000       0.005
   0.00000000 -0.00000000  0.09274430       0.003
  -0.01159304  0.01159304  0.10433734       0.011
  -0.02318608  0.02318608  0.11593038       0.011
   0.11593038 -0.11593038 -0.02318608       0.011
   0.10433734 -0.10433734 -0.01159304       0.011
   0.09274430 -0.09274430  0.00000000       0.005
  -0.00000000  0.00000000  0.11593038       0.003
  -0.01159304  0.01159304  0.12752342       0.011
   0.12752342 -0.12752342 -0.01159304       0.011
   0.11593038 -0.11593038  0.00000000       0.005
  -0.00000000  0.00000000  0.13911646       0.003
   0.13911646 -0.13911646  0.00000000       0.005
  -0.00000000  0.02318608  0.04637215       0.011
  -0.01159304  0.03477911  0.05796519       0.022
  -0.02318608  0.04637215  0.06955823       0.022
  -0.03477911  0.05796519  0.08115127       0.022
   0.10433734 -0.08115127 -0.05796519       0.022
   0.00000000  0.02318608  0.06955823       0.011
  -0.01159304  0.03477911  0.08115127       0.022
  -0.02318608  0.04637215  0.09274430       0.022
   0.11593038 -0.09274430 -0.04637215       0.022
   0.10433734 -0.08115127 -0.03477911       0.022
   0.09274430 -0.06955823 -0.02318608       0.022
   0.08115127 -0.05796519 -0.01159304       0.022
   0.06955823 -0.04637215 -0.00000000       0.011
   0.00000000  0.02318608  0.09274430       0.011
  -0.01159304  0.03477911  0.10433734       0.022
   0.12752342 -0.10433734 -0.03477911       0.022
   0.11593038 -0.09274430 -0.02318608       0.022
   0.10433734 -0.08115127 -0.01159304       0.022
   0.09274430 -0.06955823 -0.00000000       0.011
   0.00000000  0.02318608  0.11593038       0.011
   0.13911646 -0.11593038 -0.02318608       0.022
   0.12752342 -0.10433734 -0.01159304       0.022
   0.11593038 -0.09274430  0.00000000       0.011
   0.15070950 -0.12752342 -0.01159304       0.011
   0.13911646 -0.11593038 -0.00000000       0.011
  -0.00000000  0.04637215  0.09274430       0.011
   0.13911646 -0.09274430 -0.04637215       0.022
   0.12752342 -0.08115127 -0.03477911       0.022
   0.15070950 -0.10433734 -0.03477911       0.011
   0.13911646 -0.09274430 -0.02318608       0.022
   0.12752342 -0.08115127 -0.01159304       0.022
   0.11593038 -0.06955823  0.00000000       0.011
   0.15070950 -0.10433734 -0.01159304       0.011
   0.13911646 -0.09274430  0.00000000       0.011
   0.15070950 -0.08115127 -0.01159304       0.011

 k-points in reciprocal lattice and weights: KPOINTS
   0.00000000  0.00000000  0.00000000       0.000
   0.07692308  0.00000000 -0.00000000       0.004
   0.15384615 -0.00000000  0.00000000       0.004
   0.23076923  0.00000000 -0.00000000       0.004
   0.30769231 -0.00000000  0.00000000       0.004
   0.38461538 -0.00000000  0.00000000       0.004
   0.46153846 -0.00000000  0.00000000       0.004
   0.07692308  0.07692308  0.00000000       0.003
   0.15384615  0.07692308  0.00000000       0.011
   0.23076923  0.07692308  0.00000000       0.011
   0.30769231  0.07692308  0.00000000       0.011
   0.38461538  0.07692308  0.00000000       0.011
   0.46153846  0.07692308  0.00000000       0.011
  -0.46153846  0.07692308  0.00000000       0.011
  -0.38461538  0.07692308  0.00000000       0.011
  -0.30769231  0.07692308 -0.00000000       0.011
  -0.23076923  0.07692308  0.00000000       0.011
  -0.15384615  0.07692308  0.00000000       0.011
  -0.07692308  0.07692308  0.00000000       0.005
   0.15384615  0.15384615  0.00000000       0.003
   0.23076923  0.15384615  0.00000000       0.011
   0.30769231  0.15384615  0.00000000       0.011
   0.38461538  0.15384615  0.00000000       0.011
   0.46153846  0.15384615  0.00000000       0.011
  -0.46153846  0.15384615 -0.00000000       0.011
  -0.38461538  0.15384615  0.00000000       0.011
  -0.30769231  0.15384615 -0.00000000       0.011
  -0.23076923  0.15384615 -0.00000000       0.011
  -0.15384615  0.15384615 -0.00000000       0.005
   0.23076923  0.23076923  0.00000000       0.003
   0.30769231  0.23076923  0.00000000       0.011
   0.38461538  0.23076923  0.00000000       0.011
   0.46153846  0.23076923  0.00000000       0.011
  -0.46153846  0.23076923 -0.00000000       0.011
  -0.38461538  0.23076923  0.00000000       0.011
  -0.30769231  0.23076923  0.00000000       0.011
  -0.23076923  0.23076923  0.00000000       0.005
   0.30769231  0.30769231  0.00000000       0.003
   0.38461538  0.30769231  0.00000000       0.011
   0.46153846  0.30769231  0.00000000       0.011
  -0.46153846  0.30769231  0.00000000       0.011
  -0.38461538  0.30769231 -0.00000000       0.011
  -0.30769231  0.30769231 -0.00000000       0.005
   0.38461538  0.38461538  0.00000000       0.003
   0.46153846  0.38461538  0.00000000       0.011
  -0.46153846  0.38461538  0.00000000       0.011
  -0.38461538  0.38461538 -0.00000000       0.005
   0.46153846  0.46153846  0.00000000       0.003
  -0.46153846  0.46153846 -0.00000000       0.005
   0.23076923  0.15384615  0.07692308       0.011
   0.30769231  0.15384615  0.07692308       0.022
   0.38461538  0.15384615  0.07692308       0.022
   0.46153846  0.15384615  0.07692308       0.022
  -0.46153846  0.15384615  0.07692308       0.022
   0.30769231  0.23076923  0.07692308       0.011
   0.38461538  0.23076923  0.07692308       0.022
   0.46153846  0.23076923  0.07692308       0.022
  -0.46153846  0.23076923  0.07692308       0.022
  -0.38461538  0.23076923  0.07692308       0.022
  -0.30769231  0.23076923  0.07692308       0.022
  -0.23076923  0.23076923  0.07692308       0.022
  -0.15384615  0.23076923  0.07692308       0.011
   0.38461538  0.30769231  0.07692308       0.011
   0.46153846  0.30769231  0.07692308       0.022
  -0.46153846  0.30769231  0.07692308       0.022
  -0.38461538  0.30769231  0.07692308       0.022
  -0.30769231  0.30769231  0.07692308       0.022
  -0.23076923  0.30769231  0.07692308       0.011
   0.46153846  0.38461538  0.07692308       0.011
  -0.46153846  0.38461538  0.07692308       0.022
  -0.38461538  0.38461538  0.07692308       0.022
  -0.30769231  0.38461538  0.07692308       0.011
  -0.46153846  0.46153846  0.07692308       0.011
  -0.38461538  0.46153846  0.07692308       0.011
   0.46153846  0.30769231  0.15384615       0.011
  -0.46153846  0.30769231  0.15384615       0.022
  -0.38461538  0.30769231  0.15384615       0.022
  -0.46153846  0.38461538  0.15384615       0.011
  -0.38461538  0.38461538  0.15384615       0.022
  -0.30769231  0.38461538  0.15384615       0.022
  -0.23076923  0.38461538  0.15384615       0.011
  -0.38461538  0.46153846  0.15384615       0.011
  -0.30769231  0.46153846  0.15384615       0.011
  -0.30769231  0.46153846  0.23076923       0.011

 position of ions in fractional coordinates (direct lattice)
   0.25000000  0.25000000  0.25000000
   0.75000000  0.75000000  0.75000000
   0.00000000  0.00000000  0.00000000

 position of ions in cartesian coordinates  (Angst):
   1.64768714  1.64768714  1.64768714
   4.94306142  4.94306142  4.94306142
   0.00000000  0.00000000  0.00000000



--------------------------------------------------------------------------------------------------------


 k-point  1 :   0.0000 0.0000 0.0000  plane waves:    2975
 k-point  2 :   0.0769 0.0000-0.0000  plane waves:    3005
 k-point  3 :   0.1538-0.0000 0.0000  plane waves:    3002
 k-point  4 :   0.2308 0.0000-0.0000  plane waves:    2989
 k-point  5 :   0.3077-0.0000 0.0000  plane waves:    2995
 k-point  6 :   0.3846-0.0000 0.0000  plane waves:    2992
 k-point  7 :   0.4615-0.0000 0.0000  plane waves:    3007
 k-point  8 :   0.0769 0.0769 0.0000  plane waves:    3003
 k-point  9 :   0.1538 0.0769 0.0000  plane waves:    2997
 k-point 10 :   0.2308 0.0769 0.0000  plane waves:    2992
 k-point 11 :   0.3077 0.0769 0.0000  plane waves:    2994
 k-point 12 :   0.3846 0.0769 0.0000  plane waves:    3001
 k-point 13 :   0.4615 0.0769 0.0000  plane waves:    3009
 k-point 14 :  -0.4615 0.0769 0.0000  plane waves:    3003
 k-point 15 :  -0.3846 0.0769 0.0000  plane waves:    2998
 k-point 16 :  -0.3077 0.0769-0.0000  plane waves:    2993
 k-point 17 :  -0.2308 0.0769 0.0000  plane waves:    2991
 k-point 18 :  -0.1538 0.0769 0.0000  plane waves:    2992
 k-point 19 :  -0.0769 0.0769 0.0000  plane waves:    3010
 k-point 20 :   0.1538 0.1538 0.0000  plane waves:    2982
 k-point 21 :   0.2308 0.1538 0.0000  plane waves:    2996
 k-point 22 :   0.3077 0.1538 0.0000  plane waves:    2992
 k-point 23 :   0.3846 0.1538 0.0000  plane waves:    2999
 k-point 24 :   0.4615 0.1538 0.0000  plane waves:    3013
 k-point 25 :  -0.4615 0.1538-0.0000  plane waves:    3024
 k-point 26 :  -0.3846 0.1538 0.0000  plane waves:    3016
 k-point 27 :  -0.3077 0.1538-0.0000  plane waves:    3018
 k-point 28 :  -0.2308 0.1538-0.0000  plane waves:    3011
 k-point 29 :  -0.1538 0.1538-0.0000  plane waves:    2998
 k-point 30 :   0.2308 0.2308 0.0000  plane waves:    2998
 k-point 31 :   0.3077 0.2308 0.0000  plane waves:    3010
 k-point 32 :   0.3846 0.2308 0.0000  plane waves:    3003
 k-point 33 :   0.4615 0.2308 0.0000  plane waves:    3014
 k-point 34 :  -0.4615 0.2308-0.0000  plane waves:    3007
 k-point 35 :  -0.3846 0.2308 0.0000  plane waves:    3013
 k-point 36 :  -0.3077 0.2308 0.0000  plane waves:    3016
 k-point 37 :  -0.2308 0.2308 0.0000  plane waves:    3008
 k-point 38 :   0.3077 0.3077 0.0000  plane waves:    3018
 k-point 39 :   0.3846 0.3077 0.0000  plane waves:    3014
 k-point 40 :   0.4615 0.3077 0.0000  plane waves:    3015
 k-point 41 :  -0.4615 0.3077 0.0000  plane waves:    3011
 k-point 42 :  -0.3846 0.3077-0.0000  plane waves:    3014
 k-point 43 :  -0.3077 0.3077-0.0000  plane waves:    3018
 k-point 44 :   0.3846 0.3846 0.0000  plane waves:    3018
 k-point 45 :   0.4615 0.3846 0.0000  plane waves:    3007
 k-point 46 :  -0.4615 0.3846 0.0000  plane waves:    3008
 k-point 47 :  -0.3846 0.3846-0.0000  plane waves:    3020
 k-point 48 :   0.4615 0.4615 0.0000  plane waves:    3006
 k-point 49 :  -0.4615 0.4615-0.0000  plane waves:    2998
 k-point 50 :   0.2308 0.1538 0.0769  plane waves:    2986
 k-point 51 :   0.3077 0.1538 0.0769  plane waves:    2994
 k-point 52 :   0.3846 0.1538 0.0769  plane waves:    3002
 k-point 53 :   0.4615 0.1538 0.0769  plane waves:    3012
 k-point 54 :  -0.4615 0.1538 0.0769  plane waves:    3017
 k-point 55 :   0.3077 0.2308 0.0769  plane waves:    3001
 k-point 56 :   0.3846 0.2308 0.0769  plane waves:    3000
 k-point 57 :   0.4615 0.2308 0.0769  plane waves:    3007
 k-point 58 :  -0.4615 0.2308 0.0769  plane waves:    3014
 k-point 59 :  -0.3846 0.2308 0.0769  plane waves:    3016
 k-point 60 :  -0.3077 0.2308 0.0769  plane waves:    3012
 k-point 61 :  -0.2308 0.2308 0.0769  plane waves:    3010
 k-point 62 :  -0.1538 0.2308 0.0769  plane waves:    3002
 k-point 63 :   0.3846 0.3077 0.0769  plane waves:    3005
 k-point 64 :   0.4615 0.3077 0.0769  plane waves:    3006
 k-point 65 :  -0.4615 0.3077 0.0769  plane waves:    3018
 k-point 66 :  -0.3846 0.3077 0.0769  plane waves:    3020
 k-point 67 :  -0.3077 0.3077 0.0769  plane waves:    3026
 k-point 68 :  -0.2308 0.3077 0.0769  plane waves:    3017
 k-point 69 :   0.4615 0.3846 0.0769  plane waves:    3007
 k-point 70 :  -0.4615 0.3846 0.0769  plane waves:    3022
 k-point 71 :  -0.3846 0.3846 0.0769  plane waves:    3016
 k-point 72 :  -0.3077 0.3846 0.0769  plane waves:    3020
 k-point 73 :  -0.4615 0.4615 0.0769  plane waves:    3011
 k-point 74 :  -0.3846 0.4615 0.0769  plane waves:    2998
 k-point 75 :   0.4615 0.3077 0.1538  plane waves:    3011
 k-point 76 :  -0.4615 0.3077 0.1538  plane waves:    3023
 k-point 77 :  -0.3846 0.3077 0.1538  plane waves:    3019
 k-point 78 :  -0.4615 0.3846 0.1538  plane waves:    3024
 k-point 79 :  -0.3846 0.3846 0.1538  plane waves:    3027
 k-point 80 :  -0.3077 0.3846 0.1538  plane waves:    3020
 k-point 81 :  -0.2308 0.3846 0.1538  plane waves:    3020
 k-point 82 :  -0.3846 0.4615 0.1538  plane waves:    3025
 k-point 83 :  -0.3077 0.4615 0.1538  plane waves:    3014
 k-point 84 :  -0.3077 0.4615 0.2308  plane waves:    3024

 maximum and minimum number of plane-waves per node :       774      734

 maximum number of plane-waves:      3027
 maximum index in each direction:
   IXMAX=   10   IYMAX=   10   IZMAX=   10
   IXMIN=  -10   IYMIN=  -10   IZMIN=  -10


 parallel 3D FFT for wavefunctions:
    minimum data exchange during FFTs selected (reduces bandwidth)
 parallel 3D FFT for charge:
    minimum data exchange during FFTs selected (reduces bandwidth)


 total amount of memory used by VASP MPI-rank0    94599. kBytes
=======================================================================

   base      :      30000. kBytes
   nonl-proj :      50098. kBytes
   fftplans  :       5205. kBytes
   grid      :       2732. kBytes
   one-center:         49. kBytes
   wavefun   :       6515. kBytes

     INWAV:  cpu time    0.0002: real time    0.0074
 Broyden mixing: mesh for mixing (old mesh)
   NGX = 21   NGY = 21   NGZ = 21
  (NGX  = 80   NGY  = 80   NGZ  = 80)
  gives a total of   9261 points

 initial charge density was supplied:
 charge density of overlapping atoms calculated
 number of electron      39.0000000 magnetization
 keeping initial charge density in first step


--------------------------------------------------------------------------------------------------------


 Maximum index for augmentation-charges        26612 (set IRDMAX)


--------------------------------------------------------------------------------------------------------


 First call to EWALD:  gamma=   0.427
 Maximum number of real-space cells 3x 3x 3
 Maximum number of reciprocal cells 3x 3x 3

    FEWALD:  cpu time    0.0056: real time    0.0068


--------------------------------------- Iteration      1(   1)  ---------------------------------------


    POTLOK:  cpu time    0.0466: real time    0.1769
    SETDIJ:  cpu time    0.0892: real time    0.0899
     EDDAV:  cpu time    1.4498: real time    1.4751
       DOS:  cpu time    0.0036: real time    0.0048
    --------------------------------------------
      LOOP:  cpu time    1.5894: real time    1.7474

 eigenvalue-minimisations  :  4032
 total energy-change (2. order) : 0.4310539E+03  (-0.2241535E+04)
 number of electron      39.0000000 magnetization
 augmentation part       39.0000000 magnetization

 Free energy of the ion-electron system (eV)
  ---------------------------------------------------
  alpha Z        PSCENC =       219.70526648
  Ewald energy   TEWEN  =     -3617.58899574
  -Hartree energ DENC   =      -773.72158176
  -exchange      EXHF   =         0.00000000
  -V(xc)+E(xc)   XCENC  =        90.59294901
  PAW double counting   =      3513.29252893    -3436.88002192
  entropy T*S    EENTRO =        -0.00004483
  eigenvalues    EBANDS =       340.30172965
  atomic energy  EATOM  =      4095.35208632
  Solvation  Ediel_sol  =         0.00000000
  ---------------------------------------------------
  free energy    TOTEN  =       431.05391614 eV

  energy without entropy =      431.05396097  energy(sigma->0) =      431.05393856


--------------------------------------------------------------------------------------------------------




--------------------------------------- Iteration      1(   2)  ---------------------------------------


     EDDAV:  cpu time    1.5518: real time    1.5795
       DOS:  cpu time    0.0031: real time    0.0033
    --------------------------------------------
      LOOP:  cpu time    1.5549: real time    1.5859

 eigenvalue-minimisations  :  4472
 total energy-change (2. order) :-0.4020178E+03  (-0.3942064E+03)
 number of electron      39.0000000 magnetization
 augmentation part       39.0000000 magnetization

 Free energy of the ion-electron system (eV)
  ---------------------------------------------------
  alpha Z        PSCENC =       219.70526648
  Ewald energy   TEWEN  =     -3617.58899574
  -Hartree energ DENC   =      -773.72158176
  -exchange      EXHF   =         0.00000000
  -V(xc)+E(xc)   XCENC  =        90.59294901
  PAW double counting   =      3513.29252893    -3436.88002192
  entropy T*S    EENTRO =        -0.00039405
  eigenvalues    EBANDS =       -61.71570525
  atomic energy  EATOM  =      4095.35208632
  Solvation  Ediel_sol  =         0.00000000
  ---------------------------------------------------
  free energy    TOTEN  =        29.03613203 eV

  energy without entropy =       29.03652608  energy(sigma->0) =       29.03632905


--------------------------------------------------------------------------------------------------------




--------------------------------------- Iteration      1(   3)  ---------------------------------------


     EDDAV:  cpu time    1.7112: real time    1.7344
       DOS:  cpu time    0.0031: real time    0.0034
    --------------------------------------------
      LOOP:  cpu time    1.7144: real time    1.7355

 eigenvalue-minimisations  :  5024
 total energy-change (2. order) :-0.4987198E+02  (-0.4871028E+02)
 number of electron      39.0000000 magnetization
 augmentation part       39.0000000 magnetization

 Free energy of the ion-electron system (eV)
  ---------------------------------------------------
  alpha Z        PSCENC =       219.70526648
  Ewald energy   TEWEN  =     -3617.58899574
  -Hartree energ DENC   =      -773.72158176
  -exchange      EXHF   =         0.00000000
  -V(xc)+E(xc)   XCENC  =        90.59294901
  PAW double counting   =      3513.29252893    -3436.88002192
  entropy T*S    EENTRO =        -0.00082969
  eigenvalues    EBANDS =      -111.58724514
  atomic energy  EATOM  =      4095.35208632
  Solvation  Ediel_sol  =         0.00000000
  ---------------------------------------------------
  free energy    TOTEN  =       -20.83584350 eV

  energy without entropy =      -20.83501382  energy(sigma->0) =      -20.83542866


--------------------------------------------------------------------------------------------------------




--------------------------------------- Iteration      1(   4)  ---------------------------------------


     EDDAV:  cpu time    2.3260: real time    2.3481
       DOS:  cpu time    0.0032: real time    0.0035
    --------------------------------------------
      LOOP:  cpu time    2.3293: real time    2.3539

 eigenvalue-minimisations  :  7440
 total energy-change (2. order) :-0.5102637E+01  (-0.5079907E+01)
 number of electron      39.0000000 magnetization
 augmentation part       39.0000000 magnetization

 Free energy of the ion-electron system (eV)
  ---------------------------------------------------
  alpha Z        PSCENC =       219.70526648
  Ewald energy   TEWEN  =     -3617.58899574
  -Hartree energ DENC   =      -773.72158176
  -exchange      EXHF   =         0.00000000
  -V(xc)+E(xc)   XCENC  =        90.59294901
  PAW double counting   =      3513.29252893    -3436.88002192
  entropy T*S    EENTRO =        -0.00102858
  eigenvalues    EBANDS =      -116.68968288
  atomic energy  EATOM  =      4095.35208632
  Solvation  Ediel_sol  =         0.00000000
  ---------------------------------------------------
  free energy    TOTEN  =       -25.93848014 eV

  energy without entropy =      -25.93745156  energy(sigma->0) =      -25.93796585


--------------------------------------------------------------------------------------------------------




--------------------------------------- Iteration      1(   5)  ---------------------------------------


     EDDAV:  cpu time    1.8148: real time    1.8455
       DOS:  cpu time    0.0032: real time    0.0036
    CHARGE:  cpu time    0.3250: real time    0.3256
    MIXING:  cpu time    0.0073: real time    0.0079
    --------------------------------------------
      LOOP:  cpu time    2.1503: real time    2.1820

 eigenvalue-minimisations  :  5600
 total energy-change (2. order) :-0.1735886E+00  (-0.1732778E+00)
 number of electron      39.0000000 magnetization
 augmentation part        8.7944292 magnetization

 Broyden mixing:
  rms(total) = 0.15009E+01    rms(broyden)= 0.15009E+01
  rms(prec ) = 0.43768E+01
  weight for this iteration     100.00

 Free energy of the ion-electron system (eV)
  ---------------------------------------------------
  alpha Z        PSCENC =       219.70526648
  Ewald energy   TEWEN  =     -3617.58899574
  -Hartree energ DENC   =      -773.72158176
  -exchange      EXHF   =         0.00000000
  -V(xc)+E(xc)   XCENC  =        90.59294901
  PAW double counting   =      3513.29252893    -3436.88002192
  entropy T*S    EENTRO =        -0.00089341
  eigenvalues    EBANDS =      -116.86340668
  atomic energy  EATOM  =      4095.35208632
  Solvation  Ediel_sol  =         0.00000000
  ---------------------------------------------------
  free energy    TOTEN  =       -26.11206876 eV

  energy without entropy =      -26.11117536  energy(sigma->0) =      -26.11162206


--------------------------------------------------------------------------------------------------------




--------------------------------------- Iteration      1(   6)  ---------------------------------------


    POTLOK:  cpu time    0.0320: real time    0.0645
    SETDIJ:  cpu time    0.0835: real time    0.0836
     EDDAV:  cpu time    1.9269: real time    1.9298
       DOS:  cpu time    0.0031: real time    0.0033
    CHARGE:  cpu time    0.2849: real time    0.2871
    MIXING:  cpu time    0.0052: real time    0.0055
    --------------------------------------------
      LOOP:  cpu time    2.3355: real time    2.3738

 eigenvalue-minimisations  :  6088
 total energy-change (2. order) :-0.6851799E+01  (-0.1891437E+02)
 number of electron      39.0000000 magnetization
 augmentation part        7.0168351 magnetization

 Broyden mixing:
  rms(total) = 0.22077E+01    rms(broyden)= 0.22077E+01
  rms(prec ) = 0.59387E+01
  weight for this iteration     100.00

 eigenvalues of (default mixing * dielectric matrix)
  average eigenvalue GAMMA=   0.3486
  0.3486

 Free energy of the ion-electron system (eV)
  ---------------------------------------------------
  alpha Z        PSCENC =       219.70526648
  Ewald energy   TEWEN  =     -3617.58899574
  -Hartree energ DENC   =      -780.55367379
  -exchange      EXHF   =         0.00000000
  -V(xc)+E(xc)   XCENC  =        91.09491906
  PAW double counting   =      3841.54805615    -3765.64760883
  entropy T*S    EENTRO =        -0.00014542
  eigenvalues    EBANDS =      -116.87377157
  atomic energy  EATOM  =      4095.35208632
  Solvation  Ediel_sol  =         0.00000000
  ---------------------------------------------------
  free energy    TOTEN  =       -32.96386734 eV

  energy without entropy =      -32.96372192  energy(sigma->0) =      -32.96379463


--------------------------------------------------------------------------------------------------------




--------------------------------------- Iteration      1(   7)  ---------------------------------------


    POTLOK:  cpu time    0.0331: real time    0.0604
    SETDIJ:  cpu time    0.0851: real time    0.0853
     EDDAV:  cpu time    1.9008: real time    1.9014
       DOS:  cpu time    0.0031: real time    0.0041
    CHARGE:  cpu time    0.2646: real time    0.2655
    MIXING:  cpu time    0.0044: real time    0.0060
    --------------------------------------------
      LOOP:  cpu time    2.2912: real time    2.3227

 eigenvalue-minimisations  :  5840
 total energy-change (2. order) : 0.8409442E+01  (-0.2644357E+01)
 number of electron      39.0000000 magnetization
 augmentation part        7.5888410 magnetization

 Broyden mixing:
  rms(total) = 0.95095E+00    rms(broyden)= 0.95095E+00
  rms(prec ) = 0.26934E+01
  weight for this iteration     100.00

 eigenvalues of (default mixing * dielectric matrix)
  average eigenvalue GAMMA=   0.7714
  0.7714  0.7714

 Free energy of the ion-electron system (eV)
  ---------------------------------------------------
  alpha Z        PSCENC =       219.70526648
  Ewald energy   TEWEN  =     -3617.58899574
  -Hartree energ DENC   =      -767.84674372
  -exchange      EXHF   =         0.00000000
  -V(xc)+E(xc)   XCENC  =        90.48243799
  PAW double counting   =      3949.22332884    -3877.58091570
  entropy T*S    EENTRO =        -0.00092484
  eigenvalues    EBANDS =      -116.29996460
  atomic energy  EATOM  =      4095.35208632
  Solvation  Ediel_sol  =         0.00000000
  ---------------------------------------------------
  free energy    TOTEN  =       -24.55442498 eV

  energy without entropy =      -24.55350014  energy(sigma->0) =      -24.55396256


--------------------------------------------------------------------------------------------------------




--------------------------------------- Iteration      1(   8)  ---------------------------------------


    POTLOK:  cpu time    0.0394: real time    0.0627
    SETDIJ:  cpu time    0.0854: real time    0.0855
     EDDAV:  cpu time    1.8718: real time    1.8721
       DOS:  cpu time    0.0032: real time    0.0033
    CHARGE:  cpu time    0.2708: real time    0.2710
    MIXING:  cpu time    0.0065: real time    0.0066
    --------------------------------------------
      LOOP:  cpu time    2.2771: real time    2.3001

 eigenvalue-minimisations  :  5912
 total energy-change (2. order) : 0.6564909E-01  (-0.2805877E+01)
 number of electron      39.0000000 magnetization
 augmentation part        8.7682830 magnetization

 Broyden mixing:
  rms(total) = 0.75962E+00    rms(broyden)= 0.75962E+00
  rms(prec ) = 0.24859E+01
  weight for this iteration     100.00

 eigenvalues of (default mixing * dielectric matrix)
  average eigenvalue GAMMA=   0.9781
  1.8190  0.5577  0.5577

 Free energy of the ion-electron system (eV)
  ---------------------------------------------------
  alpha Z        PSCENC =       219.70526648
  Ewald energy   TEWEN  =     -3617.58899574
  -Hartree energ DENC   =      -757.90352956
  -exchange      EXHF   =         0.00000000
  -V(xc)+E(xc)   XCENC  =        90.06033701
  PAW double counting   =      4052.34338133    -3983.90574469
  entropy T*S    EENTRO =        -0.00120193
  eigenvalues    EBANDS =      -122.55037511
  atomic energy  EATOM  =      4095.35208632
  Solvation  Ediel_sol  =         0.00000000
  ---------------------------------------------------
  free energy    TOTEN  =       -24.48877589 eV

  energy without entropy =      -24.48757396  energy(sigma->0) =      -24.48817492


--------------------------------------------------------------------------------------------------------




--------------------------------------- Iteration      1(   9)  ---------------------------------------


    POTLOK:  cpu time    0.0364: real time    0.0576
    SETDIJ:  cpu time    0.0847: real time    0.0849
     EDDAV:  cpu time    1.9396: real time    1.9399
       DOS:  cpu time    0.0032: real time    0.0034
    CHARGE:  cpu time    0.2661: real time    0.2662
    MIXING:  cpu time    0.0066: real time    0.0068
    --------------------------------------------
      LOOP:  cpu time    2.3366: real time    2.3602

 eigenvalue-minimisations  :  6200
 total energy-change (2. order) : 0.7346977E+00  (-0.8468094E+00)
 number of electron      39.0000000 magnetization
 augmentation part        7.9733090 magnetization

 Broyden mixing:
  rms(total) = 0.13852E+00    rms(broyden)= 0.13852E+00
  rms(prec ) = 0.30392E+00
  weight for this iteration     100.00

 eigenvalues of (default mixing * dielectric matrix)
  average eigenvalue GAMMA=   0.9757
  2.1804  0.5847  0.5847  0.5529

 Free energy of the ion-electron system (eV)
  ---------------------------------------------------
  alpha Z        PSCENC =       219.70526648
  Ewald energy   TEWEN  =     -3617.58899574
  -Hartree energ DENC   =      -761.31945784
  -exchange      EXHF   =         0.00000000
  -V(xc)+E(xc)   XCENC  =        90.24872777
  PAW double counting   =      4197.43430220    -4130.08271760
  entropy T*S    EENTRO =        -0.00123914
  eigenvalues    EBANDS =      -117.50205065
  atomic energy  EATOM  =      4095.35208632
  Solvation  Ediel_sol  =         0.00000000
  ---------------------------------------------------
  free energy    TOTEN  =       -23.75407820 eV

  energy without entropy =      -23.75283906  energy(sigma->0) =      -23.75345863


--------------------------------------------------------------------------------------------------------




--------------------------------------- Iteration      1(  10)  ---------------------------------------


    POTLOK:  cpu time    0.0547: real time    0.0982
    SETDIJ:  cpu time    0.0846: real time    0.0852
     EDDAV:  cpu time    2.0953: real time    2.0957
       DOS:  cpu time    0.0032: real time    0.0034
    CHARGE:  cpu time    0.2678: real time    0.2680
    MIXING:  cpu time    0.0075: real time    0.0076
    --------------------------------------------
      LOOP:  cpu time    2.5131: real time    2.5584

 eigenvalue-minimisations  :  6680
 total energy-change (2. order) :-0.2774726E-01  (-0.3446983E-01)
 number of electron      39.0000000 magnetization
 augmentation part        7.9585724 magnetization

 Broyden mixing:
  rms(total) = 0.12143E+00    rms(broyden)= 0.12143E+00
  rms(prec ) = 0.39783E+00
  weight for this iteration     100.00

 eigenvalues of (default mixing * dielectric matrix)
  average eigenvalue GAMMA=   0.9604
  1.8946  0.5485  0.5485  1.0801  0.7302

 Free energy of the ion-electron system (eV)
  ---------------------------------------------------
  alpha Z        PSCENC =       219.70526648
  Ewald energy   TEWEN  =     -3617.58899574
  -Hartree energ DENC   =      -759.98808947
  -exchange      EXHF   =         0.00000000
  -V(xc)+E(xc)   XCENC  =        90.20780707
  PAW double counting   =      4258.63058584    -4192.03169948
  entropy T*S    EENTRO =        -0.00134385
  eigenvalues    EBANDS =      -118.06744264
  atomic energy  EATOM  =      4095.35208632
  Solvation  Ediel_sol  =         0.00000000
  ---------------------------------------------------
  free energy    TOTEN  =       -23.78182547 eV

  energy without entropy =      -23.78048162  energy(sigma->0) =      -23.78115354


--------------------------------------------------------------------------------------------------------




--------------------------------------- Iteration      1(  11)  ---------------------------------------


    POTLOK:  cpu time    0.0313: real time    0.0648
    SETDIJ:  cpu time    0.0848: real time    0.0850
     EDDAV:  cpu time    1.9109: real time    1.9111
       DOS:  cpu time    0.0033: real time    0.0036
    CHARGE:  cpu time    0.2658: real time    0.2660
    MIXING:  cpu time    0.0067: real time    0.0067
    --------------------------------------------
      LOOP:  cpu time    2.3028: real time    2.3361

 eigenvalue-minimisations  :  5968
 total energy-change (2. order) : 0.2581697E-01  (-0.2009975E-01)
 number of electron      39.0000000 magnetization
 augmentation part        8.0660452 magnetization

 Broyden mixing:
  rms(total) = 0.28913E-01    rms(broyden)= 0.28913E-01
  rms(prec ) = 0.43536E-01
  weight for this iteration     100.00

 eigenvalues of (default mixing * dielectric matrix)
  average eigenvalue GAMMA=   1.2111
  2.3184  2.3184  0.5508  0.5508  0.8801  0.6483

 Free energy of the ion-electron system (eV)
  ---------------------------------------------------
  alpha Z        PSCENC =       219.70526648
  Ewald energy   TEWEN  =     -3617.58899574
  -Hartree energ DENC   =      -759.38839599
  -exchange      EXHF   =         0.00000000
  -V(xc)+E(xc)   XCENC  =        90.17356356
  PAW double counting   =      4248.98130632    -4182.42726430
  entropy T*S    EENTRO =        -0.00157557
  eigenvalues    EBANDS =      -118.56199957
  atomic energy  EATOM  =      4095.35208632
  Solvation  Ediel_sol  =         0.00000000
  ---------------------------------------------------
  free energy    TOTEN  =       -23.75600849 eV

  energy without entropy =      -23.75443292  energy(sigma->0) =      -23.75522071


--------------------------------------------------------------------------------------------------------




--------------------------------------- Iteration      1(  12)  ---------------------------------------


    POTLOK:  cpu time    0.0320: real time    0.0616
    SETDIJ:  cpu time    0.0849: real time    0.0851
     EDDAV:  cpu time    2.0823: real time    2.0826
       DOS:  cpu time    0.0033: real time    0.0036
    CHARGE:  cpu time    0.2645: real time    0.2646
    MIXING:  cpu time    0.0107: real time    0.0111
    --------------------------------------------
      LOOP:  cpu time    2.4776: real time    2.5079

 eigenvalue-minimisations  :  6680
 total energy-change (2. order) :-0.4928740E-03  (-0.6158166E-03)
 number of electron      39.0000000 magnetization
 augmentation part        8.0647001 magnetization

 Broyden mixing:
  rms(total) = 0.89946E-02    rms(broyden)= 0.89946E-02
  rms(prec ) = 0.23029E-01
  weight for this iteration     100.00

 eigenvalues of (default mixing * dielectric matrix)
  average eigenvalue GAMMA=   1.2379
  2.6508  2.2385  1.0204  1.0204  0.5522  0.5522  0.6304

 Free energy of the ion-electron system (eV)
  ---------------------------------------------------
  alpha Z        PSCENC =       219.70526648
  Ewald energy   TEWEN  =     -3617.58899574
  -Hartree energ DENC   =      -759.36946420
  -exchange      EXHF   =         0.00000000
  -V(xc)+E(xc)   XCENC  =        90.16998084
  PAW double counting   =      4259.30198213    -4192.75754219
  entropy T*S    EENTRO =        -0.00160865
  eigenvalues    EBANDS =      -118.56820636
  atomic energy  EATOM  =      4095.35208632
  Solvation  Ediel_sol  =         0.00000000
  ---------------------------------------------------
  free energy    TOTEN  =       -23.75650136 eV

  energy without entropy =      -23.75489272  energy(sigma->0) =      -23.75569704


--------------------------------------------------------------------------------------------------------




--------------------------------------- Iteration      1(  13)  ---------------------------------------


    POTLOK:  cpu time    0.0402: real time    0.0657
    SETDIJ:  cpu time    0.0836: real time    0.0837
     EDDAV:  cpu time    1.9323: real time    1.9326
       DOS:  cpu time    0.0032: real time    0.0034
    CHARGE:  cpu time    0.2661: real time    0.2662
    MIXING:  cpu time    0.0078: real time    0.0079
    --------------------------------------------
      LOOP:  cpu time    2.3331: real time    2.3587

 eigenvalue-minimisations  :  6192
 total energy-change (2. order) : 0.8487988E-04  (-0.8266046E-04)
 number of electron      39.0000000 magnetization
 augmentation part        8.0583824 magnetization

 Broyden mixing:
  rms(total) = 0.20751E-02    rms(broyden)= 0.20751E-02
  rms(prec ) = 0.36034E-02
  weight for this iteration     100.00

 eigenvalues of (default mixing * dielectric matrix)
  average eigenvalue GAMMA=   1.2678
  2.5551  2.2601  1.7077  0.5522  0.5522  0.9407  0.9407  0.6334

 Free energy of the ion-electron system (eV)
  ---------------------------------------------------
  alpha Z        PSCENC =       219.70526648
  Ewald energy   TEWEN  =     -3617.58899574
  -Hartree energ DENC   =      -759.47369655
  -exchange      EXHF   =         0.00000000
  -V(xc)+E(xc)   XCENC  =        90.17298018
  PAW double counting   =      4259.18949726    -4192.55618930
  entropy T*S    EENTRO =        -0.00159271
  eigenvalues    EBANDS =      -118.55577242
  atomic energy  EATOM  =      4095.35208632
  Solvation  Ediel_sol  =         0.00000000
  ---------------------------------------------------
  free energy    TOTEN  =       -23.75641648 eV

  energy without entropy =      -23.75482377  energy(sigma->0) =      -23.75562013


--------------------------------------------------------------------------------------------------------




--------------------------------------- Iteration      1(  14)  ---------------------------------------


    POTLOK:  cpu time    0.0528: real time    0.0880
    SETDIJ:  cpu time    0.0848: real time    0.0849
     EDDAV:  cpu time    2.2237: real time    2.2241
       DOS:  cpu time    0.0033: real time    0.0035
    CHARGE:  cpu time    0.2695: real time    0.2696
    MIXING:  cpu time    0.0075: real time    0.0075
    --------------------------------------------
      LOOP:  cpu time    2.6415: real time    2.6796

 eigenvalue-minimisations  :  7104
 total energy-change (2. order) :-0.1207338E-04  (-0.1490337E-04)
 number of electron      39.0000000 magnetization
 augmentation part        8.0593766 magnetization

 Broyden mixing:
  rms(total) = 0.28010E-02    rms(broyden)= 0.28010E-02
  rms(prec ) = 0.89328E-02
  weight for this iteration     100.00

 eigenvalues of (default mixing * dielectric matrix)
  average eigenvalue GAMMA=   1.2619
  2.5864  2.0806  1.7282  0.5522  0.5522  1.1341  1.1341  0.9541  0.6354

 Free energy of the ion-electron system (eV)
  ---------------------------------------------------
  alpha Z        PSCENC =       219.70526648
  Ewald energy   TEWEN  =     -3617.58899574
  -Hartree energ DENC   =      -759.47325979
  -exchange      EXHF   =         0.00000000
  -V(xc)+E(xc)   XCENC  =        90.17240055
  PAW double counting   =      4260.21787149    -4193.55707893
  entropy T*S    EENTRO =        -0.00160037
  eigenvalues    EBANDS =      -118.58311856
  atomic energy  EATOM  =      4095.35208632
  Solvation  Ediel_sol  =         0.00000000
  ---------------------------------------------------
  free energy    TOTEN  =       -23.75642856 eV

  energy without entropy =      -23.75482818  energy(sigma->0) =      -23.75562837


--------------------------------------------------------------------------------------------------------




--------------------------------------- Iteration      1(  15)  ---------------------------------------


    POTLOK:  cpu time    0.0360: real time    0.0701
    SETDIJ:  cpu time    0.0848: real time    0.0849
     EDDAV:  cpu time    1.9877: real time    1.9880
       DOS:  cpu time    0.0042: real time    0.0048
    CHARGE:  cpu time    0.2640: real time    0.2654
    MIXING:  cpu time    0.0082: real time    0.0083
    --------------------------------------------
      LOOP:  cpu time    2.3849: real time    2.4199

 eigenvalue-minimisations  :  6328
 total energy-change (2. order) : 0.1057960E-04  (-0.6372930E-05)
 number of electron      39.0000000 magnetization
 augmentation part        8.0587104 magnetization

 Broyden mixing:
  rms(total) = 0.93413E-03    rms(broyden)= 0.93410E-03
  rms(prec ) = 0.27940E-02
  weight for this iteration     100.00

 eigenvalues of (default mixing * dielectric matrix)
  average eigenvalue GAMMA=   1.2994
  2.6709  2.1236  2.1236  0.5522  0.5522  1.3962  0.6366  1.0388  1.0388  0.8618

 Free energy of the ion-electron system (eV)
  ---------------------------------------------------
  alpha Z        PSCENC =       219.70526648
  Ewald energy   TEWEN  =     -3617.58899574
  -Hartree energ DENC   =      -759.47412095
  -exchange      EXHF   =         0.00000000
  -V(xc)+E(xc)   XCENC  =        90.17256607
  PAW double counting   =      4260.68183334    -4194.02728112
  entropy T*S    EENTRO =        -0.00159588
  eigenvalues    EBANDS =      -118.57617648
  atomic energy  EATOM  =      4095.35208632
  Solvation  Ediel_sol  =         0.00000000
  ---------------------------------------------------
  free energy    TOTEN  =       -23.75641798 eV

  energy without entropy =      -23.75482210  energy(sigma->0) =      -23.75562004


--------------------------------------------------------------------------------------------------------




--------------------------------------- Iteration      1(  16)  ---------------------------------------


    POTLOK:  cpu time    0.0389: real time    0.0805
    SETDIJ:  cpu time    0.0836: real time    0.0837
     EDDAV:  cpu time    2.2295: real time    2.2298
       DOS:  cpu time    0.0032: real time    0.0035
    CHARGE:  cpu time    0.2687: real time    0.2688
    MIXING:  cpu time    0.0063: real time    0.0193
    --------------------------------------------
      LOOP:  cpu time    2.6301: real time    2.6881

 eigenvalue-minimisations  :  7280
 total energy-change (2. order) : 0.4505955E-06  (-0.2094779E-05)
 number of electron      39.0000000 magnetization
 augmentation part        8.0578247 magnetization

 Broyden mixing:
  rms(total) = 0.56636E-03    rms(broyden)= 0.56630E-03
  rms(prec ) = 0.16348E-02
  weight for this iteration     100.00

 eigenvalues of (default mixing * dielectric matrix)
  average eigenvalue GAMMA=   1.2757
  2.7356  2.2033  2.2033  1.4607  0.5522  0.5522  1.0519  1.0519  0.6348  0.7934
  0.7934

 Free energy of the ion-electron system (eV)
  ---------------------------------------------------
  alpha Z        PSCENC =       219.70526648
  Ewald energy   TEWEN  =     -3617.58899574
  -Hartree energ DENC   =      -759.48543873
  -exchange      EXHF   =         0.00000000
  -V(xc)+E(xc)   XCENC  =        90.17299078
  PAW double counting   =      4260.95150479    -4194.29134135
  entropy T*S    EENTRO =        -0.00159354
  eigenvalues    EBANDS =      -118.57089653
  atomic energy  EATOM  =      4095.35208632
  Solvation  Ediel_sol  =         0.00000000
  ---------------------------------------------------
  free energy    TOTEN  =       -23.75641753 eV

  energy without entropy =      -23.75482398  energy(sigma->0) =      -23.75562076


--------------------------------------------------------------------------------------------------------




--------------------------------------- Iteration      1(  17)  ---------------------------------------


    POTLOK:  cpu time    0.0458: real time    0.0792
    SETDIJ:  cpu time    0.0848: real time    0.0849
     EDDAV:  cpu time    1.5725: real time    1.5727
       DOS:  cpu time    0.0032: real time    0.0035
    --------------------------------------------
      LOOP:  cpu time    1.7062: real time    1.7365

 eigenvalue-minimisations  :  4640
 total energy-change (2. order) : 0.6291975E-07  (-0.6748555E-07)
 number of electron      39.0000000 magnetization
 augmentation part        8.0578247 magnetization

 Free energy of the ion-electron system (eV)
  ---------------------------------------------------
  alpha Z        PSCENC =       219.70526648
  Ewald energy   TEWEN  =     -3617.58899574
  -Hartree energ DENC   =      -759.48471006
  -exchange      EXHF   =         0.00000000
  -V(xc)+E(xc)   XCENC  =        90.17297950
  PAW double counting   =      4260.98531935    -4194.32547805
  entropy T*S    EENTRO =        -0.00159362
  eigenvalues    EBANDS =      -118.57129163
  atomic energy  EATOM  =      4095.35208632
  Solvation  Ediel_sol  =         0.00000000
  ---------------------------------------------------
  free energy    TOTEN  =       -23.75641746 eV

  energy without entropy =      -23.75482384  energy(sigma->0) =      -23.75562065


--------------------------------------------------------------------------------------------------------




 average (electrostatic) potential at core
  the test charge radii are     1.2087  1.0856  1.2059
  (the norm of the test charge is              1.0000)
       1 -83.2401       2-100.4164       3 -64.3002



 E-fermi :  10.3726     XC(G=0): -11.6231     alpha+bet :-16.3708


 k-point     1 :       0.0000    0.0000    0.0000
  band No.  band energies     occupation
      1     -33.7306      2.00000
      2     -12.5843      2.00000
      3     -12.5843      2.00000
      4     -12.5544      2.00000
      5     -12.5544      2.00000
      6     -12.5544      2.00000
      7      -9.0423      2.00000
      8      -9.0423      2.00000
      9      -9.0423      2.00000
     10      -2.2838      2.00000
     11       5.6539      2.00000
     12       5.6539      2.00000
     13       5.6539      2.00000
     14       5.8848      2.00000
     15       5.8848      2.00000
     16       8.8274      2.00000
     17       9.1563      2.00000
     18       9.1563      2.00000
     19       9.1563      2.00000
     20      10.3089      2.00000
     21      10.3089      2.00000
     22      10.3089      2.00000
     23      10.5431      0.00000
     24      10.6274      0.00000

 k-point     2 :       0.0769    0.0000   -0.0000
  band No.  band energies     occupation
      1     -33.7303      2.00000
      2     -12.5862      2.00000
      3     -12.5862      2.00000
      4     -12.5547      2.00000
      5     -12.5542      2.00000
      6     -12.5542      2.00000
      7      -9.0587      2.00000
      8      -9.0383      2.00000
      9      -9.0383      2.00000
     10      -2.2112      2.00000
     11       5.5202      2.00000
     12       5.5202      2.00000
     13       5.5279      2.00000
     14       6.0103      2.00000
     15       6.0103      2.00000
     16       8.3505      2.00000
     17       9.0954      2.00000
     18       9.0954      2.00000
     19       9.4533      2.00000
     20      10.3057      2.00000
     21      10.3057      2.00000
     22      10.3073      2.00000
     23      10.6755      0.00000
     24      10.6978      0.00000

 k-point     3 :       0.1538   -0.0000    0.0000
  band No.  band energies     occupation
      1     -33.7294      2.00000
      2     -12.5913      2.00000
      3     -12.5913      2.00000
      4     -12.5558      2.00000
      5     -12.5535      2.00000
      6     -12.5535      2.00000
      7      -9.1024      2.00000
      8      -9.0272      2.00000
[...]
  212              fftbas_plan_mpi                       0.060534                     12   6
  213                dfftw_execute                         0.025898                   36   7
  214                map_backward                          0.004148                   12   7
  215                  map_gather                            0.000777                  6   8
  216                  m_alltoallv_z                         0.002141                  6   8
  217                  map_scatter                           0.000958                  6   8
  218                map_forward                           0.027357                   12   7
  219                  map_gather                            0.015298                  6   8
  220                  m_alltoallv_z                         0.005345                  6   8
  221                  map_scatter                           0.006404                  6   8
  222            M_sumb_d                              0.002831                        6   5
  223          M_sumb_d                              0.000029                          1   4
  224        setdij_                               1.386565                           20   3
  225          fft3d_mpi                             0.218019                         40   4
  226            fftbas_plan_mpi                       0.200907                       40   5
  227              dfftw_execute                         0.088307                    120   6
  228              map_backward                          0.013075                     40   6
  229                map_gather                            0.002648                   20   7
  230                m_alltoallv_z                         0.005948                   20   7
  231                map_scatter                           0.003540                   20   7
  232              map_forward                           0.088725                     40   6
  233                map_gather                            0.049873                   20   7
  234                m_alltoallv_z                         0.016994                   20   7
  235                map_scatter                           0.020768                   20   7
  236          M_sumb_d                              0.004572                         20   4
  237        set_dd_magatom                        0.000004                            1   3
  238        set_dd_paw                            0.018199                            1   3
  239          set_rsgf_all                          0.000004                          1   4
  240          M_sumb_d                              0.018044                          8   4
  241        strkin                                0.001291                            1   3
  242          M_sumb_d                              0.000692                          1   4
  243        strelo                                0.002754                            1   3
  244          M_sumb_d                              0.000508                          2   4
  245        strenl                                1.051027                            1   3
  246          spher                                 0.780008                         19   4
  247          phase                                 0.012511                        189   4
  248          proj1                                 0.232932                       1134   4
  249            crexp_mul_wave                        0.032306                     3402   5
  250            M_sumb_d                              0.065091                     1134   5
  251          M_sumb_d                              0.003171                          1   4
  252        M_sumb_d                              0.000302                            6   3
  253        fft3d_mpi                             0.014872                           11   3
  254          fftbas_plan_mpi                       0.013883                         11   4
  255            dfftw_execute                         0.005009                       33   5
  256            map_forward                           0.002818                       10   5
  257              map_gather                            0.000551                      5   6
  258              m_alltoallv_z                         0.001398                      5   6
  259              map_scatter                           0.000632                      5   6
  260            map_backward                          0.003508                       12   5
  261              map_gather                            0.000764                      6   6
  262              m_alltoallv_z                         0.001405                      6   6
  263              map_scatter                           0.001051                      6   6
  264        ggaall_grid                           0.001570                            1   3
  265        forhar                                0.006095                            2   3
  266          M_sumb_d                              0.000208                          2   4
  267        strehar                               0.002579                            1   3
  268          M_sumb_d                              0.000052                          1   4
  269        chggra                                0.005739                            1   3
  270          fft3d_mpi                             0.004037                          3   4
  271            fftbas_plan_mpi                       0.003765                        3   5
  272              dfftw_execute                         0.001429                      9   6
  273              map_backward                          0.000602                      2   6
  274                map_gather                            0.000120                    1   7
  275                m_alltoallv_z                         0.000246                    1   7
  276                map_scatter                           0.000186                    1   7
  277              map_forward                           0.001027                      4   6
  278                map_gather                            0.000235                    2   7
  279                m_alltoallv_z                         0.000447                    2   7
  280                map_scatter                           0.000248                    2   7
  281          M_sumb_d                              0.000150                          3   4
  282        brmix                                 0.008938                            1   3
  283          M_sumb_d                              0.000290                          6   4
  284          brpre                                 0.000056                          1   4
  285          setg0                                 0.001440                          1   4
  286          broyd                                 0.002666                          1   4
  287            M_sumb_d                              0.000688                       19   5
  288            brget                                 0.000518                       69   5
  289            brsav                                 0.000118                       17   5
  290          M_bcast_z                             0.003504                          1   4
  291          M_bcast_d                             0.000046                          1   4
  292        M_bcast_d                             0.000281                            2   3
  293      potlok                                0.026383                              1   2
  294        fft3d_mpi                             0.017837                           13   3
  295          fftbas_plan_mpi                       0.016668                         13   4
  296            dfftw_execute                         0.005665                       39   5
  297            map_forward                           0.003745                       14   5
  298              map_gather                            0.000746                      8   6
  299              m_alltoallv_z                         0.001741                      8   6
  300              map_scatter                           0.000902                      8   6
  301            map_backward                          0.004188                       12   5
  302              map_gather                            0.000858                      6   6
  303              m_alltoallv_z                         0.001815                      6   6
  304              map_scatter                           0.001211                      6   6
  305        ggaall_grid                           0.001498                            1   3
  306        M_sumb_d                              0.000287                            6   3
  307        M_bcast_d                             0.000099                            1   3
  308      potlok_metagga                        0.000004                              1   2
  309      set_dd_magatom                        0.000003                              1   2
  310      set_dd_paw                            0.000465                              1   2
  311        set_rsgf_all                          0.000003                            1   3
  312        M_sumb_d                              0.000246                            8   3
  313      densta                                0.002624                              1   2
  314        M_sumb_d                              0.000914                           44   3
  315      lprj_proall                           0.000007                              1   2

 Flat profile
 ============

             routine name                   CPU           calls
 ---------------------------------------------------------------
 total_time                             14.445846           1
 eddav                                   6.010329          17
 dfftw_execute                           5.533090       56340
 fftbas_plan_mpi                         3.827714       18782
 M_sumb_d                                3.065390       51836
 setdij_                                 2.471019          41
 set_charge                              2.106842          13
 m_alltoallv_z                           2.035403       18807
 pdssyex_zheevx                          1.592329         357
 elmin                                   1.483374           1
 M_alltoall_d                            1.350020       62356
 orth1                                   1.045956       12789
 proj1                                   1.028721        7630
 gemm                                    0.914480       25536
 spher                                   0.903554          20
 vhamil                                  0.854693        8512
 fftwav_mpi                              0.734543        9963
 map_forward                             0.731200       20220
 map_gather                              0.680882       18807
 map_scatter                             0.646545       18807
 vnlac0                                  0.571785        8512
 M_bcast_z                               0.533826        6809
 redis_pw                                0.522353       24150
 hamiltmu                                0.465550        4256
 redis_proj                              0.465228       30541
 w1_copy                                 0.364532       25536
 crpa_reader                             0.316560           1
 work_mul_crexp                          0.307521       25536
 map_backward                            0.304225       17340
 fft3d_mpi                               0.294734       18780
 fftext_mpi                              0.278065        8512
 crexp_mul_wave                          0.230615       22890
 eccp                                    0.195673        2142
 M_bcast_d                               0.193675        4290
 kinhamil                                0.171711        8512
 overl                                   0.170895       14903
 overl1                                  0.105301        8512
 potlok                                  0.090273          14
 apply_precond                           0.088696        6370
 pw_charge                               0.087229        1451
 w1_projall                              0.069647        3185
 setup_precond                           0.068460        2142
 lincom                                  0.061126         378
 force_and_stress                        0.052758           1
 fornl                                   0.046201           1
 phase                                   0.039000         589
 truncate_high_frequency_w1              0.036275       10654
 soft_charge                             0.036166          13
 densta                                  0.030015          18
 broyd                                   0.023773          13
 ggaall_grid                             0.023065          15
 strenl                                  0.022405           1
 brmix                                   0.016085          13
 setg0                                   0.015730          14
 forhar                                  0.005887           2
 depsum                                  0.005780          13
 set_dd_paw                              0.003434          15
 forloc                                  0.003423           1
 strehar                                 0.002527           1
 brget                                   0.002520         501
 strelo                                  0.002246           1
 orthch                                  0.002063           1
 brgrid                                  0.001976           1
 choleski                                0.001782          21
 proj                                    0.001644          21
 chggra                                  0.001552           1
 brsav                                   0.001065         145
 brpre                                   0.000811          13
 strkin                                  0.000599           1
 potlok_metagga                          0.000126          14
 fordep                                  0.000117           1
 vectorpot                               0.000083          14
 set_rsgf_all                            0.000067          15
 set_dd_magatom                          0.000053          15
 set_kineden                             0.000041          12
 rotate_active_occupied_orbital          0.000015           1
 lprj_proall                             0.000007           1
 redis_pw_over_bands                     0.000003           1
 ---------------------------------------------------------------
  summed up times    57.7989068031311

 Accumulative profile
 ====================

             routine name                   CPU           calls
 ---------------------------------------------------------------
 total_time                             57.798907           1
 elmin                                  38.845739           1
 eddav                                  32.504153          17
 fft3d_mpi                              13.992181       18780
 fftbas_plan_mpi                        13.759059       18782
 hamiltmu                               10.023545        4256
 fftwav_mpi                              7.971978        9963
 kinhamil                                6.265514        8512
 fftext_mpi                              6.093802        8512
 dfftw_execute                           5.533090       56340
 set_charge                              3.538360          13
 force_and_stress                        3.305920           1
 M_sumb_d                                3.065390       51836
 setdij_                                 2.965017          41
 map_forward                             2.583996       20220
 vnlac0                                  2.332487        8512
 m_alltoallv_z                           2.035403       18807
 map_backward                            1.814260       17340
 proj1                                   1.778527        7630
 pdssyex_zheevx                          1.592329         357
 w1_projall                              1.588998        3185
 M_alltoall_d                            1.350020       62356
 redis_pw                                1.277009       24150
 soft_charge                             1.250267          13
 redis_proj                              1.060592       30541
 strenl                                  1.051027           1
 orth1                                   1.045956       12789
 gemm                                    0.914480       25536
 spher                                   0.903554          20
 vhamil                                  0.854693        8512
 map_gather                              0.680882       18807
 map_scatter                             0.646545       18807
 M_bcast_z                               0.533826        6809
 fordep                                  0.421869           1
 w1_copy                                 0.364532       25536
 potlok                                  0.364492          14
 crpa_reader                             0.316560           1
 eccp                                    0.313217        2142
 work_mul_crexp                          0.307521       25536
 crexp_mul_wave                          0.230615       22890
 M_bcast_d                               0.193675        4290
 set_dd_paw                              0.185323          15
 overl                                   0.170895       14903
 setup_precond                           0.120656        2142
 overl1                                  0.105301        8512
 brmix                                   0.104403          13
 apply_precond                           0.088696        6370
 pw_charge                               0.087229        1451
 fornl                                   0.064700           1
 lincom                                  0.061126         378
 densta                                  0.044734          18
 phase                                   0.039000         589
 truncate_high_frequency_w1              0.036275       10654
 broyd                                   0.033348          13
 orthch                                  0.032506           1
 proj                                    0.027889          21
 ggaall_grid                             0.023065          15
 setg0                                   0.015730          14
 depsum                                  0.010386          13
 forhar                                  0.006095           2
 chggra                                  0.005739           1
 forloc                                  0.003479           1
 strelo                                  0.002754           1
 strehar                                 0.002579           1
 brget                                   0.002520         501
 brgrid                                  0.001976           1
 choleski                                0.001782          21
 strkin                                  0.001291           1
 brsav                                   0.001065         145
 brpre                                   0.000811          13
 potlok_metagga                          0.000126          14
 vectorpot                               0.000083          14
 set_rsgf_all                            0.000067          15
 set_dd_magatom                          0.000053          15
 set_kineden                             0.000041          12
 rotate_active_occupied_orbital          0.000015           1
 lprj_proall                             0.000007           1
 redis_pw_over_bands                     0.000003           1
 ---------------------------------------------------------------

Profiling took   1.478310  1.791513  0.007325  0.005878 seconds
Profiling took   1.435196 seconds
